Control file title. For DL_FIELD 4.10
49456
    1MOL     O1    1   1.960   0.322   2.494 -0.0544 -0.4930  1.0458
    1MOL     C2    2   2.101   0.359   2.512  0.7414  0.0419 -0.2953
    1MOL     C3    3   2.114   0.492   2.585 -0.4740 -0.2595  0.5194
    1MOL     C4    4   2.088   0.470   2.729  0.1609  0.4337  0.4644
    1MOL     C5    5   2.113   0.594   2.805  0.3853 -0.7296 -0.0070
    1MOL     O6    6   2.028   0.698   2.764  0.5473 -0.2366  0.6498
    1MOL     C7    7   1.962   0.762   2.845  0.1520 -0.2928 -0.7553
    1MOL     O8    8   1.971   0.761   2.968 -0.5846  0.0351 -0.3884
    1MOL     C9    9   1.861   0.847   2.773  0.4592 -0.8910  0.5190
    1MOL    C10   10   1.805   0.959   2.844  0.5535 -0.4757 -0.4023
    1MOL    C11   11   1.694   1.034   2.787 -0.2488 -0.2497  0.2312
    1MOL    C12   12   1.649   1.005   2.658  0.2971 -0.3666 -0.1055
    1MOL    C13   13   1.544   1.082   2.578  0.4983  0.1078 -0.6983
    1MOL    O14   14   1.498   1.187   2.624  0.0192 -0.0769  0.4206
    1MOL    C15   15   1.705   0.892   2.588 -0.3000  0.2542  0.7095
    1MOL    C16   16   1.807   0.818   2.643  0.4969  0.1714  0.6359
    1MOL    H17   17   2.158   0.280   2.561 -0.6240 -0.0602  1.1932
    1MOL    H18   18   2.144   0.361   2.412  0.0477 -1.9154 -0.6499
    1MOL    H19   19   2.034   0.558   2.554  1.1910  1.4120 -0.3022
    1MOL    H20   20   2.211   0.541   2.573 -1.5379  2.4268  2.5214
    1MOL    H21   21   1.988   0.430   2.745 -0.1158  0.4660 -1.1816
    1MOL    H22   22   2.154   0.401   2.782 -0.4287 -0.3359  0.2120
    1MOL    H23   23   2.110   0.565   2.911  0.2228 -0.4904  0.0536
    1MOL    H24   24   2.215   0.631   2.803  0.4238 -0.7539  1.2089
    1MOL    H25   25   1.847   0.973   2.942  1.1688 -1.2113 -0.5543
    1MOL    H26   26   1.656   1.120   2.840 -1.3454 -0.2384 -0.5675
    1MOL    H27   27   1.675   0.868   2.487  1.6130  3.1441 -0.6023
    1MOL    H28   28   1.844   0.744   2.574  1.4182 -0.4306  1.7534
    1MOL    H29   29   1.960   0.230   2.473  0.2478 -0.1446 -0.6207
    1MOL    O30   30   1.506   1.024   2.463  0.2436 -0.9148 -0.1788
    1MOL    C31   31   1.406   1.086   2.387 -0.3609  0.1899  0.4097
    1MOL    C32   32   1.274   1.016   2.414 -0.4208 -0.0966  0.1691
    1MOL    C33   33   1.145   1.058   2.345 -0.6615  0.6887 -0.1581
    1MOL    C34   34   1.138   1.031   2.194 -0.3725  0.1718 -0.2469
    1MOL    O35   35   1.096   0.901   2.160 -0.4641  0.0754  0.0094
    1MOL    C36   36   1.163   0.821   2.087  0.2771 -0.1709  0.9297
    1MOL    O37   37   1.245   0.861   2.004 -0.0007 -0.0806  0.1069
    1MOL    C38   38   1.127   0.679   2.103  0.2586 -0.0453  0.3869
    1MOL    C39   39   1.019   0.630   2.182  0.1973 -0.2110  0.1623
    1MOL    C40   40   0.986   0.493   2.186 -1.0208  0.0147  0.1778
    1MOL    C41   41   1.062   0.397   2.115 -0.3985  0.3807 -0.6364
    1MOL    C42   42   1.022   0.252   2.111  0.3315  0.2675 -0.1212
    1MOL    O43   43   1.089   0.165   2.059  0.3428 -0.2639  0.4876
    1MOL    C44   44   1.174   0.442   2.043  0.3645  0.3128 -0.7044
    1MOL    C45   45   1.200   0.582   2.028  0.4765  0.2477 -1.0105
    1MOL    H46   46   1.412   1.195   2.393  2.3945  0.2286 -1.8946
    1MOL    H47   47   1.429   1.077   2.281  0.8161 -0.7080  0.7415
    1MOL    H48   48   1.252   1.029   2.520 -1.0782 -0.2908  0.0587
    1MOL    H49   49   1.292   0.909   2.401 -2.0098 -0.0404 -2.7889
    1MOL    H50   50   1.058   1.003   2.380  0.8605 -1.4659  0.3392
    1MOL    H51   51   1.130   1.163   2.367 -0.5008  0.6555  0.1120
    1MOL    H52   52   1.062   1.102   2.163 -0.5127  0.6310  1.1311
    1MOL    H53   53   1.233   1.062   2.149 -0.3664  1.6400  0.7232
    1MOL    H54   54   0.958   0.704   2.231  1.7745  0.4010  1.2601
    1MOL    H55   55   0.906   0.463   2.253  0.1073 -2.0782  0.6472
    1MOL    H56   56   1.233   0.371   1.987 -1.4409 -2.1793  0.4733
    1MOL    H57   57   1.273   0.607   1.952  1.9302  0.9484  0.5873
    1MOL    O58   58   0.898   0.242   2.151  0.3926  0.1289 -0.8861
    1MOL    C59   59   0.840   0.116   2.192  0.0727  0.1305  0.3343
    1MOL    C60   60   0.762   0.126   2.329 -0.3223 -0.3346  0.2938
    1MOL    C61   61   0.856   0.103   2.450 -0.5112 -0.2460  0.3152
    1MOL    C62   62   0.794   0.147   2.583 -0.3255  0.3678 -0.4463
    1MOL    O63   63   0.867   0.087   2.694 -0.4509  0.6730 -0.4609
    1MOL    C64   64   0.852   0.142   2.814 -0.7550  0.1684 -0.1218
    1MOL    O65   65   0.791   0.245   2.853  0.4931  0.0594 -0.3624
    1MOL    C66   66   0.923   0.058   2.912 -0.0354  0.1802 -0.3327
    1MOL    C67   67   0.910   0.093   3.051  0.1907  0.2957 -0.1924
    1MOL    C68   68   0.974   0.017   3.154  0.8038  0.4596  0.9232
    1MOL    C69   69   1.059   8.007   3.115 -0.0124  0.5179  0.4831
    1MOL    C70   70   1.125   7.916   3.209 -0.3678 -0.1896 -1.1239
    1MOL    O71   71   1.174   7.809   3.180  0.0962 -0.8880  0.0528
    1MOL    C72   72   1.077   7.982   2.980  1.0682  0.1370  0.1660
    1MOL    C73   73   1.014   8.057   2.876 -0.3691  0.3528  0.1031
    1MOL    H74   74   0.778   0.090   2.105  1.7270 -0.7255 -0.6107
    1MOL    H75   75   0.907   0.030   2.187 -2.5294 -1.9357 -0.7622
    1MOL    H76   76   0.686   0.047   2.333  0.0837 -0.7384  0.0551
    1MOL    H77   77   0.705   0.219   2.326 -0.2893 -0.3070  0.5569
    1MOL    H78   78   0.889   8.098   2.440 -1.5530 -0.4615 -1.0652
    1MOL    H79   79   0.946   0.164   2.443 -0.3591  0.0479  3.7978
    1MOL    H80   80   0.794   0.256   2.593  0.8304  0.4315 -1.0598
    1MOL    H81   81   0.688   0.123   2.583 -0.3084  0.1169 -3.4294
    1MOL    H82   82   0.845   0.173   3.083  0.8126  1.1060 -0.9251
    1MOL    H83   83   0.966   0.048   3.257  0.5355 -0.5161  1.2091
    1MOL    H84   84   1.145   7.907   2.943  1.0262 -0.8261  1.9903
    1MOL    H85   85   1.044   8.036   2.775  1.8652  0.2501  0.7593
    1MOL    O86   86   1.147   7.977   3.327  0.1883  0.5871  0.6845
    1MOL    C87   87   1.195   7.896   3.438 -0.3401 -0.6630 -0.5624
    1MOL    C88   88   1.314   7.953   3.512  0.3021 -1.0059 -0.0006
    1MOL    C89   89   1.447   7.946   3.434  0.1750 -0.0164 -0.7987
    1MOL    C90   90   1.563   8.000   3.521  0.5034 -0.8933  0.1419
    1MOL    O91   91   1.578   7.913   3.636 -0.0793 -0.3233  0.0612
    1MOL    C92   92   1.560   7.974   3.755  0.1184 -0.1689 -0.5269
    1MOL    O93   93   1.540   8.092   3.766  0.5427 -0.2419  0.1516
    1MOL    C94   94   1.597   7.878   3.868  0.3010  0.0858 -0.6465
    1MOL    C95   95   1.683   7.763   3.851  0.2353  0.0887 -0.3101
    1MOL    C96   96   1.703   7.673   3.959  0.0269  0.0927 -0.5018
    1MOL    C97   97   1.648   7.695   4.086 -1.0362  0.0466 -0.0793
    1MOL    C98   98   1.659   7.594   4.201  0.2840  0.6850  0.4040
    1MOL    O99   99   1.726   7.491   4.197 -0.0058 -0.5919  0.1899
    1MOL   C100  100   1.569   7.816   4.107  0.4960 -0.9558  0.7388
    1MOL   C101  101   1.550   7.908   3.998  0.5853  0.0817  0.0973
    1MOL   H102  102   1.115   7.892   3.512  1.0047  1.7200  1.1125
    1MOL   H103  103   1.227   7.795   3.414 -1.4061 -1.8774  2.8175
    1MOL   H104  104   1.322   7.908   3.611 -0.3516 -1.1417 -0.0053
    1MOL   H105  105   1.307   8.059   3.536  0.2454 -0.6839 -1.3619
    1MOL   H106  106   1.478   7.848   3.397 -0.1221 -0.9271  1.2727
    1MOL   H107  107   1.449   8.014   3.349 -3.1147  2.3198  0.9109
    1MOL   H108  108   1.647   8.003   3.451  1.3768 -0.6963  1.1729
    1MOL   H109  109   1.542   0.006   3.543 -0.1216 -1.1432  0.7130
    1MOL   H110  110   1.725   7.741   3.753 -1.1309  0.0357 -0.8933
    1MOL   H111  111   1.769   7.588   3.952 -2.7759 -2.2527  0.6830
    1MOL   H112  112   1.510   7.835   4.195  0.2279 -2.0660  0.8037
    1MOL   H113  113   1.489   7.997   4.002  1.8415  0.8264  3.5010
    1MOL   O114  114   1.591   7.623   4.319 -0.3030 -0.0242 -0.0005
    1MOL   C115  115   1.595   7.541   4.435  0.0796  0.3073 -0.3337
    1MOL   C116  116   1.548   7.631   4.553  1.0164  0.5554 -0.3632
    1MOL   C117  117   1.676   7.698   4.617 -0.3490  0.4740  0.3202
    1MOL   C118  118   1.653   7.821   4.705  0.0478  0.3362  0.0053
    1MOL   O119  119   1.588   7.912   4.629  0.1263 -0.1411  0.0298
    1MOL   C120  120   1.471   7.971   4.667  0.5379 -0.7356 -0.4486
    1MOL   O121  121   1.412   7.945   4.766 -0.4654 -0.0957 -0.2553
    1MOL   C122  122   1.424   8.074   4.564  0.5255 -0.4989 -0.2455
    1MOL   C123  123   1.472   8.066   4.429 -0.4035 -0.0727  0.2312
    1MOL   C124  124   1.420   0.054   4.329  0.4132 -0.2959  0.5785
    1MOL   C125  125   1.327   0.156   4.362  0.2127 -0.0825 -0.1062
    1MOL   C126  126   1.280   0.262   4.268 -0.7249  0.1215 -0.5050
    1MOL   O127  127   1.208   0.351   4.301 -0.2634  0.4171  0.6061
    1MOL   C128  128   1.273   0.157   4.492  0.6452  0.1663 -0.4216
    1MOL   C129  129   1.322   0.071   4.595 -0.8824 -0.7545 -0.0339
    1MOL   H130  130   1.544   7.447   4.412  0.2954 -0.3257  1.6610
    1MOL   H131  131   1.699   7.512   4.450 -0.2765 -0.9357 -0.2055
    1MOL   H132  132   1.495   7.571   4.627  0.0269 -0.4608 -1.8675
    1MOL   H133  133   1.472   7.705   4.527  0.5719  0.7416  1.3427
    1MOL   H134  134   1.720   7.617   4.676  0.0157 -1.3017 -2.3012
    1MOL   H135  135   1.751   7.734   4.546  0.9658 -2.1726  0.2838
    1MOL   H136  136   1.597   7.794   4.794 -1.0683 -2.1912 -1.4022
    1MOL   H137  137   1.742   7.878   4.732 -0.3663  1.2176 -0.4776
    1MOL   H138  138   1.541   7.995   4.386 -1.7497 -1.3886  0.1889
    1MOL   H139  139   1.452   0.042   4.227 -1.2878  0.0704 -0.0154
    1MOL   H140  140   1.199   0.225   4.530  1.6832  1.6172 -0.9460
    1MOL   H141  141   1.290   0.084   4.697  0.3535 -0.8546  0.3706
    1MOL   O142  142   1.343   0.251   4.142 -0.0576  0.1633  1.1621
    1MOL   C143  143   1.327   0.348   4.037  0.2768 -0.0758 -0.1415
    1MOL   C144  144   1.385   0.313   3.903  0.0463  0.0656  0.2743
    1MOL   C145  145   1.540   0.325   3.890  0.0386  0.1098  0.5972
    1MOL   C146  146   1.620   0.236   3.995 -0.0621  0.3313  0.3375
    1MOL   O147  147   1.641   0.322   4.105  0.6369  0.1759 -0.0671
    1MOL   C148  148   1.661   0.256   4.219  0.0037  0.1575  0.0329
    1MOL   O149  149   1.688   0.141   4.233  0.4327 -0.0931 -0.6145
    1MOL   C150  150   1.660   0.345   4.337 -0.2463 -0.0094  0.3122
    1MOL   C151  151   1.643   0.295   4.470 -0.2108  0.2074 -0.2798
    1MOL   C152  152   1.635   0.377   4.574  0.1833  0.0151 -0.5675
    1MOL   C153  153   1.636   0.516   4.561  0.1682 -0.1394  0.9562
    1MOL   C154  154   1.641   0.611   4.676 -0.3930  0.7221  0.0941
    1MOL   O155  155   1.620   0.575   4.790  0.2009 -0.1804  0.0672
    1MOL   C156  156   1.664   0.572   4.432  0.2127  0.0835  0.7494
    1MOL   C157  157   1.672   0.486   4.320  0.2714 -0.1595  0.2170
    1MOL   H158  158   1.220   0.366   4.027  0.1567 -0.9600 -0.5928
    1MOL   H159  159   1.370   0.441   4.074 -0.4061  0.3267 -0.3651
    1MOL   H160  160   1.341   0.379   3.828  1.2476 -1.2353 -1.6338
    1MOL   H161  161   1.356   0.212   3.875 -0.0146  0.2393 -0.2955
    1MOL   H162  162   1.563   0.301   3.786  0.0692  0.0199  0.6252
    1MOL   H163  163   1.567   0.430   3.892  2.3223 -0.4687  1.2793
    1MOL   H164  164   1.562   0.147   4.020  1.9470 -1.5098 -1.3464
    1MOL   H165  165   1.717   0.216   3.949 -0.3353  1.2995 -0.6865
    1MOL   H166  166   1.638   0.188   4.486  1.8182  0.0405 -0.6491
    1MOL   H167  167   1.623   0.324   4.667 -3.3377 -0.1219 -1.0096
    1MOL   H168  168   1.652   0.679   4.420  3.9220  0.6468  1.4427
    1MOL   H169  169   1.688   0.533   4.224  0.2047  2.3447  1.3978
    1MOL   O170  170   1.669   0.742   4.646 -0.0690 -0.6739 -0.2296
    1MOL   C171  171   1.708   0.828   4.747 -0.5373 -0.2554 -0.6556
    1MOL   C172  172   1.605   0.941   4.752 -0.6910 -0.0833  0.1182
    1MOL   C173  173   1.615   1.032   4.633 -0.4384 -0.0763  0.5292
    1MOL   C174  174   1.506   1.129   4.614 -0.1679 -0.1473  0.2493
    1MOL   O175  175   1.506   1.217   4.728 -0.5413  0.1815  0.1552
    1MOL   C176  176   1.400   1.290   4.756 -0.7335 -0.4576 -0.7519
    1MOL   O177  177   1.306   1.310   4.676  0.4227 -0.3933 -0.6063
    1MOL   C178  178   1.401   1.353   4.898  0.0001 -0.1647  0.0365
    1MOL   C179  179   1.454   1.276   5.003 -0.1333 -0.4050  0.0539
    1MOL   C180  180   1.410   1.302   5.136 -0.1212 -0.0005 -0.1528
    1MOL   C181  181   1.330   1.412   5.166  0.7151  0.6702  0.6971
    1MOL   C182  182   1.303   1.452   5.307 -0.0187  0.5935  0.2369
    1MOL   O183  183   1.357   1.393   5.408 -0.3653 -0.4184  0.8520
    1MOL   C184  184   1.275   1.489   5.061  0.1192 -0.4874  0.4109
    1MOL   C185  185   1.312   1.459   4.921 -0.6865  0.6536 -0.4777
    1MOL   H186  186   1.734   0.778   4.840  2.1158 -0.5359 -1.5063
    1MOL   H187  187   1.804   0.877   4.729 -0.6594 -0.3640 -1.6444
    1MOL   H188  188   1.618   0.999   4.843 -1.4344  0.9562 -0.4326
    1MOL   H189  189   1.509   0.892   4.764 -0.7490  0.3316  1.4182
    1MOL   H190  190   1.712   1.080   4.617 -0.2804 -0.8130 -0.8201
    1MOL   H191  191   1.615   0.970   4.543  0.6468 -0.1900  0.5970
    1MOL   H192  192   1.498   1.185   4.521  1.6383 -0.7849 -0.3209
    1MOL   H193  193   1.419   1.064   4.617 -0.0246 -0.3289  0.5632
    1MOL   H194  194   1.525   1.196   4.987  0.3096 -0.1108  0.5281
    1MOL   H195  195   1.458   1.244   5.213  1.7420  0.9861 -0.5348
    1MOL   H196  196   1.203   1.568   5.080  0.0814  0.2102 -2.3989
    1MOL   H197  197   1.264   1.500   4.834 -2.0924 -0.9566 -0.5054
    1MOL   O198  198   1.226   1.566   5.328  0.2811  0.4328 -0.0463
    1MOL   C199  199   1.152   1.574   5.451  0.3553  0.6842  0.0231
    1MOL   C200  200   1.014   1.499   5.423  0.2363 -0.0446  0.6074
    1MOL   C201  201   0.922   1.517   5.544 -0.3853 -0.1131  0.2050
    1MOL   C202  202   0.784   1.456   5.496 -0.0098  0.0970 -0.0242
    1MOL   O203  203   0.696   1.462   5.608 -0.1154  0.2839  0.0157
    1MOL   C204  204   0.641   1.574   5.639  0.6943 -0.5755  0.1436
    1MOL   O205  205   0.636   1.677   5.573  0.0852  0.1335 -0.2677
    1MOL   C206  206   0.583   1.569   5.776 -0.1980 -0.9832  0.5570
    1MOL   C207  207   0.585   1.685   5.858 -0.3842  0.5881 -0.0531
    1MOL   C208  208   0.541   1.665   5.993  0.0494  0.1902  0.5875
    1MOL   C209  209   0.483   1.541   6.032 -0.4024  0.1075  0.2412
    1MOL   C210  210   0.421   1.529   6.170  0.1650 -0.2485  0.1919
    1MOL   O211  211   0.339   1.437   6.186 -0.1589  0.0198 -0.8568
    1MOL   C212  212   0.485   1.432   5.947 -0.5457  0.3891  0.0577
    1MOL   C213  213   0.533   1.445   5.821 -0.5595 -0.5253  1.0575
    1MOL   H214  214   1.195   1.527   5.540 -1.1897 -1.9592 -0.5883
    1MOL   H215  215   1.137   1.677   5.482  0.0851  0.3305  1.1019
    1MOL   H216  216   1.040   1.394   5.417  0.4296  0.0260  0.2521
    1MOL   H217  217   0.974   1.531   5.327 -0.3135  0.5883  1.0334
    1MOL   H218  218   0.964   1.471   5.633 -1.3935  0.3687  0.9433
    1MOL   H219  219   0.923   1.626   5.555 -1.2788  0.1123 -1.8178
    1MOL   H220  220   0.744   1.520   5.418 -1.0346 -1.1481 -0.5216
    1MOL   H221  221   0.790   1.352   5.465 -2.4009  0.1473 -0.7203
    1MOL   H222  222   0.624   1.780   5.823  1.8992 -0.6213 -0.9127
    1MOL   H223  223   0.547   1.750   6.060 -0.7790  0.5264  0.2401
    1MOL   H224  224   0.447   1.335   5.975  1.0197 -0.8420 -1.9255
    1MOL   H225  225   0.534   1.363   5.751 -1.2154  0.4116 -0.0756
    1MOL   O226  226   0.448   1.619   6.262 -0.2542 -0.3987  0.4298
    1MOL   C227  227   0.379   1.607   6.383 -0.4068  0.3260  0.6184
    1MOL   C228  228   0.318   1.735   6.444  0.1948  0.1151  0.5447
    1MOL   C229  229   0.202   1.784   6.360 -0.1417  0.2260  0.0831
    1MOL   C230  230   0.115   1.888   6.433  0.0110  0.7014  0.4105
    1MOL   O231  231   0.008   1.937   6.361  0.0486  0.2610  0.3337
    1MOL   C232  232   0.012   2.048   6.295  0.2216 -0.1207  0.6422
    1MOL   O233  233   0.115   2.116   6.288  0.1657 -0.0141 -0.6087
    1MOL   C234  234   7.985   2.076   6.221  0.5420  0.3521  0.0510
    1MOL   C235  235   7.997   2.164   6.112 -0.3473 -0.2847 -0.3287
    1MOL   C236  236   7.894   2.175   6.017  0.3438 -0.0128 -0.3161
    1MOL   C237  237   7.771   2.110   6.031 -0.0873 -0.2333  0.4329
    1MOL   C238  238   7.654   2.115   5.930  0.6353  0.3081  0.1301
    1MOL   O239  239   7.562   2.038   5.911 -0.1812 -0.0328 -0.2210
    1MOL   C240  240   7.756   2.034   6.148 -0.4235  0.5394  0.2771
    1MOL   C241  241   7.860   2.012   6.241  0.0066  0.4501  0.0249
    1MOL   H242  242   0.305   1.528   6.384 -1.6829  1.4824 -0.1564
    1MOL   H243  243   0.465   1.575   6.441  1.3272  0.3473 -1.8452
    1MOL   H244  244   0.390   1.816   6.451  0.4792 -0.0327 -0.5555
    1MOL   H245  245   0.292   1.720   6.548  0.0072 -3.2967  0.0788
    1MOL   H246  246   0.229   1.808   6.257  0.6298 -1.3058 -0.0819
    1MOL   H247  247   0.137   1.697   6.350 -0.2100  0.3167 -0.2603
    1MOL   H248  248   0.063   1.825   6.504  0.3081 -1.3804 -1.1700
    1MOL   H249  249   0.182   1.964   6.475 -0.1329  0.3378  1.3012
    1MOL   H250  250   0.001   2.197   6.098 -0.8976  0.9218 -1.6418
    1MOL   H251  251   7.913   2.239   5.932  1.3838 -2.3606 -1.9126
    1MOL   H252  252   7.663   1.980   6.158  1.9680 -4.1220 -1.1654
    1MOL   H253  253   7.848   1.936   6.317  0.8191  0.2421 -0.0508
    1MOL   O254  254   7.681   2.225   5.855 -0.2417  0.0032 -0.3828
    1MOL   C255  255   7.587   2.264   5.751 -0.0613 -1.0765  0.5842
    1MOL   C256  256   7.640   2.387   5.667 -0.2301  0.5584 -0.0814
    1MOL   C257  257   7.537   2.478   5.604 -0.5192 -0.1332  0.4834
    1MOL   C258  258   7.453   2.418   5.486 -0.4563  0.3960 -1.0430
    1MOL   O259  259   7.368   2.521   5.434 -0.2569 -0.1254  0.0115
    1MOL   C260  260   7.311   2.505   5.313 -0.6729 -0.3329  0.1476
    1MOL   O261  261   7.347   2.417   5.238  0.1479  0.3850 -0.3458
    1MOL   C262  262   7.216   2.620   5.277  0.5820  0.2509  0.7949
    1MOL   C263  263   7.138   2.681   5.378 -0.2728  0.3342  0.4319
    1MOL   C264  264   7.058   2.794   5.347 -0.1200  0.3932 -0.0109
    1MOL   C265  265   7.061   2.843   5.217  0.5576  0.6389  0.0172
    1MOL   C266  266   6.983   2.962   5.186  0.1167 -0.3884  0.3333
    1MOL   O267  267   6.978   3.001   5.071  0.3334  0.6468  0.0565
    1MOL   C268  268   7.143   2.792   5.122  0.3150  0.2824 -0.5032
    1MOL   C269  269   7.226   2.681   5.147 -0.0760  0.8388  0.0915
    1MOL   H270  270   7.584   2.180   5.683 -1.4434  0.4396 -1.2826
    1MOL   H271  271   7.495   2.285   5.806 -1.0435 -1.8482 -0.7366
    1MOL   H272  272   7.711   2.353   5.591  0.6331 -1.7373  1.7102
    1MOL   H273  273   7.676   2.457   5.743  0.3614 -0.7395  0.8580
    1MOL   H274  274   7.480   2.517   5.688  3.2098  1.4271  2.4416
    1MOL   H275  275   7.594   2.559   5.558 -0.7654  0.6634  1.5732
    1MOL   H276  276   7.528   2.384   5.415  0.1332 -2.0329  0.6662
    1MOL   H277  277   7.402   2.332   5.529  0.6293  0.9610  1.5132
    1MOL   H278  278   7.128   2.636   5.475  1.0682  0.0475  0.4437
    1MOL   H279  279   6.996   2.833   5.427  0.4033  1.2364 -0.0157
    1MOL   H280  280   7.164   2.839   5.026 -1.4702  3.2788  0.4943
    1MOL   H281  281   7.298   2.644   5.076 -0.5358 -0.0772  0.0973
    1MOL   O282  282   6.924   3.042   5.288  0.0727  0.1026 -0.2862
    1MOL   C283  283   6.824   3.141   5.249  0.1257  0.0134  0.9541
    1MOL   C284  284   6.823   3.256   5.351  0.2154 -0.0940 -0.3701
    1MOL   C285  285   6.714   3.366   5.330  0.2365  0.1484 -0.6534
    1MOL   C286  286   6.739   3.447   5.205  0.4280  0.1717 -0.0965
    1MOL   O287  287   6.702   3.357   5.091  0.3991 -0.4903 -0.3673
    1MOL   C288  288   6.589   3.379   5.021 -0.9412 -0.2096  0.3132
    1MOL   O289  289   6.516   3.476   5.037 -0.0837  0.2426  0.2543
    1MOL   C290  290   6.551   3.266   4.938  0.4832  0.7292  1.1245
    1MOL   C291  291   6.638   3.158   4.921  0.6191 -0.5134 -0.2377
    1MOL   C292  292   6.597   3.047   4.845 -0.0974  0.1443  0.4224
    1MOL   C293  293   6.476   3.057   4.763 -0.3950 -0.6440  0.2808
    1MOL   C294  294   6.445   2.961   4.656 -0.1359 -0.2299  0.6842
    1MOL   O295  295   6.362   2.983   4.567 -0.0170 -0.4902 -0.1455
    1MOL   C296  296   6.391   3.162   4.789  0.3833 -0.2046  0.8056
    1MOL   C297  297   6.428   3.264   4.874  1.1113  0.3874 -0.2222
    1MOL   H298  298   6.843   3.179   5.149  0.8755 -2.1868  0.2425
    1MOL   H299  299   6.722   3.103   5.252 -0.2213  0.9239  0.7849
    1MOL   H300  300   6.924   3.298   5.352  0.7815 -1.4600 -0.0259
    1MOL   H301  301   6.806   3.220   5.452  0.1205  2.6080  0.6339
    1MOL   H302  302   6.627   3.301   5.322  2.0664 -2.6467  1.0865
    1MOL   H303  303   6.705   3.424   5.422  1.0518 -0.1443 -0.3825
    1MOL   H304  304   6.686   3.542   5.198  0.5400  0.2135 -0.4026
    1MOL   H305  305   6.845   3.475   5.210  0.6079 -0.4044 -0.5782
    1MOL   H306  306   6.728   3.142   4.979  0.1399 -1.9654  0.1173
    1MOL   H307  307   6.656   2.958   4.829 -1.0778 -0.4814  0.1876
    1MOL   H308  308   6.294   3.175   4.743  0.6747  1.7643  0.7044
    1MOL   H309  309   6.365   3.352   4.870  0.3019 -0.2224 -1.6498
    1MOL   O310  310   6.515   2.848   4.664  0.3568 -0.1190  0.4879
    1MOL   C311  311   6.497   2.733   4.583  1.5821 -0.4010  0.4001
    1MOL   C312  312   6.625   2.725   4.504 -1.0727 -0.6590 -0.1171
    1MOL   C313  313   6.630   2.820   4.377  0.1680 -0.4713  0.1024
    1MOL   C314  314   6.654   2.750   4.243  0.7004 -0.0358  0.2719
    1MOL   O315  315   6.541   2.671   4.215 -0.4869 -0.4994  0.2895
    1MOL   C316  316   6.513   2.634   4.078  0.4367  0.0665  0.4421
    1MOL   O317  317   6.603   2.628   3.989 -0.0978  0.2178  0.6192
    1MOL   C318  318   6.377   2.587   4.061  0.3801  0.0894  0.4389
    1MOL   C319  319   6.338   2.530   3.940 -0.0533 -0.7041 -0.2271
    1MOL   C320  320   6.214   2.473   3.927  0.2339  0.3996 -0.1625
    1MOL   C321  321   6.121   2.465   4.040  0.2541 -0.0347  0.0510
    1MOL   C322  322   5.992   2.396   4.026 -0.7737 -0.3341 -0.4686
    1MOL   O323  323   5.964   2.346   3.920 -0.4084 -0.7321 -0.3262
    1MOL   C324  324   6.158   2.518   4.161  0.5635 -0.4238 -0.4020
    1MOL   C325  325   6.282   2.577   4.165 -0.1873 -0.2002  0.0250
    1MOL   H326  326   6.486   2.650   4.653 -1.8456 -0.6973 -0.3696
    1MOL   H327  327   6.411   2.736   4.516  0.1115  0.0064  2.2753
    1MOL   H328  328   6.659   2.625   4.478  1.0890 -0.4970  1.9931
    1MOL   H329  329   6.714   2.753   4.559 -1.7897  0.0392  0.7068
    1MOL   H330  330   6.535   2.873   4.377  0.6340  0.6655  5.3495
    1MOL   H331  331   6.710   2.894   4.387 -0.9371  0.7983 -0.3650
    1MOL   H332  332   6.646   2.827   4.167 -0.3443 -1.5476 -1.1835
    1MOL   H333  333   6.749   2.700   4.227 -0.4963 -1.9516 -1.1141
    1MOL   H334  334   6.393   2.540   3.847  0.7770 -1.8667  0.1296
    1MOL   H335  335   6.189   2.431   3.831  1.7485  1.4973 -1.0598
    1MOL   H336  336   6.091   2.522   4.246 -1.3118  1.6306 -1.9151
    1MOL   H337  337   6.313   2.626   4.257  1.2588 -0.1637 -0.4692
    1MOL   O338  338   5.928   2.382   4.140  0.3300  0.6662  0.2723
    1MOL   C339  339   5.803   2.312   4.132  0.4606 -0.6533  0.3827
    1MOL   C340  340   5.773   2.224   4.259  0.6458 -0.1416  1.0096
    1MOL   C341  341   5.871   2.116   4.280  0.0793 -0.0340  0.2929
    1MOL   C342  342   5.849   2.050   4.419 -0.1733  0.2907 -0.2141
    1MOL   O343  343   5.722   1.978   4.410  0.2455  0.1222  0.2251
    1MOL   C344  344   5.687   1.904   4.514  0.6674 -0.1914  0.1892
    1MOL   O345  345   5.747   1.902   4.621  0.0439 -0.5739  0.1749
    1MOL   C346  346   5.569   1.819   4.491  0.3618 -0.5473  0.2683
    1MOL   C347  347   5.477   1.862   4.397  0.8783 -0.1827 -0.3123
    1MOL   C348  348   5.362   1.784   4.380 -0.9180 -0.4436  0.4668
    1MOL   C349  349   5.333   1.668   4.456  0.1308 -1.2057 -0.4994
    1MOL   C350  350   5.222   1.579   4.426 -0.3850 -0.2526 -0.5354
    1MOL   O351  351   5.183   1.508   4.518 -0.2280 -0.4894 -0.6850
    1MOL   C352  352   5.423   1.634   4.559 -0.0726  0.0625 -0.0874
    1MOL   C353  353   5.546   1.706   4.573 -0.3404 -0.3446 -0.3158
    1MOL   H354  354   5.720   2.383   4.121 -0.3340 -1.5884  0.2523
    1MOL   H355  355   5.796   2.262   4.035  2.0030  0.5513 -0.3776
    1MOL   H356  356   5.676   2.181   4.234  1.6811 -0.7819 -2.1744
    1MOL   H357  357   5.753   2.301   4.333 -0.0499  1.1063 -0.4530
    1MOL   H358  358   5.873   2.049   4.193 -2.2766 -1.4072  1.2397
    1MOL   H359  359   5.970   2.160   4.272 -0.9186  1.9627 -1.4892
    1MOL   H360  360   5.933   1.987   4.447 -0.5892  0.1255  0.6868
    1MOL   H361  361   5.846   2.127   4.497  0.3638 -0.7628  0.8641
    1MOL   H362  362   5.495   1.949   4.335  2.5078 -0.3359 -0.0609
    1MOL   H363  363   5.306   1.812   4.292 -2.3554 -2.8480  0.5712
    1MOL   H364  364   5.395   1.547   4.617 -0.7961  1.6747  2.0680
    1MOL   H365  365   5.615   1.676   4.651 -0.0506  1.1576  0.0336
    1MOL   O366  366   5.170   1.580   4.305  0.0505 -0.1947 -0.0558
    1MOL   C367  367   5.043   1.524   4.285  0.5730 -0.4486  0.1288
    1MOL   C368  368   4.943   1.640   4.246 -0.2212  0.3668 -0.2521
    1MOL   C369  369   4.927   1.746   4.348 -0.1803 -0.8365 -0.2004
    1MOL   C370  370   4.823   1.844   4.298  0.2930 -0.2745 -0.4376
    1MOL   O371  371   4.870   1.904   4.177 -0.0774  0.5353  0.2069
    1MOL   C372  372   4.798   2.000   4.118 -0.4975 -0.2968  0.6359
    1MOL   O373  373   4.683   2.034   4.155  0.3796 -0.7001 -0.1234
    1MOL   C374  374   4.869   2.065   4.004  0.2247 -0.9392 -0.0417
    1MOL   C375  375   5.000   2.028   3.978 -0.3327 -0.2150  0.5097
    1MOL   C376  376   5.061   2.073   3.864  0.0803 -0.0579 -0.3744
    1MOL   C377  377   5.003   2.163   3.777  1.0431  0.3753 -0.7431
    1MOL   C378  378   5.071   2.195   3.649  0.0274  0.4110 -0.7452
    1MOL   O379  379   5.026   2.273   3.567  0.1445  0.9476  0.3581
    1MOL   C380  380   4.872   2.207   3.810  0.0125  0.4336  0.3835
    1MOL   C381  381   4.802   2.162   3.917 -0.1759  0.4457  0.0866
    1MOL   H382  382   5.050   1.447   4.208  0.1607  0.2413 -0.6145
    1MOL   H383  383   5.018   1.467   4.374  1.1378  0.4374  0.8670
    1MOL   H384  384   4.846   1.590   4.234 -1.0095  1.3681  1.7605
    1MOL   H385  385   4.981   1.684   4.154 -1.5130  0.7535 -0.6124
    1MOL   H386  386   4.898   1.706   4.445  0.2232  1.6414  0.9880
    1MOL   H387  387   5.024   1.794   4.361 -0.4785 -0.5723  1.0826
    1MOL   H388  388   4.728   1.793   4.283  1.3742 -2.3317 -0.4797
    1MOL   H389  389   4.805   1.912   4.381  0.6942 -1.0097  0.2682
    1MOL   H390  390   5.059   1.963   4.041  0.4576 -0.2000 -0.2002
    1MOL   H391  391   5.157   2.029   3.840  0.6124  1.5245 -1.2047
    1MOL   H392  392   4.812   2.265   3.741 -0.0219  0.1304  0.1592
    1MOL   H393  393   4.702   2.191   3.945 -1.5278 -2.7690 -1.1249
    1MOL   O394  394   5.185   2.125   3.631  0.1480  0.4526 -0.2030
    1MOL   C395  395   5.261   2.133   3.513  0.4829  0.2348  0.5022
    1MOL   C396  396   5.389   2.049   3.529  0.4867 -0.6703  0.2078
    1MOL   C397  397   5.365   1.891   3.526  0.2908 -0.2824  0.1137
    1MOL   C398  398   5.298   1.848   3.655  0.1032 -0.2424 -0.5750
    1MOL   O399  399   5.296   1.708   3.671  0.2054  0.1015 -0.7285
    1MOL   C400  400   5.224   1.663   3.782 -0.2913 -0.4191  0.0767
    1MOL   O401  401   5.205   1.741   3.878  0.1483  0.0942  0.2373
    1MOL   C402  402   5.178   1.522   3.785  0.1402 -0.5457  0.6077
    1MOL   C403  403   5.221   1.426   3.691 -0.3701 -0.3824  0.2202
    1MOL   C404  404   5.163   1.294   3.692  0.7198 -0.1203 -0.1761
    1MOL   C405  405   5.074   1.252   3.794 -0.3745  1.0071  0.6080
    1MOL   C406  406   5.036   1.106   3.800  0.4259  0.3236  0.0067
    1MOL   O407  407   4.960   1.069   3.885  0.0633  0.8860 -0.6357
    1MOL   C408  408   5.027   1.347   3.886  0.0548 -1.0120 -0.3334
    1MOL   C409  409   5.080   1.477   3.882  0.3063 -0.5018  0.6519
    1MOL   H410  410   5.207   2.104   3.423 -0.0662  3.8051 -0.3737
    1MOL   H411  411   5.285   2.237   3.491  0.3216  0.1703  0.0296
    1MOL   H412  412   5.450   2.077   3.615 -0.6459  0.9924  0.5024
    1MOL   H413  413   5.456   2.071   3.446 -0.5581  0.1070 -0.4501
    1MOL   H414  414   5.303   1.860   3.442 -0.5105 -2.6444  1.5384
    1MOL   H415  415   5.459   1.836   3.518 -0.7111 -1.9742 -0.1597
    1MOL   H416  416   5.360   1.889   3.735 -0.3214  2.9866 -1.8110
    1MOL   H417  417   5.196   1.884   3.660 -0.0797 -0.8788  0.4473
    1MOL   H418  418   5.287   1.466   3.615 -0.3867 -0.5968  0.0913
    1MOL   H419  419   5.191   1.230   3.610 -0.1079 -0.4113 -0.2422
    1MOL   H420  420   4.950   1.327   3.958  1.8473 -0.6927  1.7446
    1MOL   H421  421   5.049   1.547   3.958 -0.3487 -0.3022  0.2056
    1MOL   O422  422   5.093   1.026   3.710  0.0714  0.2023 -0.1202
    1MOL   C423  423   5.064   0.889   3.710 -0.5819 -0.0219  0.2910
    1MOL   C424  424   5.145   0.808   3.811  0.8968 -0.8007  0.1684
    1MOL   C425  425   5.115   0.662   3.819  0.3696 -0.7355 -0.0899
    1MOL   C426  426   5.163   0.577   3.691  0.3018 -0.2182  0.5501
    1MOL   O427  427   5.098   0.614   3.570  0.4720 -0.2499 -0.2142
    1MOL   C428  428   4.971   0.580   3.550 -0.6019 -0.2295 -0.4321
    1MOL   O429  429   4.908   0.497   3.616 -1.0038  0.1846 -0.0998
    1MOL   C430  430   4.922   0.641   3.421 -0.5586  0.3042 -0.1858
    1MOL   C431  431   4.993   0.746   3.357  0.1848 -0.0490 -0.5636
    1MOL   C432  432   4.956   0.796   3.227 -0.6103  0.4766  0.1533
    1MOL   C433  433   4.836   0.743   3.169 -0.5771 -0.3484  0.3221
    1MOL   C434  434   4.795   0.767   3.029  0.0042 -0.1641  0.3144
    1MOL   O435  435   4.716   0.697   2.964  0.3699 -0.1725 -0.3343
    1MOL   C436  436   4.754   0.648   3.244  0.4403 -0.0011  0.4597
    1MOL   C437  437   4.796   0.602   3.371  0.4597  0.2704  0.4266
    1MOL   H438  438   4.955   0.883   3.715 -0.5208  0.9336  3.7517
    1MOL   H439  439   5.100   0.851   3.614 -0.8605 -0.6315  0.4297
    1MOL   H440  440   5.125   0.856   3.907  1.8051  1.5050 -0.7561
    1MOL   H441  441   5.253   0.819   3.801  0.5288  1.7413 -1.3756
    1MOL   H442  442   5.169   0.628   3.908 -0.1889  1.6307  1.1903
    1MOL   H443  443   5.010   0.636   3.829  0.2085 -0.6892 -1.5415
    1MOL   H444  444   5.269   0.586   3.671 -0.1038  1.4793 -0.9430
    1MOL   H445  445   5.149   0.470   3.709  0.9286 -0.2385  0.9247
    1MOL   H446  446   5.086   0.784   3.397  0.5223 -1.8522  0.4006
    1MOL   H447  447   5.028   0.863   3.182  0.2685 -0.0252  0.7979
    1MOL   H448  448   4.664   0.602   3.208  0.7256 -0.1561 -0.0718
    1MOL   H449  449   4.739   0.527   3.425  2.3764 -1.1196  0.5487
    1MOL   O450  450   4.866   0.869   2.971  0.3950  0.3990  0.1598
    1MOL   C451  451   4.870   0.880   2.827  0.2239 -0.0553 -0.0616
    1MOL   C452  452   4.996   0.965   2.794 -0.2087 -0.4383  0.1770
    1MOL   C453  453   5.045   0.924   2.656 -0.4930 -0.6817 -0.1545
    1MOL   C454  454   5.158   1.022   2.596 -0.1369 -0.5488  0.2306
    1MOL   O455  455   5.176   0.985   2.455 -0.3205 -0.0990 -0.3962
    1MOL   C456  456   5.282   0.904   2.416 -0.3703 -0.4260  0.0489
    1MOL   O457  457   5.370   0.855   2.488 -0.0072 -0.0437  0.2057
    1MOL   C458  458   5.267   0.875   2.274 -0.4086  0.1676 -0.2624
    1MOL   C459  459   5.185   0.941   2.180  0.2235  0.1763  0.6513
    1MOL   C460  460   5.179   0.910   2.044 -0.1081 -0.5563 -0.4863
    1MOL   C461  461   5.257   0.810   1.992  0.2016  0.0457  0.0893
    1MOL   C462  462   5.241   0.786   1.845  0.0235 -0.8815  0.0769
    1MOL   O463  463   5.180   0.868   1.772  0.5492  0.7212 -0.0496
    1MOL   C464  464   5.337   0.735   2.081  0.4205 -0.6670 -0.1671
    1MOL   C465  465   5.351   0.771   2.215  0.4009  0.4176 -0.7848
    1MOL   H466  466   4.883   0.781   2.782 -1.7946 -0.4204  0.1049
    1MOL   H467  467   4.777   0.918   2.785  0.2633  1.4820  1.2341
    1MOL   H468  468   5.077   0.939   2.863 -0.5093 -1.9171 -0.0106
    1MOL   H469  469   4.968   1.069   2.807  2.3161  0.0867  1.8672
    1MOL   H470  470   5.079   0.820   2.662  0.5130 -0.2216  2.7356
    1MOL   H471  471   4.961   0.924   2.587 -0.8429 -1.2604  0.2656
    1MOL   H472  472   5.109   1.119   2.607 -1.8016 -1.1563 -1.5195
    1MOL   H473  473   5.250   1.013   2.654  0.5213  1.8712 -0.3804
    1MOL   H474  474   5.130   1.029   2.212  0.7441  1.6911 -2.4472
    1MOL   H475  475   5.108   0.965   1.985  0.4835 -0.1952 -0.8658
    1MOL   H476  476   5.398   0.655   2.042  1.3680 -1.3314  2.5729
    1MOL   H477  477   5.420   0.716   2.278 -1.2606 -1.7367 -0.7837
    1MOL   O478  478   5.299   0.670   1.801  0.2136 -0.0986  0.3962
    1MOL   C479  479   5.273   0.627   1.664 -0.6924 -0.9578 -0.1848
    1MOL   C480  480   5.301   0.483   1.639 -0.1235  1.0898  0.5489
    1MOL   C481  481   5.178   0.387   1.647  0.5405  0.5357  0.0503
    1MOL   C482  482   5.135   0.359   1.792 -0.4161  0.1990  0.4634
    1MOL   O483  483   5.089   0.479   1.855 -0.6000 -0.5699  0.6458
    1MOL   C484  484   5.084   0.479   1.996  0.3022  0.2314 -0.1506
    1MOL   O485  485   5.143   0.395   2.062  0.4198  0.3526  0.3419
    1MOL   C486  486   5.000   0.584   2.056  0.0025 -0.1217  0.5805
    1MOL   C487  487   4.928   0.671   1.967 -0.0565  0.3987 -0.0665
    1MOL   C488  488   4.855   0.772   2.028 -0.2372 -0.4419 -0.1497
    1MOL   C489  489   4.854   0.792   2.170  0.0004 -0.3712  0.4609
    1MOL   C490  490   4.789   0.905   2.228 -0.5202 -0.3332 -0.9144
    1MOL   O491  491   4.738   0.997   2.167  0.1914  0.3580  0.4186
    1MOL   C492  492   4.906   0.692   2.253 -0.4542  0.0090  0.2276
    1MOL   C493  493   4.987   0.592   2.196  0.3576  0.4902  0.1621
    1MOL   H494  494   5.174   0.657   1.630  0.7705  3.2069 -1.1542
    1MOL   H495  495   5.333   0.695   1.604 -0.2966 -0.6300  0.5660
    1MOL   H496  496   5.388   0.446   1.694  0.4300  0.4992 -0.6985
    1MOL   H497  497   5.323   0.482   1.533  0.6019  1.9620  0.6827
    1MOL   H498  498   5.091   0.413   1.587 -0.4585 -0.4498  1.0449
    1MOL   H499  499   5.210   0.289   1.612  0.1231  0.1698  0.6823
    1MOL   H500  500   5.045   0.297   1.786  0.4987 -1.0516 -0.7248
    1MOL   H501  501   5.215   0.307   1.844  0.1572  0.1172 -0.4901
    1MOL   H502  502   4.920   0.660   1.860  0.3761 -0.1199 -0.0494
    1MOL   H503  503   4.797   0.835   1.962  0.4467  0.3124 -0.0342
    1MOL   H504  504   4.903   0.699   2.361 -1.5622  1.5333  0.1203
    1MOL   H505  505   5.052   0.532   2.258  0.7098 -0.2988 -0.9648
    1MOL   O506  506   4.790   0.910   2.365 -0.2335 -0.3204 -0.0487
    1MOL   C507  507   4.719   1.013   2.432 -0.0941 -0.3169 -0.2473
    1MOL   C508  508   4.817   1.124   2.460 -0.3000 -0.3617  0.0579
    1MOL   C509  509   4.768   1.260   2.421  0.3822 -0.0547  0.4137
    1MOL   C510  510   4.674   1.298   2.535 -0.8689  0.4578 -0.5595
    1MOL   O511  511   4.619   1.423   2.508 -0.3843  0.3512  0.1308
    1MOL   C512  512   4.502   1.454   2.556  0.7893 -0.0036  0.1286
    1MOL   O513  513   4.438   1.377   2.624  0.2191 -0.4316 -0.3837
    1MOL   C514  514   4.441   1.580   2.499 -0.8943  0.1624  0.3075
    1MOL   C515  515   4.304   1.599   2.524 -0.0372  0.1371 -0.2954
    1MOL   C516  516   4.233   1.708   2.453  0.5750 -0.2867  0.6723
    1MOL   C517  517   4.300   1.794   2.364 -0.4390 -0.6924  0.5520
    1MOL   C518  518   4.233   1.892   2.290 -0.8423  0.5012 -0.1083
    1MOL   O519  519   4.282   1.963   2.202 -0.2081 -0.3816  0.3661
    1MOL   C520  520   4.443   1.778   2.350 -0.3907  0.7277 -0.1159
    1MOL   C521  521   4.509   1.672   2.413 -0.0476 -0.5094  0.1923
    1MOL   H522  522   4.633   1.042   2.371 -1.1383  1.0164  1.8106
    1MOL   H523  523   4.667   0.983   2.523  1.0108 -2.9694 -0.4237
    1MOL   H524  524   4.902   1.102   2.395 -0.2752  1.0416 -0.3961
    1MOL   H525  525   4.841   1.112   2.566  0.3236 -0.8021 -0.1282
    1MOL   H526  526   4.847   1.335   2.421  2.2172 -1.9634 -0.1627
    1MOL   H527  527   4.718   1.261   2.324  0.7686 -0.3080  0.2154
    1MOL   H528  528   4.607   1.220   2.570 -0.5117  0.5973  0.4606
    1MOL   H529  529   4.734   1.305   2.626 -0.7609 -0.1026 -0.5864
    1MOL   H530  530   4.253   1.533   2.592 -1.5257  1.2174 -0.3420
    1MOL   H531  531   4.128   1.730   2.464  0.4301 -0.3346 -0.5474
    1MOL   H532  532   4.501   1.845   2.288  1.2222  3.1038  3.7912
    1MOL   H533  533   4.615   1.656   2.412 -0.2348 -1.9854  1.6545
    1MOL   O534  534   4.109   1.906   2.321  0.5261 -0.1326 -0.3688
    1MOL   C535  535   4.021   2.013   2.275 -0.1267  0.0899  0.6528
    1MOL   C536  536   3.879   2.002   2.344  0.2750  0.5823 -0.7919
    1MOL   C537  537   3.870   2.054   2.481  0.0366  0.0372 -0.4218
    1MOL   C538  538   3.721   2.072   2.523  0.0164 -0.0321  0.3094
    1MOL   O539  539   3.725   2.130   2.653  0.0819 -0.0890 -0.2113
    1MOL   C540  540   3.687   2.054   2.755  0.0714 -0.1664 -0.2284
    1MOL   O541  541   3.641   1.942   2.749 -0.4796 -0.3758  0.4388
    1MOL   C542  542   3.689   2.129   2.884  0.5101 -0.5306  0.1208
    1MOL   C543  543   3.668   2.053   3.003 -0.0150 -0.6346 -0.1580
    1MOL   C544  544   3.671   2.117   3.128  0.4737 -0.6175 -0.7529
    1MOL   C545  545   3.713   2.253   3.137 -0.5183  0.1974 -0.3824
    1MOL   C546  546   3.731   2.307   3.265  0.3918  0.3730 -0.9208
    1MOL   O547  547   3.800   2.405   3.285  0.2095 -0.8017  0.1886
    1MOL   C548  548   3.751   2.322   3.022 -0.4338 -0.0446 -0.1994
    1MOL   C549  549   3.738   2.264   2.893  0.7326 -0.1059 -0.2237
    1MOL   H550  550   4.061   2.113   2.292  1.8433 -0.4633 -0.5803
    1MOL   H551  551   3.995   2.011   2.169  1.3748  0.3384  0.2687
    1MOL   H552  552   3.849   1.897   2.347  1.4692  0.2445 -0.5661
    1MOL   H553  553   3.813   2.052   2.273  1.7777  0.3204 -2.3955
    1MOL   H554  554   3.929   1.997   2.552 -1.3844 -0.6052  0.2820
    1MOL   H555  555   3.919   2.151   2.476 -0.6648  0.5599  2.1650
    1MOL   H556  556   3.671   2.135   2.450  0.6135  0.0636 -0.0170
    1MOL   H557  557   3.658   1.983   2.524 -0.1925  0.0988  2.9116
    1MOL   H558  558   3.648   1.949   2.984 -0.6824 -0.5964  0.3288
    1MOL   H559  559   3.644   2.057   3.214 -0.7771  0.9996  0.0248
    1MOL   H560  560   3.783   2.424   3.033  0.2547 -0.4645  1.9246
    1MOL   H561  561   3.766   2.321   2.806  0.9157  0.2468  0.0651
    1MOL   H562  562   3.686   2.243   3.341  2.6591 -0.5439 -0.2863
    2MOL     O1  563   6.380   1.408   8.001 -0.2464  0.1594 -0.2024
    2MOL     C2  564   6.490   1.426   7.914 -1.0997  0.8766 -0.1069
    2MOL     C3  565   6.520   1.578   7.898  0.3838  0.3320  0.5809
    2MOL     C4  566   6.629   1.598   7.786  0.0798 -0.5075  0.3002
    2MOL     C5  567   6.765   1.614   7.835 -0.1148  0.9310 -0.0759
    2MOL     O6  568   6.838   1.625   7.711 -0.0682 -0.3724 -0.8056
    2MOL     C7  569   6.972   1.624   7.701 -0.6299 -0.4961  0.0437
    2MOL     O8  570   7.044   1.615   7.800 -1.0170 -0.0000  0.5825
    2MOL     C9  571   7.026   1.638   7.563  0.0626 -0.0667 -0.2438
    2MOL    C10  572   6.935   1.645   7.453  0.2340 -0.6823  0.3719
    2MOL    C11  573   6.986   1.644   7.323 -0.0914 -0.1923 -0.3166
    2MOL    C12  574   7.125   1.641   7.298 -0.5227 -0.7598  0.3387
    2MOL    C13  575   7.185   1.651   7.162  0.4693  0.2339  0.0363
    2MOL    O14  576   7.297   1.696   7.139  0.3312  0.0573 -0.5464
    2MOL    C15  577   7.219   1.655   7.402 -0.0809  1.2747 -0.1508
    2MOL    C16  578   7.164   1.652   7.534  0.6928 -0.0122  0.8614
    2MOL    H17  579   6.575   1.373   7.958 -1.6793 -0.4180 -0.5095
    2MOL    H18  580   6.467   1.395   7.812 -0.0568  2.7425 -0.9275
    2MOL    H19  581   6.546   1.633   7.988  0.1244 -0.9756  1.4785
    2MOL    H20  582   6.428   1.624   7.862  0.6293 -0.2792 -0.8700
    2MOL    H21  583   6.631   1.520   7.710  0.7724  0.0101 -0.2150
    2MOL    H22  584   6.587   1.688   7.743  1.3087  0.1282  0.4083
    2MOL    H23  585   6.786   1.699   7.900  0.2397 -0.7815  2.0983
    2MOL    H24  586   6.808   1.526   7.883 -3.2258 -0.6617 -0.1131
    2MOL    H25  587   6.830   1.630   7.475  0.1119 -0.1009  0.1878
    2MOL    H26  588   6.918   1.646   7.238 -2.2281 -0.8071  1.3415
    2MOL    H27  589   7.321   1.682   7.380 -0.1605  1.3271 -0.4628
    2MOL    H28  590   7.238   1.659   7.613  1.5845 -1.5750  0.1850
    2MOL    H29  591   6.399   1.429   8.091  1.1438 -2.1938  0.0902
    2MOL    O30  592   7.096   1.603   7.071 -0.0763  0.2873 -0.0105
    2MOL    C31  593   7.153   1.555   6.950  0.3598  0.8242 -0.1599
    2MOL    C32  594   7.199   1.663   6.848 -0.2333 -0.5253  0.5895
    2MOL    C33  595   7.101   1.784   6.836  1.0235  0.3093  0.8578
    2MOL    C34  596   7.148   1.902   6.925  0.1698 -0.4641 -0.5447
    2MOL    O35  597   7.056   2.010   6.909 -0.1565 -0.3873 -0.3470
    2MOL    C36  598   7.053   2.082   6.798  0.1127  0.5834  0.3686
    2MOL    O37  599   7.134   2.073   6.709  0.2376  0.1004 -0.1144
    2MOL    C38  600   6.923   2.162   6.791 -0.0450  0.8462 -0.4916
    2MOL    C39  601   6.826   2.187   6.898 -0.8321  0.0389  0.3738
    2MOL    C40  602   6.697   2.247   6.871 -0.3942 -0.6165  0.3681
    2MOL    C41  603   6.674   2.297   6.737 -0.1683 -1.0069 -0.3378
    2MOL    C42  604   6.544   2.355   6.692 -0.6463  0.9547  0.5430
    2MOL    O43  605   6.517   2.383   6.572 -0.3291  0.3648 -0.1468
    2MOL    C44  606   6.772   2.272   6.640  0.0213  0.8841  0.1267
    2MOL    C45  607   6.894   2.215   6.666  0.6049  0.6112  0.1993
    2MOL    H46  608   7.240   1.503   6.992  0.7929  0.0978 -1.9354
    2MOL    H47  609   7.089   1.489   6.893 -0.4846 -0.0866  1.7828
    2MOL    H48  610   7.221   1.620   6.750  3.2133  1.1330  0.5526
    2MOL    H49  611   7.294   1.706   6.880 -0.6339 -0.1168  1.2321
    2MOL    H50  612   7.099   1.816   6.732  1.5248 -1.7210  0.1968
    2MOL    H51  613   6.997   1.761   6.858 -0.0449  2.1228 -1.9064
    2MOL    H52  614   7.163   1.881   7.031  1.3865  0.5379 -0.5099
    2MOL    H53  615   7.240   1.952   6.895  0.4826 -0.1016  0.9671
    2MOL    H54  616   6.850   2.165   7.001 -0.2384  2.5461  0.7955
    2MOL    H55  617   6.625   2.270   6.948 -0.1881  0.8601  0.1278
    2MOL    H56  618   6.760   2.301   6.537  0.1400 -0.4787 -0.2771
    2MOL    H57  619   6.954   2.201   6.577 -1.9599  0.4276 -1.5424
    2MOL    O58  620   6.456   2.360   6.790  0.2609  0.0168  0.2614
    2MOL    C59  621   6.328   2.418   6.764  0.4046  0.1292 -0.4566
    2MOL    C60  622   6.238   2.436   6.885  0.5093 -0.1141 -0.2656
    2MOL    C61  623   6.294   2.521   7.002 -0.2269  0.7451 -0.2354
    2MOL    C62  624   6.205   2.507   7.126  0.3536  0.1488  0.3416
    2MOL    O63  625   6.244   2.592   7.231  0.2125 -0.2592  0.7666
    2MOL    C64  626   6.155   2.639   7.317  0.7943 -0.7370 -0.2407
    2MOL    O65  627   6.032   2.619   7.306  0.6343 -0.5483  0.0822
    2MOL    C66  628   6.202   2.720   7.425 -0.3954  0.1507 -0.4674
    2MOL    C67  629   6.106   2.797   7.506  0.5496  0.4832  0.1658
    2MOL    C68  630   6.157   2.883   7.606  0.3512  0.2050  0.1481
    2MOL    C69  631   6.297   2.901   7.638 -0.1448  0.8913  0.0082
    2MOL    C70  632   6.336   2.983   7.762 -0.2658 -0.1656  0.2605
    2MOL    O71  633   6.245   3.027   7.834  0.1277  0.7516  0.8505
    2MOL    C72  634   6.388   2.819   7.559  0.2728  0.5136  0.8903
    2MOL    C73  635   6.341   2.737   7.456  0.2537  0.4466  0.3409
    2MOL    H74  636   6.354   2.517   6.727  0.3899 -0.5373 -2.3431
    2MOL    H75  637   6.275   2.369   6.682  0.4515 -0.4734 -0.1245
    2MOL    H76  638   6.210   2.343   6.935 -0.5193  1.1131  1.4856
    2MOL    H77  639   6.148   2.474   6.838  0.0741 -0.7423  0.0564
    2MOL    H78  640   6.398   2.496   7.020  0.1177  0.6441 -2.3048
    2MOL    H79  641   6.301   2.623   6.963 -0.0884  0.3989 -1.1329
    2MOL    H80  642   6.102   2.517   7.094  0.5584 -0.6930 -0.6176
    2MOL    H81  643   6.215   2.401   7.150 -0.7312 -0.4050 -1.5727
    2MOL    H82  644   5.999   2.782   7.499  0.2243  3.0246 -0.5887
    2MOL    H83  645   6.088   2.930   7.675  0.4859 -0.2431  0.5942
    2MOL    H84  646   6.495   2.811   7.573  0.8114  0.4177 -2.7338
    2MOL    H85  647   6.409   2.680   7.393 -0.1972  0.4582 -0.1563
    2MOL    O86  648   6.462   2.977   7.802  0.1804 -0.0087 -0.1128
    2MOL    C87  649   6.504   3.012   7.931 -0.6146  0.1377  0.0142
    2MOL    C88  650   6.646   2.954   7.949 -0.3377  0.0200 -0.3179
    2MOL    C89  651   6.709   2.989   8.088 -0.8219  1.0798 -0.1029
    2MOL    C90  652   6.860   2.960   0.000 -0.5594  0.1913 -0.4339
    2MOL    O91  653   6.943   3.040   8.012  0.8480  0.1390 -0.4152
    2MOL    C92  654   7.070   3.066   8.035 -0.6763  0.3501  0.2449
    2MOL    O93  655   7.129   3.026   0.034 -0.5662 -0.5667 -0.7916
    2MOL    C94  656   7.142   3.144   7.936  0.3103 -0.2482 -0.3538
    2MOL    C95  657   7.076   3.223   7.843  0.1562  0.9784 -0.5548
    2MOL    C96  658   7.152   3.296   7.754 -0.0684 -0.2557  0.1810
    2MOL    C97  659   7.292   3.303   7.750  0.0325 -0.4201  0.1138
    2MOL    C98  660   7.364   3.387   7.657  0.0926 -0.1768 -0.5168
    2MOL    O99  661   7.312   3.486   7.603  0.0348  0.6420  0.2514
    2MOL   C100  662   7.357   3.223   7.840  0.0698 -0.7659 -0.8609
    2MOL   C101  663   7.282   3.149   7.934  0.4739 -0.3483 -0.4935
    2MOL   H102  664   6.498   3.121   7.938  3.1124  0.5004 -1.5010
    2MOL   H103  665   6.430   2.971   8.000 -1.0052  0.5154 -0.1763
    2MOL   H104  666   6.708   2.999   7.871  0.8929  1.4315  1.4175
    2MOL   H105  667   6.639   2.846   7.934  2.2939 -0.3245  0.5655
    2MOL   H106  668   6.688   3.093   0.014 -1.7934  0.9393 -0.3099
    2MOL   H107  669   6.658   2.936   0.069 -0.3614  0.4759 -0.2003
    2MOL   H108  670   6.889   2.969   0.105 -0.8515 -0.9793 -0.2501
    2MOL   H109  671   6.872   2.852   8.089  2.2376  0.3990  0.2778
    2MOL   H110  672   6.970   3.214   7.823  0.6487 -1.6321 -2.1699
    2MOL   H111  673   7.105   3.354   7.676 -0.2393 -0.7131 -0.0569
    2MOL   H112  674   7.465   3.223   7.835  0.1069 -2.6177 -0.3488
    2MOL   H113  675   7.330   3.097   8.015 -0.8427 -2.6535 -1.1543
    2MOL   O114  676   7.492   3.350   7.628 -0.3493  0.6718 -0.1248
    2MOL   C115  677   7.582   3.435   7.553  0.0122  0.5214  0.2935
    2MOL   C116  678   7.714   3.361   7.539 -0.2379 -0.3096  0.2969
    2MOL   C117  679   7.787   3.318   7.673 -0.1688  0.6464 -0.3775
    2MOL   C118  680   7.823   3.437   7.763  0.2296  0.3149  0.0308
    2MOL   O119  681   7.720   3.492   7.837  0.0929 -0.1457 -0.5859
    2MOL   C120  682   7.712   3.466   7.972 -0.3368 -0.0498  0.1878
    2MOL   O121  683   7.807   3.419   8.043  0.2081 -0.6531 -0.1201
    2MOL   C122  684   7.576   3.485   8.026  1.0455 -1.0641  0.6434
    2MOL   C123  685   7.472   3.564   7.967 -0.0480 -0.6616 -0.1163
    2MOL   C124  686   7.341   3.573   8.019  0.1033  0.3316  0.6902
    2MOL   C125  687   7.306   3.505   0.042  0.9412 -0.4587 -1.1330
    2MOL   C126  688   7.175   3.511   0.109 -0.1045 -0.1219 -0.2938
    2MOL   O127  689   7.148   3.451   0.211 -0.1494 -0.5490 -0.0063
    2MOL   C128  690   7.404   3.426   0.107  0.4286 -0.3246 -0.8206
    2MOL   C129  691   7.536   3.422   0.049  0.5754 -0.6598  0.3717
    2MOL   H130  692   7.546   3.460   7.453  0.0872 -0.5262 -0.0021
    2MOL   H131  693   7.602   3.531   7.600  0.7741  0.7006 -0.3740
    2MOL   H132  694   7.771   3.429   7.475  0.3382 -2.7231 -1.8161
    2MOL   H133  695   7.698   3.279   7.469 -1.7738  0.0006  0.2700
    2MOL   H134  696   7.712   3.260   7.727  0.3152 -0.9739 -1.4069
    2MOL   H135  697   7.870   3.257   7.639 -0.6371  0.0539 -0.4731
    2MOL   H136  698   7.902   3.397   7.826 -1.4630  0.2745  2.1727
    2MOL   H137  699   7.871   3.519   7.709  1.5739  0.9830  2.1886
    2MOL   H138  700   7.493   3.607   7.870  2.0329  3.0418  1.8451
    2MOL   H139  701   7.273   3.637   7.965 -0.0085 -1.0915 -0.8817
    2MOL   H140  702   7.399   3.389   0.208 -1.8705 -0.0036 -0.7950
    2MOL   H141  703   7.618   3.378   0.104  0.6760 -0.1200  0.6629
    2MOL   O142  704   7.089   3.583   0.041 -0.2533 -0.4420 -0.0893
    2MOL   C143  705   6.951   3.613   0.079  0.1940  1.1413 -0.0693
    2MOL   C144  706   6.855   3.496   0.055 -0.0021 -0.0306  0.0874
    2MOL   C145  707   6.706   3.516   0.099  0.4244 -0.1812  0.6949
    2MOL   C146  708   6.615   3.386   0.074  0.5581 -0.5435  0.1939
    2MOL   O147  709   6.513   3.379   0.178 -0.3747 -0.1804 -0.2217
    2MOL   C148  710   6.517   3.286   0.266 -1.2403 -0.8177  0.2846
    2MOL   O149  711   6.605   3.200   0.280 -0.0265 -1.0690  0.4476
    2MOL   C150  712   6.399   3.294   0.357 -0.3494  0.3420 -0.2506
    2MOL   C151  713   6.313   3.407   0.368 -0.1644  0.0235  0.1759
    2MOL   C152  714   6.206   3.404   0.458  0.1409 -0.3013 -0.5286
    2MOL   C153  715   6.168   3.291   0.528 -0.0171 -0.6733  0.4645
    2MOL   C154  716   6.052   3.305   0.629 -0.4404 -0.9208  0.0209
    2MOL   O155  717   5.981   3.407   0.632 -0.1523 -0.1057 -0.3803
    2MOL   C156  718   6.250   3.174   0.511  0.1826  0.0280  0.8662
    2MOL   C157  719   6.362   3.180   0.426  0.0526  0.4859  0.6139
    2MOL   H158  720   6.951   3.633   0.186 -0.5870 -0.6230  0.2704
    2MOL   H159  721   6.911   3.704   0.032  1.5743  1.5752 -0.4154
    2MOL   H160  722   6.896   3.409   0.106  3.0783  1.4848  0.3275
    2MOL   H161  723   6.862   3.490   8.045  1.1032 -1.3292  0.2202
    2MOL   H162  724   6.694   3.555   0.201 -0.2963  0.6304  0.3128
    2MOL   H163  725   6.651   3.600   0.056 -1.4622 -1.2557  0.9743
    2MOL   H164  726   6.570   3.391   8.074  0.4454  0.0267  0.2727
    2MOL   H165  727   6.683   3.301   0.086 -0.6387 -1.6387 -0.7201
    2MOL   H166  728   6.343   3.493   0.309  0.9576  0.9591  2.0531
    2MOL   H167  729   6.134   3.485   0.453 -0.9629 -1.1424  1.4062
    2MOL   H168  730   6.215   3.086   0.561  3.5968 -1.9718 -0.1291
    2MOL   H169  731   6.426   3.094   0.414  1.2329  1.3919  0.2771
    2MOL   O170  732   6.035   3.200   0.717  0.0680 -0.4749 -0.0394
    2MOL   C171  733   5.927   3.202   0.809  0.5818 -0.2787 -0.0787
    2MOL   C172  734   5.977   3.133   0.939 -0.0335  0.0686 -0.0448
    2MOL   C173  735   5.981   2.985   0.930  0.3028 -0.0080  0.4703
    2MOL   C174  736   5.850   2.918   0.947  0.2530  1.1289 -0.0225
    2MOL   O175  737   5.808   2.935   1.081  1.0058 -0.4680 -0.0994
    2MOL   C176  738   5.688   2.884   1.116  0.2822 -0.1142 -0.3774
    2MOL   O177  739   5.622   2.821   1.029 -0.1752 -1.0184 -0.8293
    2MOL   C178  740   5.656   2.902   1.256 -0.1415  0.6127 -0.0647
    2MOL   C179  741   5.533   2.840   1.301  0.2648 -0.0894  0.4443
    2MOL   C180  742   5.501   2.853   1.435  0.0946 -0.3623 -0.3157
    2MOL   C181  743   5.574   2.932   1.525 -0.1627 -0.3033 -0.3221
    2MOL   C182  744   5.530   2.938   1.666 -0.3598 -0.5332 -0.2202
    2MOL   O183  745   5.427   2.882   1.712 -0.0325  0.1861  0.6592
    2MOL   C184  746   5.690   2.998   1.478 -0.5864  0.0641  0.4573
    2MOL   C185  747   5.734   2.980   1.346  0.3384  0.2640 -0.2147
    2MOL   H186  748   5.912   3.305   0.842  1.2990  0.0888 -0.8942
    2MOL   H187  749   5.834   3.164   0.768  0.8931 -0.3065 -0.7654
    2MOL   H188  750   5.913   3.156   1.024  2.6300  3.2850  1.2246
    2MOL   H189  751   6.081   3.150   0.970  0.8919 -1.7227 -2.0051
    2MOL   H190  752   6.017   2.962   0.830  1.5329 -0.6201  1.0368
    2MOL   H191  753   6.056   2.945   0.999 -0.0422 -0.1304  0.7745
    2MOL   H192  754   5.783   2.959   0.872  1.5258  1.0188 -1.2361
    2MOL   H193  755   5.868   2.811   0.938  1.5120  1.0923  2.2887
    2MOL   H194  756   5.476   2.779   1.233 -1.3379  2.3849 -0.5378
    2MOL   H195  757   5.414   2.798   1.467 -0.1054 -0.0741 -0.3661
    2MOL   H196  758   5.752   3.061   1.540 -1.3818  0.0622  1.2752
    2MOL   H197  759   5.831   3.011   1.312 -0.7880  1.9417 -2.0013
    2MOL   O198  760   5.616   3.010   1.741  0.4564  0.2737  0.6082
    2MOL   C199  761   5.603   3.000   1.880 -0.2748 -0.5647 -0.6028
    2MOL   C200  762   5.721   3.075   1.937  0.2482 -0.2097 -0.2830
    2MOL   C201  763   5.864   3.023   1.911 -0.2236 -0.3056  0.5194
    2MOL   C202  764   5.935   3.120   1.814 -0.1407  0.3238 -0.0858
    2MOL   O203  765   6.077   3.106   1.837  0.4043 -0.3219 -0.2809
    2MOL   C204  766   6.165   3.153   1.742  0.8076 -0.4687 -0.7158
    2MOL   O205  767   6.131   3.229   1.654 -0.8553 -0.2009 -0.6956
    2MOL   C206  768   6.305   3.116   1.773  0.1422  0.0126  0.3290
    2MOL   C207  769   6.401   3.194   1.712 -0.6137  0.1825  0.2580
    2MOL   C208  770   6.536   3.177   1.743  0.2438  0.4398  0.4725
    2MOL   C209  771   6.579   3.065   1.813  0.2595  0.5255 -0.0189
    2MOL   C210  772   6.726   3.027   1.825 -0.6108  0.8741 -0.7699
    2MOL   O211  773   6.765   2.952   1.914 -0.4137 -1.0994  0.5800
    2MOL   C212  774   6.479   2.982   1.874 -0.3662  0.0004  0.1839
    2MOL   C213  775   6.341   3.002   1.849  0.1968 -1.0411  0.5770
    2MOL   H214  776   5.503   3.020   1.918  0.1034  0.8114 -0.2988
    2MOL   H215  777   5.621   2.897   1.911 -0.1142 -0.7888 -1.4268
    2MOL   H216  778   5.694   3.072   2.043  0.4752  1.9090 -0.1499
    2MOL   H217  779   5.721   3.177   1.900 -0.8626 -0.7200 -1.7121
    2MOL   H218  780   5.911   3.034   2.009 -1.3638  3.1154  0.7324
    2MOL   H219  781   5.869   2.921   1.874 -1.9416 -0.4555  0.6481
    2MOL   H220  782   5.902   3.079   1.719  0.2039  0.1732 -0.1417
    2MOL   H221  783   5.911   3.226   1.815  1.1384  0.7121 -3.5003
    2MOL   H222  784   6.391   3.285   1.655  2.1524  0.7244  0.5780
    2MOL   H223  785   6.606   3.245   1.696 -1.3825 -0.2158 -2.9990
    2MOL   H224  786   6.514   2.898   1.932 -0.5240 -3.2229 -4.2123
    2MOL   H225  787   6.267   2.935   1.891 -1.1296  0.0226 -0.0134
    2MOL   O226  788   6.802   3.085   1.730 -0.3249  0.1410 -0.1679
    2MOL   C227  789   6.934   3.056   1.704  0.4192 -0.2880  0.0418
    2MOL   C228  790   7.004   3.189   1.670  0.1745  0.5262 -0.1123
    2MOL   C229  791   7.010   3.264   1.803  0.5447  0.1943 -0.5377
    2MOL   C230  792   7.026   3.412   1.759 -0.0070 -0.3940  0.6881
    2MOL   O231  793   6.897   3.459   1.734  0.3330  0.2069 -0.0981
    2MOL   C232  794   6.886   3.590   1.726  0.4737  0.2625 -0.1097
    2MOL   O233  795   6.976   3.668   1.707 -0.1904 -0.0988  0.2483
    2MOL   C234  796   6.744   3.623   1.733  0.4692 -0.1888  0.5320
    2MOL   C235  797   6.645   3.531   1.782 -0.0486 -0.2259 -0.1848
    2MOL   C236  798   6.512   3.570   1.791 -0.0699 -0.2409  0.4821
    2MOL   C237  799   6.473   3.698   1.761 -0.9882  0.1757 -0.0448
    2MOL   C238  800   6.332   3.739   1.753  0.3964 -0.8338 -0.4129
    2MOL   O239  801   6.234   3.661   1.746 -0.0234 -0.2214  0.3755
    2MOL   C240  802   6.569   3.794   1.705 -0.4309 -0.6946  0.3224
    2MOL   C241  803   6.706   3.754   1.697 -0.2189 -0.3195 -0.8625
    2MOL   H242  804   6.985   2.998   1.780  1.2098 -0.1005 -0.3441
    2MOL   H243  805   6.941   3.001   1.610 -0.9032  1.0847 -0.8971
    2MOL   H244  806   6.937   3.233   1.597  0.8797 -1.5698 -2.0998
    2MOL   H245  807   7.099   3.161   1.625  1.2051  1.9940  1.1231
    2MOL   H246  808   6.923   3.260   1.869  1.7435  0.0542  1.0771
    2MOL   H247  809   7.095   3.227   1.861 -0.3580  0.4731  1.0102
    2MOL   H248  810   7.064   3.472   1.842 -0.1477  0.4054  0.1793
    2MOL   H249  811   7.098   3.417   1.677  0.9983  0.5672  1.5941
    2MOL   H250  812   6.669   3.431   1.816 -0.0063  0.1350  0.8655
    2MOL   H251  813   6.441   3.494   1.823 -0.3405  0.1888  0.9111
    2MOL   H252  814   6.544   3.895   1.676  0.6257 -0.2488  0.9366
    2MOL   H253  815   6.784   3.824   1.669 -1.3065  1.6225  0.8356
    2MOL   O254  816   6.311   3.876   1.770 -0.5218 -0.7003  0.9743
    2MOL   C255  817   6.192   3.932   1.711 -0.3267  0.1055 -0.3678
    2MOL   C256  818   6.185   3.938   1.556 -0.7308 -0.3229  0.1650
    2MOL   C257  819   6.093   4.052   1.497 -0.0951 -0.2004  0.0751
    2MOL   C258  820   6.079   4.077   1.343  0.8747 -0.1824 -0.1999
    2MOL   O259  821   5.982   4.171   1.302 -0.5855  0.0547 -0.1479
    2MOL   C260  822   5.962   4.184   1.167 -0.7794 -0.3867  0.8745
    2MOL   O261  823   6.028   4.122   1.081 -0.3998 -0.1280 -0.9869
    2MOL   C262  824   5.858   4.287   1.125  0.1554 -0.4234  0.3609
    2MOL   C263  825   5.801   4.379   1.214 -0.7583  0.7788  0.1196
    2MOL   C264  826   5.704   4.470   1.174  0.7679  0.2933  0.6077
    2MOL   C265  827   5.653   4.468   1.044  0.5525  0.8104  1.0485
    2MOL   C266  828   5.548   4.563   1.001 -0.5061 -0.2781  0.9024
    2MOL   O267  829   5.496   4.557   0.889 -0.2822 -0.0054  0.3076
    2MOL   C268  830   5.712   4.383   0.949 -0.4862 -0.4488 -0.0206
    2MOL   C269  831   5.805   4.286   0.990 -0.4173  0.3132 -0.6833
    2MOL   H270  832   6.113   3.871   1.756  0.5032 -0.2399  0.6517
    2MOL   H271  833   6.182   4.034   1.748 -2.2227 -0.7871  1.7477
    2MOL   H272  834   6.152   3.845   1.510  2.3782 -1.2893 -0.2346
    2MOL   H273  835   6.285   3.948   1.514 -1.2227 -0.0615 -0.9704
    2MOL   H274  836   5.993   4.032   1.535 -0.5359 -2.3861 -2.0798
    2MOL   H275  837   6.131   4.144   1.541  0.1869 -0.3706  0.1885
    2MOL   H276  838   6.178   4.090   1.301  0.3515 -1.0603 -1.7157
    2MOL   H277  839   6.043   3.980   1.310  0.0697  0.0790 -0.1030
    2MOL   H278  840   5.825   4.382   1.319 -0.5239 -0.3830  0.1021
    2MOL   H279  841   5.660   4.534   1.248 -1.2701  0.8121 -1.0056
    2MOL   H280  842   5.691   4.382   0.843 -0.6380 -0.5320  0.0111
    2MOL   H281  843   5.853   4.234   0.909 -1.9187  1.7334 -2.5383
    2MOL   O282  844   5.521   4.657   1.094  0.1485  0.1171  0.2016
    2MOL   C283  845   5.411   4.752   1.083  0.1650  1.3597  0.2972
    2MOL   C284  846   5.290   4.688   1.152 -0.3855 -0.5426 -0.2919
    2MOL   C285  847   5.313   4.672   1.298 -0.7216  0.2317 -1.0103
    2MOL   C286  848   5.203   4.587   1.365  0.0401 -0.5850  0.1042
    2MOL   O287  849   5.235   4.558   1.496  0.4556 -0.5949  0.0458
    2MOL   C288  850   5.323   4.459   1.529  0.1349  0.2049 -0.2208
    2MOL   O289  851   5.369   4.373   1.454 -0.2414 -0.5410 -0.1807
    2MOL   C290  852   5.349   4.461   1.678 -1.0599  0.2439 -1.1521
    2MOL   C291  853   5.465   4.396   1.733 -0.7247 -0.2200 -0.5766
    2MOL   C292  854   5.495   4.391   1.871 -0.0180  0.5930  0.0757
    2MOL   C293  855   5.410   4.457   1.959  0.1917  0.3876 -0.4754
    2MOL   C294  856   5.441   4.442   2.106 -0.3516 -1.1472  0.1311
    2MOL   O295  857   5.534   4.377   2.155  0.0899  0.2398 -0.7120
    2MOL   C296  858   5.298   4.524   1.907 -0.1361 -0.7807 -0.3616
    2MOL   C297  859   5.274   4.537   1.771  0.5033  0.5281  0.9235
    2MOL   H298  860   5.429   4.843   1.141  1.9239  0.5070  1.1495
    2MOL   H299  861   5.388   4.779   0.980 -1.4413 -2.2890 -0.3940
    2MOL   H300  862   5.283   4.585   1.116  0.4169 -0.3664 -0.9497
    2MOL   H301  863   5.196   4.741   1.134  0.5679  0.5641 -2.1611
    2MOL   H302  864   5.406   4.620   1.316 -2.2270 -1.0633  3.8264
    2MOL   H303  865   5.312   4.768   1.349 -0.6386  0.3118 -1.1587
    2MOL   H304  866   5.101   4.626   1.362 -0.2853 -1.5325 -1.8738
    2MOL   H305  867   5.204   4.491   1.314 -1.2094 -0.4257 -0.2343
    2MOL   H306  868   5.521   4.341   1.659 -0.7574 -0.1766 -0.6338
    2MOL   H307  869   5.570   4.328   1.917 -2.0845 -2.9456 -1.2298
    2MOL   H308  870   5.237   4.579   1.977  1.4891 -0.0326  0.5030
    2MOL   H309  871   5.192   4.596   1.734  1.8490  0.2488 -2.7079
    2MOL   O310  872   5.354   4.509   2.184  0.0921  0.1377  0.6205
    2MOL   C311  873   5.367   4.510   2.329  0.5595 -0.6132 -0.3980
    2MOL   C312  874   5.277   4.623   2.383  0.3256  0.7504  0.1748
    2MOL   C313  875   5.300   4.670   2.527  0.4632 -0.1581  0.4122
    2MOL   C314  876   5.328   4.556   2.639  0.6062 -1.0225  0.0849
    2MOL   O315  877   5.439   4.475   2.602  0.4781  0.0626 -0.9350
    2MOL   C316  878   5.505   4.399   2.700  0.4181 -0.4156 -0.1718
    2MOL   O317  879   5.453   4.389   2.815 -0.1885  0.5793  0.2480
    2MOL   C318  880   5.626   4.327   2.646  0.7642 -0.5415 -0.4632
    2MOL   C319  881   5.655   4.330   2.506 -0.1886 -0.3181 -0.2708
    2MOL   C320  882   5.773   4.268   2.459 -0.7915 -0.4857 -0.0318
    2MOL   C321  883   5.854   4.198   2.550 -0.2901 -0.6063 -0.2113
    2MOL   C322  884   5.979   4.125   2.513  0.6186  0.0532 -0.2371
    2MOL   O323  885   6.048   4.060   2.588 -0.5771  0.2263 -0.3472
    2MOL   C324  886   5.820   4.191   2.687  0.0043  0.5025  0.2583
    2MOL   C325  887   5.699   4.250   2.735 -0.3154  0.6117 -0.0557
    2MOL   H326  888   5.330   4.422   2.382  0.5055  1.4731  3.1307
    2MOL   H327  889   5.473   4.534   2.333  0.9990 -2.7906  1.8105
    2MOL   H328  890   5.172   4.596   2.372 -0.3624  2.5075  2.1183
    2MOL   H329  891   5.286   4.716   2.327  1.7570  1.6485  1.8705
    2MOL   H330  892   5.393   4.726   2.523 -0.0451  0.8014  1.7431
    2MOL   H331  893   5.227   4.743   2.561  0.3568 -0.1638  0.1974
    2MOL   H332  894   5.338   4.590   2.742  0.4883  0.0341 -0.2455
    2MOL   H333  895   5.240   4.492   2.646  0.8716 -1.2714  1.2513
    2MOL   H334  896   5.589   4.371   2.432 -1.2523  0.9835  1.3429
    2MOL   H335  897   5.800   4.272   2.355 -1.7889  1.9551 -0.2270
    2MOL   H336  898   5.885   4.137   2.754  0.5427 -0.9200 -1.3958
    2MOL   H337  899   5.677   4.249   2.841 -0.1522  1.8958 -0.0041
    2MOL   O338  900   6.003   4.137   2.379 -0.2647  0.0813 -0.0073
    2MOL   C339  901   6.100   4.064   2.313 -0.2565  0.0801 -0.0236
    2MOL   C340  902   6.040   4.034   2.173  0.2032 -0.5040 -0.3007
    2MOL   C341  903   6.136   3.979   2.071 -0.0991  0.0556 -0.5577
    2MOL   C342  904   6.171   3.827   2.095 -0.4889  0.4587  0.0035
    2MOL   O343  905   6.294   3.811   2.167 -0.0848  0.1559 -0.1077
    2MOL   C344  906   6.309   3.698   2.249 -0.4502 -0.8233 -0.1851
    2MOL   O345  907   6.224   3.608   2.260  0.2009  0.3319 -0.0719
    2MOL   C346  908   6.431   3.709   2.331  0.2024  0.4643  0.0898
    2MOL   C347  909   6.450   3.611   2.435 -0.2861 -0.0667  0.0652
    2MOL   C348  910   6.550   3.629   2.528  0.1711 -0.1272  0.0475
    2MOL   C349  911   6.641   3.735   2.515  1.0220 -0.0108 -0.9103
    2MOL   C350  912   6.746   3.753   2.626  0.2774  0.1496  0.0136
    2MOL   O351  913   6.764   3.674   2.718  0.5161 -0.3243  0.7312
    2MOL   C352  914   6.639   3.815   2.404 -0.4884 -0.1298  0.0562
    2MOL   C353  915   6.526   3.813   2.317  0.4309 -0.0015 -0.0381
    2MOL   H354  916   6.194   4.118   2.299 -0.9538  1.2804 -0.1862
    2MOL   H355  917   6.130   3.969   2.356 -2.2381 -0.7264 -0.3409
    2MOL   H356  918   6.012   4.137   2.151  0.6462 -0.1977  0.5153
    2MOL   H357  919   5.948   3.976   2.175  0.9493 -1.7956 -2.2488
    2MOL   H358  920   6.091   3.976   1.972 -1.0208  0.1989 -0.1460
    2MOL   H359  921   6.233   4.028   2.071  0.6234 -1.3473 -1.0615
    2MOL   H360  922   6.087   3.783   2.149 -0.5355  1.5333  0.8204
    2MOL   H361  923   6.187   3.788   1.995  0.6671  0.9606 -0.0192
    2MOL   H362  924   6.382   3.527   2.447 -0.8644  0.2576 -0.8503
    2MOL   H363  925   6.547   3.557   2.608 -2.8361 -2.1584 -1.7755
    2MOL   H364  926   6.712   3.893   2.391  0.0812 -0.1933  2.6034
    2MOL   H365  927   6.516   3.887   2.239 -0.5680 -2.3919 -2.2470
    2MOL   O366  928   6.810   3.868   2.613  0.0762 -0.4943  0.3042
    2MOL   C367  929   6.898   3.913   2.712  0.0840  0.0098  0.4103
    2MOL   C368  930   6.933   4.055   2.681 -0.0071  0.8962 -0.2167
    2MOL   C369  931   6.830   4.154   2.747 -0.1244 -0.1951 -0.0135
    2MOL   C370  932   6.845   4.296   2.689  0.2403  0.0142  0.0911
    2MOL   O371  933   6.780   4.382   2.776  0.0845 -0.2793 -0.8479
    2MOL   C372  934   6.704   4.481   2.723 -0.0382 -0.2490 -0.4136
    2MOL   O373  935   6.702   4.505   2.604  0.2027 -0.4953 -0.2446
    2MOL   C374  936   6.624   4.543   2.831  0.1534  0.2911 -0.0735
    2MOL   C375  937   6.588   4.673   2.806 -0.2017 -0.1378 -0.1970
    2MOL   C376  938   6.524   4.748   2.906  0.1304 -0.2704  0.1497
    2MOL   C377  939   6.481   4.683   3.029 -0.0195 -0.0418  0.3832
    2MOL   C378  940   6.409   4.765   3.126 -0.2946  0.4071 -0.1380
    2MOL   O379  941   6.424   4.750   3.248  0.2336  0.0199  0.2505
    2MOL   C380  942   6.525   4.554   3.058 -0.1247  0.2410  0.8778
    2MOL   C381  943   6.596   4.480   2.955 -0.3169 -0.1849  0.1151
    2MOL   H382  944   6.867   3.893   2.815 -2.1815  2.2570  0.2079
    2MOL   H383  945   6.984   3.854   2.682 -0.0695 -0.2732  0.5221
    2MOL   H384  946   6.922   4.050   2.573 -2.7455 -0.7032  0.0822
    2MOL   H385  947   7.032   4.093   2.706  0.2438 -0.4143  0.8411
    2MOL   H386  948   6.728   4.126   2.721  0.0242  2.6195 -4.0419
    2MOL   H387  949   6.845   4.159   2.855  1.6251 -0.4819 -0.2231
    2MOL   H388  950   6.952   4.318   2.679  0.2537 -0.3019 -0.5355
    2MOL   H389  951   6.807   4.284   2.587  0.5362 -1.2840  0.1216
    2MOL   H390  952   6.632   4.721   2.720 -1.5379  0.3214 -0.6245
    2MOL   H391  953   6.511   4.853   2.886  1.8479 -0.2405 -0.9716
    2MOL   H392  954   6.502   4.505   3.151 -1.1497  1.1236  1.0930
    2MOL   H393  955   6.631   4.381   2.983 -0.4394 -0.1647  0.3355
    2MOL   O394  956   6.334   4.868   3.070  0.4325  0.1324  0.0093
    2MOL   C395  957   6.284   4.975   3.145 -0.7862 -0.3390 -0.9764
    2MOL   C396  958   6.148   4.950   3.203 -0.0703 -0.7942  0.0649
    2MOL   C397  959   6.047   4.904   3.093  0.1208 -0.2581  0.2273
    2MOL   C398  960   6.042   5.000   2.969 -0.2257 -0.4414  0.0132
    2MOL   O399  961   6.012   5.130   3.002  0.1414 -0.0444 -0.7176
    2MOL   C400  962   5.885   5.174   3.013 -0.6049  0.0536  0.6371
    2MOL   O401  963   5.782   5.099   3.003 -0.7837 -0.2626 -0.2961
    2MOL   C402  964   5.873   5.324   3.023 -0.1212  0.2585 -0.0332
    2MOL   C403  965   5.746   5.393   3.039 -0.2501 -0.0287 -0.7686
    2MOL   C404  966   5.743   5.530   3.072 -0.0105 -0.1701 -0.0654
    2MOL   C405  967   5.862   5.610   3.075 -0.0436  0.0845  0.3787
    2MOL   C406  968   5.854   5.755   3.100  0.0934 -0.5336  0.1132
    2MOL   O407  969   5.750   5.822   3.099 -0.1527  0.0059  0.9324
    2MOL   C408  970   5.988   5.544   3.048  0.2655 -0.2360 -0.4837
    2MOL   C409  971   5.989   5.406   3.026  0.1334  0.6935  0.0139
    2MOL   H410  972   6.353   5.007   3.223 -0.8197  0.2261 -1.1735
    2MOL   H411  973   6.288   5.064   3.081 -1.0648  1.2005  1.0947
    2MOL   H412  974   6.118   5.045   3.247 -1.5620  0.4392 -3.4396
    2MOL   H413  975   6.148   4.877   3.284  0.2710  0.2885  1.0504
    2MOL   H414  976   6.082   4.804   3.067  0.4105 -0.2456  0.5551
    2MOL   H415  977   5.945   4.899   3.130 -0.7680 -0.3701 -2.1847
    2MOL   H416  978   6.139   5.016   2.921 -0.8197 -0.9269 -1.3555
    2MOL   H417  979   5.980   4.961   2.889  1.2754  0.2173 -1.5276
    2MOL   H418  980   5.656   5.338   3.017 -0.0053 -0.5772 -0.4131
    2MOL   H419  981   5.652   5.584   3.094 -0.1922 -0.4028 -0.2371
    2MOL   H420  982   6.081   5.598   3.047 -0.3299  0.7989 -0.1325
    2MOL   H421  983   6.087   5.361   3.014 -0.6689 -1.7701  2.2225
    2MOL   O422  984   5.967   5.825   3.132 -0.2358 -0.3174 -0.0684
    2MOL   C423  985   5.957   5.965   3.171  0.1276  0.0911 -0.2083
    2MOL   C424  986   6.102   6.007   3.222  0.2484  0.4608 -0.1240
    2MOL   C425  987   6.118   6.154   3.245  0.6960  0.1923  0.3931
    2MOL   C426  988   6.050   6.204   3.373  0.2030 -0.4944 -0.4402
    2MOL   O427  989   6.119   6.136   3.475 -0.0809  0.3771  0.3108
    2MOL   C428  990   6.242   6.169   3.522 -0.0638  0.4367  0.3211
    2MOL   O429  991   6.312   6.262   3.476  0.3501  0.1974  0.2553
    2MOL   C430  992   6.290   6.078   3.629 -0.1986 -0.1255 -0.2091
    2MOL   C431  993   6.428   6.083   3.665  1.2699  0.4598 -0.4611
    2MOL   C432  994   6.476   5.987   3.749  0.5109  0.0016  0.0160
    2MOL   C433  995   6.386   5.892   3.819  0.5183 -0.0175 -0.1771
    2MOL   C434  996   6.437   5.788   3.917  0.3361  0.3798  0.3201
    2MOL   O435  997   6.550   5.805   3.966 -0.1693  0.2409  0.1452
    2MOL   C436  998   6.246   5.894   3.787 -0.4087  0.0250  0.5461
    2MOL   C437  999   6.202   5.982   3.688  0.5716  0.0608  0.6942
    2MOL   H438 1000   5.919   6.022   3.086 -0.7406  1.3533  0.9934
    2MOL   H439 1001   5.889   5.982   3.255  0.2776 -0.4578  0.0294
    2MOL   H440 1002   6.172   5.971   3.146 -0.1107  0.5073 -0.4750
    2MOL   H441 1003   6.131   5.949   3.309  0.6223  1.6379  0.5416
    2MOL   H442 1004   6.223   6.185   3.244  0.0717  2.3458 -1.8503
    2MOL   H443 1005   6.070   6.211   3.165 -2.4975 -0.5035  1.7317
    2MOL   H444 1006   6.051   6.312   3.386 -0.0781 -0.3886 -1.3046
    2MOL   H445 1007   5.945   6.175   3.370 -0.1828  0.4691  2.0739
    2MOL   H446 1008   6.487   6.160   3.619  0.6737  0.4115 -1.2973
    2MOL   H447 1009   6.584   5.983   3.752  0.5854  0.7479 -1.3451
    2MOL   H448 1010   6.176   5.823   3.830 -0.7081 -1.0241 -1.6163
    2MOL   H449 1011   6.101   5.980   3.650  1.1739 -0.4494 -0.9358
    2MOL   O450 1012   6.351   5.687   3.941  0.0297 -0.5913  0.2485
    2MOL   C451 1013   6.387   5.572   4.009  0.5771 -0.3315  0.0416
    2MOL   C452 1014   6.287   5.461   4.014  0.4805  0.3434  0.0648
    2MOL   C453 1015   6.349   5.321   4.049  0.1194  0.0826 -0.2481
    2MOL   C454 1016   6.249   5.201   4.057 -0.1116 -0.3430 -0.4399
    2MOL   O455 1017   6.209   5.153   3.924  1.1944  0.2351 -0.7206
    2MOL   C456 1018   6.096   5.206   3.868  0.1881  0.0464  0.4426
    2MOL   O457 1019   6.056   5.311   3.911  0.0413 -0.5554  0.3767
    2MOL   C458 1020   6.035   5.135   3.760 -0.0355 -0.5403  0.3940
    2MOL   C459 1021   5.941   5.193   3.675 -0.4010  1.2268  0.1022
    2MOL   C460 1022   5.895   5.127   3.561  1.1847  0.0553  0.5047
    2MOL   C461 1023   5.920   4.988   3.536  0.4298  0.0952 -0.7214
    2MOL   C462 1024   5.856   4.911   3.422 -0.6687 -0.6511  0.8739
    2MOL   O463 1025   5.796   4.956   3.324 -0.5017 -0.1163  0.0518
    2MOL   C464 1026   6.003   4.923   3.635 -0.2736  0.2655 -0.0737
    2MOL   C465 1027   6.056   4.995   3.743 -0.4992 -0.0030  0.1274
    2MOL   H466 1028   6.480   5.532   3.968  0.6524  0.1715 -0.2869
    2MOL   H467 1029   6.391   5.601   4.115  1.4847 -1.0072  0.1981
    2MOL   H468 1030   6.246   5.449   3.913  0.5637 -2.9141  0.3663
    2MOL   H469 1031   6.204   5.486   4.080 -3.1664 -1.4517 -3.5730
    2MOL   H470 1032   6.434   5.302   3.985 -0.2169  1.2660 -1.0613
    2MOL   H471 1033   6.384   5.329   4.152  0.3017 -3.2032 -0.0031
    2MOL   H472 1034   6.300   5.110   4.089  2.7786  0.4126 -2.6506
    2MOL   H473 1035   6.165   5.221   4.123  0.3878  1.8708 -0.4438
    2MOL   H474 1036   5.906   5.295   3.681 -1.0436  1.2410 -3.0767
    2MOL   H475 1037   5.833   5.181   3.491  2.5116 -0.4972 -1.1230
    2MOL   H476 1038   6.039   4.823   3.619  0.3704  0.6106 -0.8538
    2MOL   H477 1039   6.112   4.943   3.819 -0.8477  1.6039  1.5131
    2MOL   O478 1040   5.872   4.775   3.431  0.5061 -0.0904 -0.1241
    2MOL   C479 1041   5.831   4.694   3.326  0.6285  0.4779  0.5604
    2MOL   C480 1042   5.930   4.564   3.317  0.1302 -0.2263 -0.6452
    2MOL   C481 1043   5.896   4.459   3.426  0.6492  0.3807 -0.8879
    2MOL   C482 1044   5.789   4.352   3.393  0.4017  0.0618  0.0329
    2MOL   O483 1045   5.835   4.285   3.277  0.6681 -0.1627 -0.2364
    2MOL   C484 1046   5.786   4.176   3.232  0.4778 -0.1009 -0.4264
    2MOL   O485 1047   5.678   4.139   3.272  0.7496  0.4820  0.3874
    2MOL   C486 1048   5.875   4.106   3.139 -0.0165  0.4663  1.3283
    2MOL   C487 1049   5.823   3.991   3.074 -0.2959  0.3385 -0.0414
    2MOL   C488 1050   5.909   3.915   2.983 -0.3382  0.0146 -1.0104
    2MOL   C489 1051   6.042   3.960   2.965  0.2055  0.1382 -0.2268
    2MOL   C490 1052   6.140   3.878   2.886  0.1004  0.6083  0.9877
    2MOL   O491 1053   6.118   3.762   2.853  0.7393 -0.1858  0.6148
    2MOL   C492 1054   6.090   4.069   3.036 -0.0147 -0.3056  0.0823
    2MOL   C493 1055   6.008   4.145   3.120  0.0021  0.2201 -0.1561
    2MOL   H494 1056   5.727   4.665   3.337  0.6467  0.7049  1.3627
    2MOL   H495 1057   5.838   4.730   3.223  1.1654 -1.6634 -0.1768
    2MOL   H496 1058   6.033   4.590   3.339 -0.0953 -0.2351  0.4296
    2MOL   H497 1059   5.923   4.520   3.218  1.1888  1.6584 -1.5940
    2MOL   H498 1060   5.990   4.405   3.439  0.3666 -0.0278 -0.5269
    2MOL   H499 1061   5.872   4.501   3.523 -0.3395 -0.6033 -0.7029
    2MOL   H500 1062   5.791   4.284   3.478 -0.6058  2.2205  1.8370
    2MOL   H501 1063   5.688   4.393   3.384  0.0526 -1.0869 -1.5614
    2MOL   H502 1064   5.719   3.963   3.071 -0.0832 -0.3941 -0.9675
    2MOL   H503 1065   5.863   3.830   2.934 -1.1768 -0.4161  0.4978
    2MOL   H504 1066   6.193   4.096   3.022 -0.0609 -0.6006 -0.8223
    2MOL   H505 1067   6.050   4.237   3.161 -1.1055  1.6011 -2.0396
    2MOL   O506 1068   6.255   3.946   2.862 -0.0373 -0.4172  0.6239
    2MOL   C507 1069   6.363   3.886   2.796  0.3234 -0.4886 -0.5223
    2MOL   C508 1070   6.455   3.807   2.888  0.0127 -0.0390  0.4691
    2MOL   C509 1071   6.531   3.879   3.003 -0.0700  0.1340 -0.3857
    2MOL   C510 1072   6.606   3.778   3.092 -0.6412 -0.4638  0.2582
    2MOL   O511 1073   6.507   3.717   3.179 -0.5174  0.0457  0.1957
    2MOL   C512 1074   6.486   3.731   3.313 -0.5825 -0.2469 -0.4567
    2MOL   O513 1075   6.557   3.810   3.380 -0.2038  0.5851  0.3145
    2MOL   C514 1076   6.392   3.633   3.371  0.1177  0.2757 -0.1505
    2MOL   C515 1077   6.304   3.569   3.286 -0.2933  0.5237 -0.3400
    2MOL   C516 1078   6.211   3.483   3.343  0.8660  0.7534 -1.0075
    2MOL   C517 1079   6.213   3.459   3.484 -0.0763  0.3866 -0.1955
    2MOL   C518 1080   6.121   3.358   3.537 -0.7291  0.2379 -0.4003
    2MOL   O519 1081   6.115   3.327   3.659 -0.9736 -0.4475  0.8400
    2MOL   C520 1082   6.305   3.527   3.572  0.1602 -0.3574  0.1983
    2MOL   C521 1083   6.396   3.608   3.514 -0.6722 -0.9466  0.1735
    2MOL   H522 1084   6.322   3.827   2.714 -1.5088  0.9094 -0.6467
    2MOL   H523 1085   6.409   3.971   2.746 -1.6383  2.4471  2.3769
    2MOL   H524 1086   6.522   3.761   2.816 -0.7581  1.0141 -0.9502
    2MOL   H525 1087   6.405   3.718   2.926 -1.4415  0.6957  0.3039
    2MOL   H526 1088   6.595   3.955   2.957  0.0767  0.1806 -0.1044
    2MOL   H527 1089   6.465   3.946   3.059 -0.0685  0.3690 -0.6592
    2MOL   H528 1090   6.642   3.705   3.020  1.0848  0.3774  0.2457
    2MOL   H529 1091   6.689   3.834   3.138 -0.5258  0.1661 -0.7091
    2MOL   H530 1092   6.297   3.582   3.179 -0.6114 -0.9505 -0.5105
    2MOL   H531 1093   6.159   3.420   3.273  3.6032 -0.7404 -1.7775
    2MOL   H532 1094   6.302   3.502   3.677  0.1886 -0.8542  0.0865
    2MOL   H533 1095   6.475   3.651   3.575 -0.1619 -1.6486  0.0087
    2MOL   O534 1096   6.049   3.305   3.439 -0.6557  0.5410 -0.0414
    2MOL   C535 1097   5.955   3.203   3.465 -0.3815 -0.3809 -0.3912
    2MOL   C536 1098   6.024   3.066   3.453 -0.1112 -0.5327  0.1511
    2MOL   C537 1099   5.931   2.964   3.382 -0.0481 -0.9019  0.1345
    2MOL   C538 1100   5.995   2.886   3.266  0.5364 -0.5960  1.1996
    2MOL   O539 1101   6.056   2.978   3.180  0.0475 -0.4823  0.1281
    2MOL   C540 1102   6.129   2.947   3.074 -0.3286  0.5630 -0.1375
    2MOL   O541 1103   6.156   2.828   3.047 -0.7812 -0.0016  0.2354
    2MOL   C542 1104   6.161   3.077   3.011 -0.3916 -0.0476  0.9585
    2MOL   C543 1105   6.113   3.204   3.050 -0.6530  0.1881  0.0329
    2MOL   C544 1106   6.163   3.321   2.991 -0.1273 -0.3289  0.4759
    2MOL   C545 1107   6.260   3.311   2.886 -0.4108 -0.5865 -0.9051
    2MOL   C546 1108   6.305   3.441   2.822  0.2650  0.0296  0.3280
    2MOL   O547 1109   6.361   3.439   2.714  0.5443 -0.6757  1.0122
    2MOL   C548 1110   6.291   3.187   2.838  0.3947  0.6958 -0.7430
    2MOL   C549 1111   6.252   3.070   2.905  0.1721  1.2161  0.2590
    2MOL   H550 1112   5.905   3.205   3.561 -1.2622 -1.3255 -0.8197
    2MOL   H551 1113   5.882   3.213   3.385  0.3241  1.4297 -0.8413
    2MOL   H552 1114   6.050   3.014   3.545  1.1997 -1.1234 -0.5456
    2MOL   H553 1115   6.111   3.084   3.389 -0.1506 -0.8317  0.0128
    2MOL   H554 1116   5.886   2.894   3.452  0.7635  0.0606  1.6428
    2MOL   H555 1117   5.846   3.020   3.344  0.5497 -0.9060 -1.2225
    2MOL   H556 1118   6.072   2.826   3.314 -1.4428 -4.1751  0.0476
    2MOL   H557 1119   5.929   2.818   3.212 -0.4426 -0.3601  2.0656
    2MOL   H558 1120   6.052   3.214   3.138  1.8097 -1.2174  1.9759
    2MOL   H559 1121   6.124   3.415   3.027  0.0049 -0.6709  1.5227
    2MOL   H560 1122   6.356   3.165   2.754 -0.7616 -0.9637 -1.2336
    2MOL   H561 1123   6.292   2.974   2.874 -1.6715  0.5332 -0.0433
    2MOL   H562 1124   6.281   3.534   2.873  2.7228  1.2381 -0.6310
    3MOL     O1 1125   1.913   7.684   7.648 -0.2385  0.2763 -0.1039
    3MOL     C2 1126   1.823   7.740   7.555 -0.5781 -0.3448  0.4270
    3MOL     C3 1127   1.733   7.848   7.616 -0.6030  0.0906  0.8114
    3MOL     C4 1128   1.650   7.818   7.745  0.1598 -1.0088 -0.2464
    3MOL     C5 1129   1.546   7.707   7.712  0.4075 -1.0179 -0.0121
    3MOL     O6 1130   1.439   7.701   7.804 -0.3052 -0.5391 -0.2917
    3MOL     C7 1131   1.343   7.607   7.797  0.7542  0.2281  1.1511
    3MOL     O8 1132   1.331   7.532   7.702 -0.2043 -0.0977 -0.2812
    3MOL     C9 1133   1.252   7.607   7.915  0.3317 -0.4505  0.9024
    3MOL    C10 1134   1.139   7.521   7.909  0.0853  0.5693  0.3128
    3MOL    C11 1135   1.064   7.499   8.032 -0.0877  0.0704  0.7379
    3MOL    C12 1136   1.096   7.571   0.048  0.1379  0.6479 -0.0602
    3MOL    C13 1137   1.005   7.553   0.166 -0.2026 -0.4203  1.3531
    3MOL    O14 1138   0.925   7.458   0.176  0.2729  0.3139 -1.0760
    3MOL    C15 1139   1.208   7.662   0.045 -0.1096  0.4136  0.1768
    3MOL    C16 1140   1.292   7.676   8.035 -0.1043  0.3711  0.0450
    3MOL    H17 1141   1.891   7.769   7.474 -2.3264 -1.0397 -1.3228
    3MOL    H18 1142   1.761   7.663   7.510  0.5111 -0.8120 -0.3037
    3MOL    H19 1143   1.661   7.880   7.541  1.6853  1.3964 -0.8913
    3MOL    H20 1144   1.788   7.942   7.613 -2.0034  0.8948 -0.4024
    3MOL    H21 1145   1.711   7.780   7.826  2.4588  0.8887 -1.0084
    3MOL    H22 1146   1.588   7.902   7.777 -1.6281 -2.9225  1.5085
    3MOL    H23 1147   1.490   7.736   7.622  2.0136 -0.1614 -0.7555
    3MOL    H24 1148   1.591   7.608   7.705  0.8093 -0.7854 -0.8143
    3MOL    H25 1149   1.103   7.470   7.821 -1.0443  1.7062  0.1120
    3MOL    H26 1150   0.987   7.423   8.032  0.2967 -0.3261  1.2724
    3MOL    H27 1151   1.231   7.724   0.130  0.0071  0.9574 -0.2514
    3MOL    H28 1152   1.375   7.746   8.039 -0.2893  0.5570  0.6582
    3MOL    H29 1153   1.998   7.678   7.607 -0.9275 -1.5908 -1.3099
    3MOL    O30 1154   1.023   7.651   0.266 -0.1770  0.5324  0.5090
    3MOL    C31 1155   0.953   7.642   0.386  0.2389 -0.1866 -0.8460
    3MOL    C32 1156   1.011   7.728   0.493 -0.1207  0.4852  0.4693
    3MOL    C33 1157   1.008   7.874   0.454  0.0135 -0.3842  0.4166
    3MOL    C34 1158   0.983   7.958   0.579  0.0880  0.6252  0.3331
    3MOL    O35 1159   1.023   8.092   0.553 -0.3769  0.0285  0.3005
    3MOL    C36 1160   0.967   0.101   0.613  0.0502 -0.6304 -0.1482
    3MOL    O37 1161   0.867   0.090   0.686 -0.1870  0.4775 -0.2382
    3MOL    C38 1162   1.043   0.226   0.581 -0.3690  0.6227  0.5955
    3MOL    C39 1163   1.001   0.353   0.630  0.2484 -0.1377 -0.6768
    3MOL    C40 1164   1.065   0.474   0.591  0.0161 -0.1760  0.2977
    3MOL    C41 1165   1.173   0.470   0.495  0.3791  0.5178  0.7958
    3MOL    C42 1166   1.247   0.593   0.447 -0.3782  0.4548 -0.2150
    3MOL    O43 1167   1.345   0.586   0.375 -0.5371  0.1617  0.3371
    3MOL    C44 1168   1.211   0.347   0.445 -0.6675 -0.2118  0.6672
    3MOL    C45 1169   1.157   0.224   0.490 -0.2649 -0.1312 -0.0760
    3MOL    H46 1170   0.852   7.683   0.381  1.0184  1.7107 -1.1396
    3MOL    H47 1171   0.938   7.539   0.420 -0.7114  0.2432  0.0722
    3MOL    H48 1172   1.106   7.695   0.534 -0.3640 -0.5446  0.2080
    3MOL    H49 1173   0.939   7.718   0.574 -0.0049 -3.0262  0.1840
    3MOL    H50 1174   1.106   7.886   0.406 -0.2233 -0.8429 -0.1987
    3MOL    H51 1175   0.926   7.908   0.391  0.3198 -0.9704 -0.3124
    3MOL    H52 1176   0.875   7.959   0.596  0.0346 -1.9936  0.2898
    3MOL    H53 1177   1.037   7.914   0.663 -2.3747  0.2167  1.7714
    3MOL    H54 1178   0.929   0.355   0.711 -1.2535 -0.8381 -1.9648
    3MOL    H55 1179   1.033   0.569   0.630 -0.5993  0.3059 -1.3268
    3MOL    H56 1180   1.294   0.335   0.377  1.2251 -1.5551  3.1414
    3MOL    H57 1181   1.198   0.131   0.453 -1.4851 -0.8320  0.3146
    3MOL    O58 1182   1.210   0.702   0.500  0.2865 -0.0150  0.0777
    3MOL    C59 1183   1.284   0.817   0.478  0.5891 -0.3881 -0.6946
    3MOL    C60 1184   1.233   0.889   0.347 -0.5142  0.0355 -0.4609
    3MOL    C61 1185   1.291   1.028   0.329  0.2155  0.2381 -1.0602
    3MOL    C62 1186   1.226   1.123   0.223 -0.2594 -1.0740  0.2026
    3MOL    O63 1187   1.245   1.089   0.084  0.1330  0.4623 -0.5901
    3MOL    C64 1188   1.159   1.023   0.027 -0.1294  0.2717 -0.5441
    3MOL    O65 1189   1.077   0.953   0.085 -0.0821 -0.1923  0.2599
    3MOL    C66 1190   1.179   1.020   7.980  0.1565 -0.5936  0.0004
    3MOL    C67 1191   1.291   1.086   7.919 -0.8217  0.1636  0.3271
    3MOL    C68 1192   1.301   1.097   7.779 -0.5670 -0.0555 -0.4067
    3MOL    C69 1193   1.203   1.039   7.695 -0.3067 -0.2425 -0.4622
    3MOL    C70 1194   1.205   1.051   7.544  0.5394  0.2085  0.0785
    3MOL    O71 1195   1.129   0.990   7.467 -0.5936  0.0538 -0.1651
    3MOL    C72 1196   1.102   0.957   7.760  0.2148 -0.0245  0.0510
    3MOL    C73 1197   1.083   0.955   7.900 -0.4262  0.3883  0.5039
    3MOL    H74 1198   1.278   0.887   0.562  1.4073  0.2189 -1.1316
    3MOL    H75 1199   1.390   0.798   0.467  0.4613 -1.7730  0.3812
    3MOL    H76 1200   1.124   0.894   0.352 -0.4682  0.6621 -0.0245
    3MOL    H77 1201   1.251   0.833   0.255 -0.3944  0.7241 -0.8568
    3MOL    H78 1202   1.271   1.084   0.420  0.9172 -0.4558 -0.4682
    3MOL    H79 1203   1.399   1.016   0.320  0.0476 -1.2607 -1.2292
    3MOL    H80 1204   1.119   1.124   0.243 -0.2924 -1.2366  0.0425
    3MOL    H81 1205   1.259   1.226   0.234  1.1579 -1.5054  0.0773
    3MOL    H82 1206   1.364   1.144   7.973 -0.6025  0.3767 -0.1994
    3MOL    H83 1207   1.380   1.163   7.746  1.5604 -1.5354  1.6230
    3MOL    H84 1208   1.033   0.899   7.700 -0.3599  1.2086 -0.5042
    3MOL    H85 1209   0.993   0.904   7.931  0.1616 -0.6903  0.4711
    3MOL    O86 1210   1.295   1.138   7.500 -0.4080  0.5438 -0.0919
    3MOL    C87 1211   1.311   1.151   7.357 -0.3545  0.0747 -0.2900
    3MOL    C88 1212   1.412   1.265   7.343  0.1805 -0.6875  0.1846
    3MOL    C89 1213   1.438   1.309   7.200  0.0539 -0.2016  0.2142
    3MOL    C90 1214   1.554   1.410   7.183  0.1842  0.1927  0.0565
    3MOL    O91 1215   1.540   1.545   7.226  0.0986 -0.6713  0.1433
    3MOL    C92 1216   1.469   1.635   7.155  0.3403  0.0935  1.3202
    3MOL    O93 1217   1.402   1.601   7.057  0.3838 -0.4212  0.0106
    3MOL    C94 1218   1.469   1.770   7.216  0.8358 -0.4853  0.3089
    3MOL    C95 1219   1.571   1.812   7.305  0.3661  0.8920  0.2237
    3MOL    C96 1220   1.558   1.940   7.361 -0.5618  0.6479  0.0843
    3MOL    C97 1221   1.443   2.018   7.338 -0.9863  0.9233 -0.5651
    3MOL    C98 1222   1.437   2.149   7.406 -0.3865 -0.1911  0.2093
    3MOL    O99 1223   1.491   2.169   7.516  0.2990 -0.0191 -0.6652
    3MOL   C100 1224   1.343   1.977   7.247  0.2727  0.1297 -0.3516
    3MOL   C101 1225   1.355   1.850   7.189 -0.0850  0.2469 -0.0660
    3MOL   H102 1226   1.364   1.063   7.320 -1.7743  0.5512 -3.7137
    3MOL   H103 1227   1.214   1.179   7.315  0.0981  2.7047  0.3151
    3MOL   H104 1228   1.502   1.228   7.391  0.7817  0.2655 -0.1768
    3MOL   H105 1229   1.380   1.355   7.396  0.1043 -0.9979  0.6685
    3MOL   H106 1230   1.472   1.230   7.132  1.0594  0.5008 -0.1205
    3MOL   H107 1231   1.350   1.355   7.155  0.1257  0.0704  0.3562
    3MOL   H108 1232   1.650   1.368   7.215  0.8726  1.8816  0.2354
    3MOL   H109 1233   1.574   1.414   7.076  0.0019  3.1265  0.0953
    3MOL   H110 1234   1.658   1.754   7.334 -1.5171 -0.8209  2.6147
    3MOL   H111 1235   1.639   1.959   7.429  0.0692  1.9625 -0.9979
    3MOL   H112 1236   1.255   2.039   7.239 -0.4070 -0.8380 -0.3665
    3MOL   H113 1237   1.276   1.828   7.118  0.5008 -1.9336 -0.0827
    3MOL   O114 1238   1.361   2.239   7.339 -0.8593  0.4491  0.8989
    3MOL   C115 1239   1.344   2.377   7.386  0.0103  0.5226  0.0823
    3MOL   C116 1240   1.198   2.385   7.421 -0.6174 -0.1738  0.6224
    3MOL   C117 1241   1.161   2.523   7.491 -0.5229 -0.6749 -1.1974
    3MOL   C118 1242   1.211   2.547   7.634 -0.5843 -0.2871 -0.6838
    3MOL   O119 1243   1.169   2.423   7.701  0.1468 -0.8346  0.2147
    3MOL   C120 1244   1.055   2.415   7.773  0.3444 -0.0110  0.4071
    3MOL   O121 1245   0.979   2.507   7.775  0.5058 -0.4357 -0.2465
    3MOL   C122 1246   1.023   2.284   7.828 -1.0071 -0.7215 -0.1124
    3MOL   C123 1247   0.914   2.271   7.912  0.0429  0.3083  0.1055
    3MOL   C124 1248   0.876   2.144   7.961  0.6367  0.4634 -0.2879
    3MOL   C125 1249   0.956   2.028   7.935 -0.0473 -0.1417 -0.4676
    3MOL   C126 1250   0.915   1.894   7.986  0.3275  0.0817  0.5196
    3MOL   O127 1251   0.819   1.883   8.064  0.1432 -0.1048 -0.2291
    3MOL   C128 1252   1.075   2.044   7.857 -1.1458 -0.2119  0.2260
    3MOL   C129 1253   1.103   2.167   7.799 -0.2208 -0.4570  0.8762
    3MOL   H130 1254   1.410   2.398   7.470  1.8305  0.4453 -1.2713
    3MOL   H131 1255   1.371   2.444   7.304 -1.6822  0.1287 -0.8098
    3MOL   H132 1256   1.162   2.303   7.484  1.2765 -0.7378  1.0048
    3MOL   H133 1257   1.142   2.378   7.328  1.1734 -1.2543 -0.3856
    3MOL   H134 1258   1.196   2.603   7.426 -0.7995 -2.9371 -4.2605
    3MOL   H135 1259   1.053   2.538   7.495 -0.3902  0.2000 -0.8146
    3MOL   H136 1260   1.320   2.558   7.630 -0.5815 -0.1448 -0.2407
    3MOL   H137 1261   1.164   2.632   7.683 -0.9305 -1.2125  0.6151
    3MOL   H138 1262   0.853   2.360   7.921  0.4858  0.8192 -1.5643
    3MOL   H139 1263   0.787   2.145   8.021  0.0785  2.0834 -1.1068
    3MOL   H140 1264   1.132   1.955   7.836 -0.4917  0.1506  0.4445
    3MOL   H141 1265   1.187   2.187   7.735 -1.5448  0.3026 -0.6820
    3MOL   O142 1266   0.997   1.787   7.964 -0.4095 -0.7283  0.0173
    3MOL   C143 1267   0.989   1.661   8.031 -0.2525 -0.3668  0.1297
    3MOL   C144 1268   1.097   1.571   7.978  0.0009 -0.5162 -0.7634
    3MOL   C145 1269   1.238   1.628   7.977 -0.0851 -0.3863 -0.2079
    3MOL   C146 1270   1.299   1.673   0.006  0.1360  0.3874 -0.1943
    3MOL   O147 1271   1.245   1.794   0.044  0.1951  0.0318  0.4535
    3MOL   C148 1272   1.218   1.824   0.174  0.8491  0.3252  0.1681
    3MOL   O149 1273   1.245   1.743   0.265  0.8604 -0.2281 -0.4660
    3MOL   C150 1274   1.161   1.963   0.191 -0.9730  0.7116 -0.2233
    3MOL   C151 1275   1.077   1.998   0.300 -0.9602  0.1379 -0.3465
    3MOL   C152 1276   1.003   2.113   0.298 -0.1717 -0.2023 -0.2332
    3MOL   C153 1277   1.032   2.212   0.208  0.6373  0.0354 -0.1176
    3MOL   C154 1278   0.965   2.347   0.217 -0.5075 -0.3207 -0.9084
    3MOL   O155 1279   0.865   2.376   0.289  0.3529  0.0103 -0.3916
    3MOL   C156 1280   1.118   2.183   0.104 -0.2375  0.2434 -0.8188
    3MOL   C157 1281   1.183   2.055   0.092 -0.7987  0.5839 -0.0501
    3MOL   H158 1282   1.009   1.669   0.040 -0.5789  0.0758  0.1580
    3MOL   H159 1283   0.894   1.617   8.001 -0.2433  1.5639 -2.8954
    3MOL   H160 1284   1.072   1.544   7.875 -1.0378 -0.3005 -0.5720
    3MOL   H161 1285   1.080   1.474   8.023  1.6384 -0.2993  0.3561
    3MOL   H162 1286   1.300   1.548   7.937  0.7329  0.9193 -1.5960
    3MOL   H163 1287   1.244   1.705   7.901 -1.3804 -0.4005 -0.3443
    3MOL   H164 1288   1.281   1.596   0.081  0.0955 -0.1721 -0.7723
    3MOL   H165 1289   1.408   1.674   0.001  0.1317 -1.3959 -1.1330
    3MOL   H166 1290   1.059   1.916   0.369 -0.0889  0.5022  0.3302
    3MOL   H167 1291   0.923   2.135   0.368  0.0919 -0.6903  0.2211
    3MOL   H168 1292   1.140   2.262   0.034 -1.2330  1.3846  0.1384
    3MOL   H169 1293   1.242   2.031   0.005  0.7422 -1.5203  1.5276
    3MOL   O170 1294   1.037   2.441   0.155  0.0888 -0.0166  0.2251
    3MOL   C171 1295   1.000   2.576   0.141  0.2827  0.8015 -0.2500
    3MOL   C172 1296   1.136   2.647   0.148  0.5103  0.6433 -0.0021
    3MOL   C173 1297   1.234   2.617   0.029 -0.1701 -0.2809 -0.0837
    3MOL   C174 1298   1.370   2.684   0.029 -0.1383 -0.0416  0.7388
    3MOL   O175 1299   1.443   2.662   8.003  0.5903 -0.2441  0.0282
    3MOL   C176 1300   1.512   2.554   7.979 -0.5764  0.1349  0.0547
    3MOL   O177 1301   1.537   2.475   8.072 -0.0786 -0.8163 -0.0086
    3MOL   C178 1302   1.556   2.545   7.832 -0.2259 -0.1014  0.0761
    3MOL   C179 1303   1.610   2.429   7.780  0.2679  0.0209  0.0168
    3MOL   C180 1304   1.649   2.411   7.649 -0.0396 -0.6773  0.1818
    3MOL   C181 1305   1.626   2.521   7.556 -0.0958 -0.4210  0.3473
    3MOL   C182 1306   1.668   2.505   7.409  0.3620 -0.1167  0.1730
    3MOL   O183 1307   1.724   2.410   7.359  0.3962  0.0814 -0.2123
    3MOL   C184 1308   1.576   2.645   7.608  0.1979 -0.1913 -0.3791
    3MOL   C185 1309   1.551   2.656   7.747  0.7260  0.1589 -0.0607
    3MOL   H186 1310   0.942   2.601   0.052  1.2093  2.4755 -0.4191
    3MOL   H187 1311   0.937   2.611   0.222 -0.0695 -1.9919  0.7316
    3MOL   H188 1312   1.190   2.617   0.238  0.0526 -1.1887 -0.3317
    3MOL   H189 1313   1.113   2.753   0.140  1.5796  0.8535 -0.4017
    3MOL   H190 1314   1.254   2.510   0.017  0.2238  0.0619 -2.8335
    3MOL   H191 1315   1.186   2.638   8.032 -0.4857 -0.3305  0.0631
    3MOL   H192 1316   1.359   2.789   0.056  0.3733 -0.5499  3.0109
    3MOL   H193 1317   1.434   2.650   0.110  0.1310  2.5676  1.6713
    3MOL   H194 1318   1.635   2.353   7.853  2.4730  1.3981  0.7276
    3MOL   H195 1319   1.692   2.319   7.614 -0.6423 -0.7799 -0.2885
    3MOL   H196 1320   1.548   2.719   7.534  0.7017 -0.1179 -0.4987
    3MOL   H197 1321   1.501   2.744   7.786  0.3730  0.1680 -0.5268
    3MOL   O198 1322   1.623   2.607   7.332 -0.3656  0.3005 -0.2476
    3MOL   C199 1323   1.648   2.620   7.194  0.6437 -0.6158 -0.1135
    3MOL   C200 1324   1.522   2.570   7.114  0.0384  0.2077 -0.3686
    3MOL   C201 1325   1.526   2.583   6.961  0.2497 -0.3164  0.4005
    3MOL   C202 1326   1.390   2.563   6.897 -0.4688  0.3863 -0.1504
    3MOL   O203 1327   1.345   2.433   6.905  0.1226 -0.2375 -0.0742
    3MOL   C204 1328   1.251   2.393   6.987  0.2110  0.4857  0.6471
    3MOL   O205 1329   1.201   2.461   7.073 -0.1412  0.5117  0.3543
    3MOL   C206 1330   1.201   2.252   6.955  0.0566  0.3404 -0.2011
    3MOL   C207 1331   1.264   2.167   6.860 -0.4328  0.8454 -0.1246
    3MOL   C208 1332   1.214   2.042   6.836 -0.8288  0.6728 -0.0929
    3MOL   C209 1333   1.107   1.988   6.910  0.1122 -0.4859 -0.1588
    3MOL   C210 1334   1.078   1.842   6.903 -0.3585 -0.2492  0.1991
    3MOL   O211 1335   1.141   1.765   6.831 -0.2270  0.2153  0.2881
    3MOL   C212 1336   1.045   2.068   7.008  0.0089 -0.6866 -0.3586
    3MOL   C213 1337   1.092   2.202   7.029  0.6487  0.5454 -0.0529
    3MOL   H214 1338   1.658   2.724   7.166  2.9935 -0.1313  2.3169
    3MOL   H215 1339   1.740   2.568   7.167 -0.1999 -2.7493  0.9219
    3MOL   H216 1340   1.433   2.626   7.142  1.1262  2.3333 -1.1001
    3MOL   H217 1341   1.488   2.467   7.128  0.6511 -0.4206 -3.2364
    3MOL   H218 1342   1.563   2.680   6.929  0.0855  0.0234  1.2194
    3MOL   H219 1343   1.597   2.517   6.912  0.8784  0.2068  0.5930
    3MOL   H220 1344   1.320   2.639   6.930 -0.6655 -0.1588  0.7097
    3MOL   H221 1345   1.410   2.583   6.791  1.4181 -3.2878 -0.5728
    3MOL   H222 1346   1.339   2.213   6.798 -2.0074  0.3212 -2.4963
    3MOL   H223 1347   1.255   1.971   6.765 -2.1174 -0.8606  0.6503
    3MOL   H224 1348   0.966   2.033   7.073  1.6411 -1.3819  1.3030
    3MOL   H225 1349   1.045   2.258   7.109 -1.7164 -0.8731 -0.3732
    3MOL   O226 1350   0.964   1.812   6.964 -0.1381  0.0153  0.4119
    3MOL   C227 1351   0.925   1.671   6.996  0.8814 -1.1778 -0.5178
    3MOL   C228 1352   0.904   1.586   6.869  0.5010 -0.0666  0.1832
    3MOL   C229 1353   0.809   1.656   6.767  0.3871  0.2081  0.1528
    3MOL   C230 1354   0.704   1.567   6.701 -0.1600  0.3815 -0.3111
    3MOL   O231 1355   0.769   1.465   6.627  0.1139  0.0757 -0.2755
    3MOL   C232 1356   0.763   1.345   6.671 -0.3671 -0.3632 -0.1915
    3MOL   O233 1357   0.703   1.313   6.772 -0.0212  0.6561 -0.5096
    3MOL   C234 1358   0.843   1.245   6.585  0.8400  0.2494 -0.7340
    3MOL   C235 1359   0.939   1.280   6.481 -0.2682  0.6542  0.0846
    3MOL   C236 1360   1.014   1.182   6.412  0.1939  0.2477  0.4753
    3MOL   C237 1361   0.980   1.046   6.430  0.2515  0.4588 -0.0588
    3MOL   C238 1362   1.038   0.945   6.345 -0.5552 -0.3760 -0.1545
    3MOL   O239 1363   0.991   0.832   6.337  0.3841 -0.4600  0.0817
    3MOL   C240 1364   0.884   1.010   6.527 -0.0592  0.8933  0.2256
    3MOL   C241 1365   0.819   1.108   6.606 -0.2933 -0.2915 -0.4273
    3MOL   H242 1366   1.007   1.629   7.055 -0.5678 -1.3032  1.4577
    3MOL   H243 1367   0.831   1.659   7.050  1.1310  0.4641  0.3285
    3MOL   H244 1368   0.882   1.481   6.891  0.7519  0.1559  1.5785
    3MOL   H245 1369   1.000   1.564   6.822  1.0165 -0.0960  1.2343
    3MOL   H246 1370   0.757   1.735   6.822 -3.1657 -1.9346  0.0050
    3MOL   H247 1371   0.879   1.700   6.696 -0.9380  2.0912 -0.0252
    3MOL   H248 1372   0.638   1.529   6.779 -0.5909 -0.3285 -1.0077
    3MOL   H249 1373   0.638   1.625   6.637 -2.3519 -0.7941  0.8328
    3MOL   H250 1374   0.971   1.383   6.469  1.1499 -0.1570 -3.4851
    3MOL   H251 1375   1.087   1.216   6.340 -0.5088 -1.3592 -1.0325
    3MOL   H252 1376   0.853   0.906   6.527  0.5142  0.7089 -1.1822
    3MOL   H253 1377   0.740   1.074   6.672  0.7766 -2.3186 -0.1444
    3MOL   O254 1378   1.146   0.991   6.270 -0.4266 -0.2871  0.2481
    3MOL   C255 1379   1.200   0.905   6.170 -0.0399 -0.0886 -0.0334
    3MOL   C256 1380   1.340   0.959   6.148 -0.1757 -0.0223  0.0102
    3MOL   C257 1381   1.431   0.863   6.072  0.4846 -0.0068  0.1147
    3MOL   C258 1382   1.385   0.835   5.932  0.8523  0.1288  0.4783
    3MOL   O259 1383   1.253   0.774   5.938  0.0654 -0.0507  0.6017
    3MOL   C260 1384   1.225   0.687   5.848 -0.0604 -0.5984  0.6208
    3MOL   O261 1385   1.300   0.677   5.750 -0.0303  0.3059 -0.0283
    3MOL   C262 1386   1.090   0.631   5.860  0.0313  0.1296 -0.2102
    3MOL   C263 1387   0.985   0.684   5.943 -0.4404 -0.0964  1.2761
    3MOL   C264 1388   0.862   0.614   5.959  0.3367  1.1180 -0.1340
    3MOL   C265 1389   0.840   0.488   5.891  0.0803  0.0561  0.5367
    3MOL   C266 1390   0.721   0.404   5.911 -0.7767 -0.0761  0.3065
    3MOL   O267 1391   0.705   0.291   5.870  0.2601 -0.2670  0.4259
    3MOL   C268 1392   0.938   0.441   5.807  0.0229  0.2477  0.1811
    3MOL   C269 1393   1.065   0.508   5.800 -0.0981  0.3344  0.3415
    3MOL   H270 1394   1.191   0.803   6.206 -1.4767  0.6890  1.9308
    3MOL   H271 1395   1.139   0.913   6.080  1.2148  0.4423 -0.8566
    3MOL   H272 1396   1.382   0.970   6.248 -1.8892 -1.3728  0.8902
    3MOL   H273 1397   1.337   1.051   6.088 -2.3965 -0.4659 -0.6047
    3MOL   H274 1398   1.530   0.909   6.066  0.5632 -0.3888 -1.6364
    3MOL   H275 1399   1.442   0.765   6.119 -0.4786 -0.4488 -0.5736
    3MOL   H276 1400   1.393   0.920   5.864  0.8591 -0.1316  0.1494
    3MOL   H277 1401   1.458   0.765   5.891  1.0812  0.4384  0.3543
    3MOL   H278 1402   1.005   0.778   5.992  0.8864 -0.1238  0.7912
    3MOL   H279 1403   0.797   0.657   6.034  0.7609 -1.6861  1.9489
    3MOL   H280 1404   0.934   0.351   5.747  0.5134  0.6620 -0.4818
    3MOL   H281 1405   1.145   0.471   5.738 -0.0677  0.1905  0.4661
    3MOL   O282 1406   0.637   0.482   5.979  0.2511 -0.3751 -0.0904
    3MOL   C283 1407   0.510   0.436   6.009  0.6196 -0.0552  0.0481
    3MOL   C284 1408   0.506   0.320   6.118 -0.5178 -0.5784  0.3543
    3MOL   C285 1409   0.372   0.308   6.201  0.0384 -0.4716  0.4022
    3MOL   C286 1410   0.365   0.177   6.279 -0.5515 -0.0087 -0.3693
    3MOL   O287 1411   0.357   0.070   6.173 -0.0148  0.7316 -0.1893
    3MOL   C288 1412   0.234   0.017   6.147 -0.0072  1.0544  0.0635
    3MOL   O289 1413   0.133   0.053   6.210  0.2819 -0.3090  0.0407
    3MOL   C290 1414   0.231   8.016   6.034  0.0642  0.1731 -0.4110
    3MOL   C291 1415   0.102   7.976   5.999  0.6517 -1.0801 -0.0065
    3MOL   C292 1416   0.079   7.872   5.912 -0.1646  0.3115 -0.2583
    3MOL   C293 1417   0.188   7.818   5.839  0.2950 -0.1471 -0.6838
    3MOL   C294 1418   0.171   7.713   5.740 -0.4835 -0.4104 -0.4271
    3MOL   O295 1419   0.267   7.682   5.667  0.2179 -0.4805  0.4666
    3MOL   C296 1420   0.317   7.864   5.872 -0.3617 -0.2384  0.0408
    3MOL   C297 1421   0.338   7.963   5.964 -0.4872 -0.5047 -0.2211
    3MOL   H298 1422   0.455   0.516   6.059  0.6135 -0.6801  1.0543
    3MOL   H299 1423   0.456   0.406   5.920 -0.2787  0.1283  0.5245
    3MOL   H300 1424   0.596   0.323   6.180  0.0245 -2.4091 -0.3230
    3MOL   H301 1425   0.510   0.235   6.049 -0.0608  0.2857 -0.7085
    3MOL   H302 1426   0.365   0.399   6.261 -0.3948 -0.6866  0.6846
    3MOL   H303 1427   0.288   0.304   6.131  0.8273 -0.6159 -0.5462
    3MOL   H304 1428   0.455   0.182   6.340 -1.4094 -1.2091  1.0174
    3MOL   H305 1429   0.279   0.169   6.346 -1.2351  1.3706 -1.0678
    3MOL   H306 1430   0.009   8.017   6.036  0.0343  0.1967 -2.8804
    3MOL   H307 1431   8.079   7.830   5.904 -0.4105  1.0591 -1.1211
    3MOL   H308 1432   0.401   7.821   5.820 -0.3126 -0.9059  0.6643
    3MOL   H309 1433   0.438   7.999   5.984 -0.8493 -0.0685  0.8277
    3MOL   O310 1434   0.043   7.661   5.733 -0.3520  0.0394 -0.5331
    3MOL   C311 1435   0.008   7.573   5.630  0.1200  0.2422  0.1105
    3MOL   C312 1436   7.957   7.529   5.628 -0.0383 -0.2488 -1.2519
    3MOL   C313 1437   7.922   7.437   5.746  0.0768  0.2944 -0.4125
    3MOL   C314 1438   8.032   7.336   5.786  0.5324  0.0493  0.4866
    3MOL   O315 1439   0.047   7.386   5.852  0.3226  0.1002  0.1001
    3MOL   C316 1440   0.134   7.304   5.909  0.5832 -0.1055  0.2222
    3MOL   O317 1441   0.128   7.183   5.907 -0.4889 -0.2266  0.1329
    3MOL   C318 1442   0.233   7.385   5.990 -0.0198 -0.4284  0.2007
    3MOL   C319 1443   0.208   7.519   6.023 -0.4586 -0.1434 -0.1004
    3MOL   C320 1444   0.300   7.595   6.089 -0.1072 -0.2621  0.9325
    3MOL   C321 1445   0.426   7.549   6.117 -0.8173  0.3601 -0.5164
    3MOL   C322 1446   0.526   7.634   6.189  0.2793 -0.3905 -0.2806
    3MOL   O323 1447   0.500   7.753   6.219 -0.5853 -0.0513  0.2046
    3MOL   C324 1448   0.457   7.412   6.087  0.1756  0.1262 -0.2401
    3MOL   C325 1449   0.360   7.331   6.028  0.0730  0.1461  0.0433
    3MOL   H326 1450   0.026   7.623   5.534 -1.5336  1.1224  0.2378
    3MOL   H327 1451   0.063   7.480   5.638  0.3663  0.4384  0.7381
    3MOL   H328 1452   7.943   7.474   5.535  0.6706 -2.3103 -0.1817
    3MOL   H329 1453   7.887   7.611   5.640  0.3841  0.1179 -1.2763
    3MOL   H330 1454   7.897   7.500   5.831 -0.5060  0.0654 -0.4088
    3MOL   H331 1455   7.827   7.386   5.732  0.0279  0.6392 -1.3306
    3MOL   H332 1456   7.990   7.263   5.855  1.6872 -2.7127 -1.6482
    3MOL   H333 1457   8.057   7.275   5.700  0.4936  1.2823 -0.4168
    3MOL   H334 1458   0.113   7.558   5.990 -0.0897  0.4014 -0.5102
    3MOL   H335 1459   0.277   7.699   6.105 -0.2357 -0.1714  0.2012
    3MOL   H336 1460   0.559   7.378   6.097  0.9060  2.4844  0.9041
    3MOL   H337 1461   0.374   7.224   6.024  2.3981  0.3875  1.2334
    3MOL   O338 1462   0.649   7.575   6.220  0.3857 -0.2817 -0.2724
    3MOL   C339 1463   0.741   7.644   6.297 -0.9700 -0.6281 -0.5520
    3MOL   C340 1464   0.861   7.709   6.208 -0.4540  0.1855  0.3837
    3MOL   C341 1465   1.005   7.638   6.211 -0.4990  0.4373  0.2658
    3MOL   C342 1466   1.128   7.730   6.187  0.8918 -0.7409 -0.3572
    3MOL   O343 1467   1.128   7.831   6.292 -0.2176  0.8898 -0.1542
    3MOL   C344 1468   1.199   7.939   6.273  0.0192  0.2525 -0.0907
    3MOL   O345 1469   1.258   7.967   6.166  0.3970 -0.0308  0.2356
    3MOL   C346 1470   1.204   8.025   6.394  0.1780 -0.7088 -0.0895
    3MOL   C347 1471   1.164   7.976   6.525 -0.0257 -0.7550  0.5206
    3MOL   C348 1472   1.147   8.070   6.630 -0.3570  0.3943 -0.2450
    3MOL   C349 1473   1.180   0.107   6.618  0.3146 -0.4291  0.1531
    3MOL   C350 1474   1.146   0.194   6.737 -0.5901  0.4035 -0.0463
    3MOL   O351 1475   1.127   0.152   6.850 -0.7070  0.1516 -0.3027
    3MOL   C352 1476   1.231   0.154   6.492  0.2298  0.1817  0.0155
    3MOL   C353 1477   1.255   0.061   6.385 -0.1098 -0.3621  0.0164
    3MOL   H354 1478   0.691   7.723   6.353 -1.4490  0.1429 -2.0156
    3MOL   H355 1479   0.772   7.565   6.365  1.8128  2.6799  2.2106
    3MOL   H356 1480   0.878   7.813   6.238  0.3618 -0.0221  0.6601
    3MOL   H357 1481   0.824   7.721   6.106 -1.7071 -1.5542  0.6183
    3MOL   H358 1482   1.019   7.595   6.311  0.5645  0.3924  0.1069
    3MOL   H359 1483   1.014   7.554   6.142 -0.6401  1.1024 -0.5701
    3MOL   H360 1484   1.214   7.663   6.190  1.1008 -0.4904 -0.8341
    3MOL   H361 1485   1.126   7.775   6.088  1.4242  2.9756  1.2537
    3MOL   H362 1486   1.153   7.870   6.540  2.2759 -0.9976  0.7156
    3MOL   H363 1487   1.116   8.036   6.728  2.9875 -1.0761  0.3605
    3MOL   H364 1488   1.246   0.260   6.479  0.6684  0.4041  2.2024
    3MOL   H365 1489   1.271   0.106   6.288  0.4551  2.2213  1.2768
    3MOL   O366 1490   1.143   0.316   6.697 -0.1329 -0.4590  0.2220
    3MOL   C367 1491   1.087   0.425   6.771 -0.2951  0.0363  0.2903
    3MOL   C368 1492   1.022   0.517   6.666  0.2998 -0.1070 -0.1178
    3MOL   C369 1493   0.896   0.449   6.602 -0.0963 -0.1767  0.2328
    3MOL   C370 1494   0.843   0.541   6.495 -0.5736 -0.1257  0.0229
    3MOL   O371 1495   0.947   0.539   6.387  0.5425  0.2013  0.3513
    3MOL   C372 1496   0.942   0.445   6.298 -0.4488 -0.6016 -0.0019
    3MOL   O373 1497   0.848   0.366   6.284 -0.7266  0.0473  0.2474
    3MOL   C374 1498   1.075   0.431   6.229  1.0419  0.6749  0.2473
    3MOL   C375 1499   1.179   0.520   6.254 -0.2896 -0.3065 -0.3006
    3MOL   C376 1500   1.292   0.505   6.174  0.8999  0.7221  0.0881
    3MOL   C377 1501   1.301   0.411   6.072 -0.0648 -0.8149 -0.9750
    3MOL   C378 1502   1.424   0.393   5.996  0.5248 -0.1474 -0.0615
    3MOL   O379 1503   1.446   0.294   5.928 -0.2274 -0.2480  0.6080
    3MOL   C380 1504   1.191   0.327   6.045 -0.4724  0.5689 -0.8145
    3MOL   C381 1505   1.074   0.335   6.125 -0.7542  0.1176 -0.5326
    3MOL   H382 1506   1.018   0.387   6.846 -1.5994  1.8100  0.0245
    3MOL   H383 1507   1.168   0.471   6.828  0.0257 -1.1017  0.7684
    3MOL   H384 1508   1.095   0.537   6.587  0.2990 -1.2707 -0.4188
    3MOL   H385 1509   1.006   0.618   6.705  0.2319 -0.2729  0.2832
    3MOL   H386 1510   0.931   0.358   6.554 -1.3722 -0.2960 -0.5212
    3MOL   H387 1511   0.824   0.412   6.676 -0.0582  0.0342  0.3743
    3MOL   H388 1512   0.750   0.514   6.445 -0.1186  0.9019 -1.4141
    3MOL   H389 1513   0.828   0.644   6.524  3.0109 -0.3438  2.9781
    3MOL   H390 1514   1.183   0.606   6.319  2.6437 -0.5589 -0.0611
    3MOL   H391 1515   1.381   0.564   6.194 -0.1713  3.4387 -2.8034
    3MOL   H392 1516   1.198   0.253   5.967 -1.7336 -2.1746  1.6009
    3MOL   H393 1517   0.993   0.266   6.106 -0.4367  0.5119 -3.5513
    3MOL   O394 1518   1.513   0.497   6.000  0.2647 -0.1170 -0.1109
    3MOL   C395 1519   1.626   0.506   5.910 -0.3110  0.6746  0.4688
    3MOL   C396 1520   1.741   0.433   5.961 -0.5438  0.6451  0.1879
    3MOL   C397 1521   1.823   0.368   5.853  0.4029 -0.1191 -0.1907
    3MOL   C398 1522   1.945   0.298   5.892 -0.0463 -0.1704  1.0833
    3MOL   O399 1523   1.991   0.229   5.774  0.1294  0.3661  0.0055
    3MOL   C400 1524   2.086   0.135   5.782 -0.3341  0.6222  0.5549
    3MOL   O401 1525   2.135   0.097   5.888  0.3031 -0.1343 -0.0571
    3MOL   C402 1526   2.133   0.083   5.650 -0.8415 -0.2704  0.7046
    3MOL   C403 1527   2.232   8.079   5.636 -0.4350 -0.0895 -0.2521
    3MOL   C404 1528   2.287   8.036   5.512 -0.7686 -0.0340  0.7390
    3MOL   C405 1529   2.231   8.084   5.395 -0.8484  0.0278 -0.3645
    3MOL   C406 1530   2.279   8.050   5.258 -0.0012  0.9402  1.0674
    3MOL   O407 1531   2.208   8.073   5.160  0.8178  0.7784  0.1084
    3MOL   C408 1532   2.130   0.091   5.401  0.8585  0.9018  0.4667
    3MOL   C409 1533   2.080   0.131   5.524 -0.3510  0.2521 -0.4842
    3MOL   H410 1534   1.592   0.470   5.813 -1.5794  1.0415  0.7704
    3MOL   H411 1535   1.637   0.611   5.882 -0.9812  1.0644  1.6203
    3MOL   H412 1536   1.707   0.347   6.020  0.2004  0.4985  0.4061
    3MOL   H413 1537   1.800   0.492   6.031 -0.3702  0.6210  0.0592
    3MOL   H414 1538   1.763   0.301   5.791  1.5947 -0.5953 -0.8493
    3MOL   H415 1539   1.850   0.446   5.782  1.1091  0.4452  0.6926
    3MOL   H416 1540   2.035   0.356   5.916  0.8398 -0.0867 -2.2180
    3MOL   H417 1541   1.913   0.224   5.966 -1.0028  0.1466  0.9904
    3MOL   H418 1542   2.281   8.043   5.726 -0.9562 -0.6840 -0.2087
    3MOL   H419 1543   2.373   7.972   5.513  0.2390  1.3007  1.0846
    3MOL   H420 1544   2.101   0.139   5.309 -0.1315 -0.9055 -0.1967
    3MOL   H421 1545   2.014   0.216   5.533 -1.1297 -0.3735 -0.3126
    3MOL   O422 1546   2.404   7.991   5.247  0.5268 -0.1739  0.5102
    3MOL   C423 1547   2.462   7.958   5.120  0.1112 -0.3483 -0.0578
    3MOL   C424 1548   2.612   7.944   5.135 -0.0189  0.0184  0.8991
    3MOL   C425 1549   2.688   8.058   5.192 -0.0317 -0.0961 -0.2890
    3MOL   C426 1550   2.836   8.040   5.225 -0.6264 -0.3106 -0.3803
    3MOL   O427 1551   2.912   8.014   5.107  0.0427  0.7477  0.1531
    3MOL   C428 1552   3.044   7.986   5.120 -0.6868  0.7019 -0.8682
    3MOL   O429 1553   3.101   7.970   5.231 -0.2037  0.1363 -0.1274
    3MOL   C430 1554   3.113   7.977   4.990 -0.1292  0.2971 -0.0350
    3MOL   C431 1555   3.044   7.924   4.880 -0.2320  0.3820 -0.1207
    3MOL   C432 1556   3.112   7.923   4.756 -0.4046  0.6134  0.1674
    3MOL   C433 1557   3.244   7.979   4.739 -0.0782 -0.5593 -0.0896
    3MOL   C434 1558   3.297   7.980   4.604  0.2065  0.8666  0.3120
    3MOL   O435 1559   3.227   7.931   4.518  0.1033  0.4343 -0.0326
    3MOL   C436 1560   3.301   8.048   4.848 -0.1560 -0.1840 -0.1487
    3MOL   C437 1561   3.237   8.036   4.978  0.3088 -0.3261  0.7315
    3MOL   H438 1562   2.419   7.862   5.093  0.1522 -0.7304  1.1854
    3MOL   H439 1563   2.434   8.019   5.034  2.9993  0.9548 -0.1487
    3MOL   H440 1564   2.652   7.911   5.039  1.8678 -0.6689  1.8911
    3MOL   H441 1565   2.620   7.853   5.194 -0.3040 -1.1073 -0.7677
    3MOL   H442 1566   2.684   0.046   5.126 -0.6487 -0.5429 -0.8342
    3MOL   H443 1567   2.643   8.089   5.286  1.9203  0.8535  0.3692
    3MOL   H444 1568   2.869   0.031   5.277  0.0922  1.4335 -3.7060
    3MOL   H445 1569   2.854   7.956   5.293  1.4295  0.2061 -0.2412
    3MOL   H446 1570   2.938   7.901   4.883 -0.5459  1.6450 -0.8553
    3MOL   H447 1571   3.049   7.895   4.673 -2.0342  2.2259  0.8148
    3MOL   H448 1572   3.399   8.092   4.838  0.4265 -0.9249  1.9264
    3MOL   H449 1573   3.285   8.078   5.065 -0.4353  0.6384  0.6820
    3MOL   O450 1574   3.425   8.022   4.592  0.2921  0.6328 -0.0193
    3MOL   C451 1575   3.471   8.045   4.461  0.1576  0.3090 -0.1562
    3MOL   C452 1576   3.473   0.099   4.448  0.3496  0.1229  0.4382
    3MOL   C453 1577   3.564   0.176   4.539  0.3315 -0.1500 -0.7559
    3MOL   C454 1578   3.493   0.298   4.589 -0.8292 -0.0990  1.2000
    3MOL   O455 1579   3.580   0.351   4.691  0.1358  0.0600  0.6024
    3MOL   C456 1580   3.549   0.339   4.821  0.3741 -0.1227 -0.6347
    3MOL   O457 1581   3.446   0.280   4.857  0.0037  0.0883 -0.3108
    3MOL   C458 1582   3.649   0.406   4.913 -0.3028  0.2095 -0.1842
    3MOL   C459 1583   3.761   0.479   4.868 -0.1664  0.0145  0.5277
    3MOL   C460 1584   3.844   0.540   4.958  0.0235  0.3382  0.0997
    3MOL   C461 1585   3.827   0.526   5.093  0.9959  0.2931  0.7247
    3MOL   C462 1586   3.926   0.594   5.189  0.6220  0.7991  0.0954
    3MOL   O463 1587   4.010   0.672   5.148  0.6035 -0.9930 -0.1486
    3MOL   C464 1588   3.725   0.433   5.143 -0.0096 -0.4121 -0.0387
    3MOL   C465 1589   3.631   0.384   5.050 -0.8841 -0.4601 -0.4800
    3MOL   H466 1590   3.572   8.005   4.454  0.7653  1.6474  0.5908
    3MOL   H467 1591   3.412   7.993   4.386 -1.1518 -1.4650  2.0473
    3MOL   H468 1592   3.375   0.147   4.448  1.4995  2.6167 -2.4981
    3MOL   H469 1593   3.507   0.119   4.346 -0.0175 -4.6479 -0.7175
    3MOL   H470 1594   3.606   0.106   4.611 -0.2715 -0.4085 -0.6560
    3MOL   H471 1595   3.660   0.202   4.494  1.4497 -0.9117  1.1037
    3MOL   H472 1596   3.467   0.365   4.507  0.2493  1.0336  1.7571
    3MOL   H473 1597   3.397   0.275   4.636 -1.4622  0.7421  0.3262
    3MOL   H474 1598   3.774   0.485   4.761  0.0683  0.4584  0.5800
    3MOL   H475 1599   3.931   0.583   4.911 -1.3507  0.9348 -1.9628
    3MOL   H476 1600   3.717   0.420   5.250  2.2216 -0.5540  0.1213
    3MOL   H477 1601   3.550   0.318   5.079 -0.5152 -1.2828 -1.3010
    3MOL   O478 1602   3.916   0.563   5.322 -0.0676 -0.6550 -0.4823
    3MOL   C479 1603   3.990   0.632   5.420  0.3422 -0.0433 -0.3441
    3MOL   C480 1604   4.072   0.527   5.499  0.7560 -0.8283 -0.5018
    3MOL   C481 1605   4.004   0.465   5.619  0.5193  0.3105  0.0494
    3MOL   C482 1606   3.889   0.365   5.588  0.4188  0.3655 -0.2601
    3MOL   O483 1607   3.939   0.266   5.500  0.0282  0.5512 -0.0314
    3MOL   C484 1608   3.861   0.193   5.437 -0.6891  0.3545  0.5824
    3MOL   O485 1609   3.740   0.194   5.452  0.1765 -0.5152  0.4193
    3MOL   C486 1610   3.926   0.087   5.357 -0.3491 -0.0464  0.0944
    3MOL   C487 1611   3.840   8.081   5.311 -0.1708 -0.0276 -0.1132
    3MOL   C488 1612   3.895   7.980   5.233  1.1581  0.3077 -0.3999
    3MOL   C489 1613   4.027   7.988   5.185  0.5666  0.0435  0.3321
    3MOL   C490 1614   4.078   7.884   5.088 -0.3220 -0.1602  0.4909
    3MOL   O491 1615   4.019   7.779   5.077 -0.4489 -0.2355  0.0425
    3MOL   C492 1616   4.114   8.096   5.224  0.1801 -0.2026 -0.7062
    3MOL   C493 1617   4.063   0.093   5.318 -0.5749  0.6510  0.4167
    3MOL   H494 1618   4.059   0.706   5.379  1.3782 -1.3897 -1.0760
    3MOL   H495 1619   3.925   0.679   5.494  1.4673  0.6647  0.2163
    3MOL   H496 1620   4.158   0.577   5.543  2.2918 -1.6462 -2.4840
    3MOL   H497 1621   4.122   0.463   5.426  2.2424  1.5978 -1.6940
    3MOL   H498 1622   4.088   0.426   5.676  0.4655 -1.0004 -0.7420
    3MOL   H499 1623   3.954   0.542   5.678 -0.8086 -0.3645 -0.1813
    3MOL   H500 1624   3.841   0.317   5.673 -1.0772  0.2698 -1.1482
    3MOL   H501 1625   3.814   0.418   5.530 -0.7938 -1.3451 -0.3040
    3MOL   H502 1626   3.733   8.083   5.329 -0.3616  0.3149 -1.2353
    3MOL   H503 1627   3.827   7.906   5.195  2.0393 -1.2479  1.0022
    3MOL   H504 1628   4.218   0.001   5.194  0.9031 -1.2847  1.5594
    3MOL   H505 1629   4.121   0.184   5.326  0.3241  0.0886  0.4471
    3MOL   O506 1630   4.191   7.924   5.019 -0.1456 -0.1926  0.1249
    3MOL   C507 1631   4.251   7.831   4.925  0.0319  0.3206 -0.6130
    3MOL   C508 1632   4.185   7.810   4.785  0.2022 -0.3894 -0.3909
    3MOL   C509 1633   4.269   7.728   4.686  0.2198 -0.4140 -0.2801
    3MOL   C510 1634   4.201   7.720   4.545 -0.2788 -0.5117  0.0342
    3MOL   O511 1635   4.298   7.668   4.461 -0.0003  0.7828  0.4851
    3MOL   C512 1636   4.270   7.654   4.324 -0.0164  0.0306 -0.9011
    3MOL   O513 1637   4.160   7.666   4.286 -0.0259 -0.2379  0.6526
    3MOL   C514 1638   4.386   7.618   4.245  0.0621 -0.1402  0.7536
    3MOL   C515 1639   4.403   7.644   4.104  0.5371 -0.2020 -0.5452
    3MOL   C516 1640   4.510   7.584   4.038  0.0961 -0.4272 -0.1040
    3MOL   C517 1641   4.611   7.511   4.101 -0.2471  0.6091 -0.7709
    3MOL   C518 1642   4.737   7.473   4.037  0.9329 -0.2771  0.4596
    3MOL   O519 1643   4.761   7.521   3.923  0.3862 -0.5373 -0.1301
    3MOL   C520 1644   4.591   7.487   4.237 -0.5174 -0.7928 -1.0261
    3MOL   C521 1645   4.485   7.538   4.311  0.1881  0.4117 -0.5242
    3MOL   H522 1646   4.357   7.848   4.910  0.1721  0.1708  0.1525
    3MOL   H523 1647   4.252   7.735   4.977  0.3141 -0.0592 -1.3208
    3MOL   H524 1648   4.166   7.908   4.741 -0.0475 -0.4019 -0.3145
    3MOL   H525 1649   4.095   7.750   4.802  0.6690 -0.4776  1.9021
    3MOL   H526 1650   4.361   7.785   4.674  0.6176 -0.3534  2.6935
    3MOL   H527 1651   4.297   7.636   4.737 -1.7556  0.0928  1.8064
    3MOL   H528 1652   4.106   7.667   4.538 -0.4927 -0.0684 -0.4584
    3MOL   H529 1653   4.171   7.818   4.509  0.7656 -0.6410 -1.2036
    3MOL   H530 1654   4.334   7.715   4.062 -0.2590  0.1966  1.4132
    3MOL   H531 1655   4.514   7.619   3.936 -0.4560 -0.9566 -0.3091
    3MOL   H532 1656   4.651   7.430   4.307 -1.3016  1.4910  1.5788
    3MOL   H533 1657   4.474   7.513   4.415  0.6953 -2.3269 -1.1108
    3MOL   O534 1658   4.808   7.394   4.107 -0.0319  0.1502 -0.7570
    3MOL   C535 1659   4.913   7.319   4.051  0.5672 -0.0464  0.3058
    3MOL   C536 1660   4.991   7.245   4.158  0.3070 -0.1727  0.2767
    3MOL   C537 1661   4.917   7.114   4.206 -0.2189 -0.6411 -0.0178
    3MOL   C538 1662   4.790   7.136   4.279  0.4437  0.3265  0.4338
    3MOL   O539 1663   4.730   7.018   4.315  0.1648  0.3983 -0.3509
    3MOL   C540 1664   4.752   6.955   4.436  0.4681  0.6884 -0.4041
    3MOL   O541 1665   4.829   7.000   4.520  0.2512  0.3428  0.2730
    3MOL   C542 1666   4.673   6.827   4.451  0.0606  0.3901  0.5645
    3MOL   C543 1667   4.630   6.757   4.331 -1.0357  0.1763  0.0060
    3MOL   C544 1668   4.563   6.634   4.354 -0.0135  0.7000  0.2573
    3MOL   C545 1669   4.542   6.578   4.481 -0.1388 -0.3447  0.2486
    3MOL   C546 1670   4.452   6.463   4.488 -0.8414  0.8042  0.3181
    3MOL   O547 1671   4.385   6.417   4.393 -0.4360  0.1225 -0.9714
    3MOL   C548 1672   4.580   6.653   4.596  0.3826  0.7430 -0.6044
    3MOL   C549 1673   4.651   6.775   4.583 -0.3760 -0.3625 -1.0999
    3MOL   H550 1674   4.886   7.256   3.966 -0.9399  1.5680 -0.4492
    3MOL   H551 1675   4.981   7.390   4.003 -0.2946  1.0355  0.6700
    3MOL   H552 1676   5.020   7.308   4.242  0.8892  0.0419 -0.0843
    3MOL   H553 1677   5.089   7.224   4.114 -0.2917 -0.1943 -1.0495
    3MOL   H554 1678   4.896   7.040   4.128  1.1071 -0.4829 -0.5295
    3MOL   H555 1679   4.997   7.066   4.263 -0.0937 -2.9889 -2.0761
    3MOL   H556 1680   4.797   7.206   4.362 -1.8184 -0.3969  1.2858
    3MOL   H557 1681   4.717   7.185   4.213  0.3637 -1.2190 -0.6635
    3MOL   H558 1682   4.649   6.808   4.237 -0.4730  1.4744  0.8143
    3MOL   H559 1683   4.523   6.585   4.266  0.7312 -0.5445  0.6054
    3MOL   H560 1684   4.545   6.618   4.692  0.7522  0.2983 -0.6320
    3MOL   H561 1685   4.661   6.833   4.673  0.2899 -0.4096 -1.1462
    3MOL   H562 1686   4.436   6.425   4.589 -1.7528  1.4743  0.4234
    4MOL     O1 1687   6.059   1.777   5.391 -0.1000  0.5957  0.2799
    4MOL     C2 1688   6.110   1.645   5.392 -0.2850 -0.1347 -0.2723
    4MOL     C3 1689   6.235   1.627   5.293 -0.3898 -0.4466  0.4936
    4MOL     C4 1690   6.203   1.617   5.141 -0.3003  0.6286  0.1817
    4MOL     C5 1691   6.330   1.585   5.063 -0.1138 -0.5173 -0.8250
    4MOL     O6 1692   6.306   1.607   4.933 -0.1714 -0.4500  0.7187
    4MOL     C7 1693   6.331   1.729   4.871 -0.8037  0.8175  0.5095
    4MOL     O8 1694   6.366   1.832   4.928  0.1617  0.4100 -0.4609
    4MOL     C9 1695   6.303   1.722   4.718  0.8381  0.7392  0.6533
    4MOL    C10 1696   6.267   1.601   4.649  0.0916  0.0892 -0.2406
    4MOL    C11 1697   6.251   1.595   4.508  0.2579 -0.3335 -0.0008
    4MOL    C12 1698   6.263   1.721   4.436 -0.0208  1.0186 -0.0990
    4MOL    C13 1699   6.225   1.734   4.296 -0.0047 -0.3560 -0.0647
    4MOL    O14 1700   6.213   1.637   4.225 -0.3316  0.1064  0.2215
    4MOL    C15 1701   6.307   1.835   4.502 -0.1258 -0.3114  0.3038
    4MOL    C16 1702   6.325   1.839   4.643  0.1421  0.9105  0.2968
    4MOL    H17 1703   6.125   1.622   5.497  0.8852 -2.6950 -0.9462
    4MOL    H18 1704   6.032   1.573   5.367 -0.2066 -0.2469 -0.1935
    4MOL    H19 1705   6.271   1.529   5.322 -0.1951 -0.6761 -0.5248
    4MOL    H20 1706   6.313   1.702   5.309  0.4118 -0.5676 -2.6566
    4MOL    H21 1707   6.126   1.543   5.118  0.2659 -0.8933  2.9478
    4MOL    H22 1708   6.160   1.714   5.114 -0.4620  0.7751  0.9268
    4MOL    H23 1709   6.411   1.651   5.094 -0.0846 -1.6215  1.5789
    4MOL    H24 1710   6.359   1.482   5.085  0.7252  0.3540  2.3713
    4MOL    H25 1711   6.250   1.520   4.718 -0.8516  1.0244  0.6441
    4MOL    H26 1712   6.222   1.506   4.454  1.0971 -1.2017  0.9610
    4MOL    H27 1713   6.328   1.926   4.447 -3.0951  0.9111  1.0946
    4MOL    H28 1714   6.362   1.927   4.693 -0.4412  1.4108 -0.1480
    4MOL    H29 1715   6.124   1.839   5.419 -0.8010  1.7506 -0.5799
    4MOL    O30 1716   6.198   1.862   4.250 -0.0339 -0.1292 -0.2523
    4MOL    C31 1717   6.180   1.880   4.113  0.6385 -0.3208  0.7086
    4MOL    C32 1718   6.164   2.024   4.065 -0.5885  0.4996 -0.1723
    4MOL    C33 1719   6.182   2.041   3.910  0.1145  1.0072  0.0546
    4MOL    C34 1720   6.085   1.957   3.824 -0.1887  0.0052  0.1315
    4MOL    O35 1721   5.952   2.001   3.839  0.1178 -0.7903 -0.3792
    4MOL    C36 1722   5.906   2.099   3.752  0.8670  0.1404  0.5211
    4MOL    O37 1723   5.981   2.158   3.673  0.1247  0.2350 -0.0636
    4MOL    C38 1724   5.767   2.147   3.768  0.3358 -0.4294 -0.2483
    4MOL    C39 1725   5.677   2.098   3.871 -0.1437 -0.3709 -0.3912
    4MOL    C40 1726   5.552   2.161   3.889 -0.4644 -0.4809 -0.0841
    4MOL    C41 1727   5.511   2.272   3.806  0.3831  0.5191  0.2539
    4MOL    C42 1728   5.376   2.339   3.830 -0.3061 -0.0564 -0.5084
    4MOL    O43 1729   5.324   2.411   3.747 -0.2825 -0.0625  0.9106
    4MOL    C44 1730   5.591   2.320   3.705  0.7207 -0.4756 -0.1253
    4MOL    C45 1731   5.718   2.255   3.683  0.1536 -0.0187 -0.6233
    4MOL    H46 1732   6.251   1.824   4.051 -1.1362  0.1491 -1.8414
    4MOL    H47 1733   6.085   1.836   4.082 -0.3384  2.2687 -0.0981
    4MOL    H48 1734   6.240   2.086   4.112  1.4272 -1.7005 -0.4303
    4MOL    H49 1735   6.067   2.066   4.091  0.8374  1.5828  3.7205
    4MOL    H50 1736   6.170   2.149   3.897  0.2891  0.6483 -3.7284
    4MOL    H51 1737   6.284   2.014   3.886  0.2788 -0.2843  2.0535
    4MOL    H52 1738   6.132   1.960   3.725  0.6598  3.5925  0.5903
    4MOL    H53 1739   6.095   1.854   3.858 -2.0020 -1.2153 -2.7835
    4MOL    H54 1740   5.697   2.014   3.936  0.2070  1.1062  1.4643
    4MOL    H55 1741   5.483   2.131   3.966  1.0848 -1.7547  0.8508
    4MOL    H56 1742   5.558   2.399   3.640  1.8289  2.6843  3.0050
    4MOL    H57 1743   5.781   2.285   3.600 -0.4089 -0.0247 -1.0522
    4MOL    O58 1744   5.324   2.304   3.949  0.0545  0.5422 -0.5326
    4MOL    C59 1745   5.202   2.354   4.005  0.5460  0.3309  0.4027
    4MOL    C60 1746   5.190   2.259   4.131  0.6882 -0.1877  0.0294
    4MOL    C61 1747   5.289   2.311   4.247  0.2378 -0.3105 -0.0660
    4MOL    C62 1748   5.275   2.222   4.373  0.2939  0.1922  0.2051
    4MOL    O63 1749   5.161   2.259   4.451  0.2684  0.0570  0.2451
    4MOL    C64 1750   5.047   2.189   4.443  0.0167  0.2472  0.1415
    4MOL    O65 1751   5.030   2.082   4.379  0.3828  0.6085 -0.0848
    4MOL    C66 1752   4.942   2.247   4.526 -0.0785  0.4205 -0.4660
    4MOL    C67 1753   4.809   2.223   4.486  0.1040  0.5005  0.0871
    4MOL    C68 1754   4.707   2.305   4.542 -0.1375  0.8804  0.0344
    4MOL    C69 1755   4.732   2.393   4.646  0.1818  0.8569 -0.0533
    4MOL    C70 1756   4.624   2.459   4.726  0.8258  0.4528 -0.3534
    4MOL    O71 1757   4.646   2.538   4.822  0.3968 -0.1772 -0.0322
    4MOL    C72 1758   4.867   2.407   4.692  0.3756 -0.7210  1.0971
    4MOL    C73 1759   4.971   2.333   4.634 -0.0189 -0.5467 -0.1024
    4MOL    H74 1760   5.203   2.463   4.014  2.9421  0.3347  0.2674
    4MOL    H75 1761   5.123   2.336   3.932  0.1293  1.7677  0.4645
    4MOL    H76 1762   5.216   2.158   4.098 -0.2568  0.4282 -2.7955
    4MOL    H77 1763   5.086   2.268   4.163  0.4165 -2.0348 -0.2643
    4MOL    H78 1764   5.394   2.301   4.219  0.9438  1.0974  2.0096
    4MOL    H79 1765   5.274   2.417   4.267  2.1723  0.3079 -1.6858
    4MOL    H80 1766   5.269   2.118   4.342  0.2747  0.2787 -0.0769
    4MOL    H81 1767   5.356   2.242   4.444 -0.4876  0.1399  1.1236
    4MOL    H82 1768   4.790   2.156   4.404  2.2310 -1.8966  1.4749
    4MOL    H83 1769   4.604   2.287   4.512  0.2572  0.1882 -0.9265
    4MOL    H84 1770   4.885   2.475   4.773  0.2805 -0.1185  0.6119
    4MOL    H85 1771   5.074   2.342   4.666  0.3546  2.0402 -1.9175
    4MOL    O86 1772   4.498   2.430   4.674 -0.5095  0.1710  0.2510
    4MOL    C87 1773   4.378   2.472   4.732 -0.4505 -0.2716  0.4407
    4MOL    C88 1774   4.312   2.574   4.638  0.7909  0.4851  0.4576
    4MOL    C89 1775   4.381   2.708   4.621 -0.1150 -0.9505  0.1337
    4MOL    C90 1776   4.311   2.787   4.514 -0.0239  0.0822  0.4599
    4MOL    O91 1777   4.181   2.837   4.546  0.4431  0.7959 -0.1280
    4MOL    C92 1778   4.085   2.807   4.468 -0.3366  0.4457 -0.7984
    4MOL    O93 1779   4.098   2.731   4.371  0.1487 -0.3565 -0.5259
    4MOL    C94 1780   3.958   2.874   4.511 -0.0093 -0.3474  0.5035
    4MOL    C95 1781   3.962   3.010   4.561  0.2382 -0.0851 -0.6373
    4MOL    C96 1782   3.842   3.081   4.591 -0.3383  0.3319 -0.3239
    4MOL    C97 1783   3.717   3.014   4.585 -0.6430 -0.4024 -0.7771
    4MOL    C98 1784   3.584   3.074   4.619 -0.1040 -0.4134 -0.0108
    4MOL    O99 1785   3.475   3.030   4.586 -0.3208  0.3873 -0.5399
    4MOL   C100 1786   3.714   2.878   4.538  0.2278 -1.1365  0.3465
    4MOL   C101 1787   3.832   2.808   4.508  0.1761  0.5701 -0.4056
    4MOL   H102 1788   4.307   2.393   4.759 -1.1812  0.9125  2.0401
    4MOL   H103 1789   4.406   2.521   4.825 -1.4386  1.7117 -0.2797
    4MOL   H104 1790   4.213   2.583   4.683  0.7154 -1.7269  0.7764
    4MOL   H105 1791   4.304   2.518   4.545  0.6571  0.3479  0.5529
    4MOL   H106 1792   4.376   2.771   4.710 -2.6620 -1.4600  0.3875
    4MOL   H107 1793   4.487   2.702   4.597 -0.1739 -0.8648 -0.1479
    4MOL   H108 1794   4.367   2.874   4.478  3.1940 -3.0220 -2.3278
    4MOL   H109 1795   4.322   2.724   4.426  0.2494  2.1501 -1.0443
    4MOL   H110 1796   4.053   3.069   4.553  0.3528 -0.0553  0.7798
    4MOL   H111 1797   3.845   3.184   4.621 -0.4326  0.2007  0.1412
    4MOL   H112 1798   3.621   2.824   4.535 -0.4655  0.1018 -1.0189
    4MOL   H113 1799   3.832   2.703   4.480  0.9687  0.5894 -0.4930
    4MOL   O114 1800   3.592   3.179   4.696  0.7411 -0.1183 -0.5733
    4MOL   C115 1801   3.480   3.253   4.739  0.7627 -0.1002 -0.6911
    4MOL   C116 1802   3.454   3.354   4.624 -0.3564 -0.9630 -0.1071
    4MOL   C117 1803   3.348   3.461   4.650  0.4529 -0.2295  0.9129
    4MOL   C118 1804   3.323   3.543   4.517 -0.8680  0.2930 -1.0886
    4MOL   O119 1805   3.232   3.653   4.541  0.0204 -0.1760 -0.1404
    4MOL   C120 1806   3.274   3.782   4.514 -0.1371  0.3664 -0.1664
    4MOL   O121 1807   3.375   3.796   4.444  0.8612 -0.4443 -0.3496
    4MOL   C122 1808   3.194   3.883   4.590 -0.0375 -0.4363  0.5371
    4MOL   C123 1809   3.266   3.999   4.638  0.1413 -0.1135  0.4885
    4MOL   C124 1810   3.194   4.104   4.693 -0.2988  0.2656  0.5395
    4MOL   C125 1811   3.056   4.099   4.710  0.2436  0.3591  0.2064
    4MOL   C126 1812   2.980   4.207   4.779  0.2265  0.3616 -0.1027
    4MOL   O127 1813   2.873   4.192   4.826 -0.2061  0.3546 -0.5307
    4MOL   C128 1814   2.982   3.984   4.661  0.0874 -0.1535  1.2595
    4MOL   C129 1815   3.052   3.880   4.597  0.1131  0.2242  0.0691
    4MOL   H130 1816   3.397   3.183   4.751  0.9046 -0.1163  0.2272
    4MOL   H131 1817   3.481   3.300   4.837 -2.7311 -0.8024 -0.2542
    4MOL   H132 1818   3.435   3.303   4.530  2.2417 -0.1086 -1.1398
    4MOL   H133 1819   3.550   3.403   4.607 -0.7360  0.4646  1.7077
    4MOL   H134 1820   3.255   3.423   4.690 -0.3294  2.0027  1.2780
    4MOL   H135 1821   3.392   3.532   4.720  0.1801 -0.5387  1.3928
    4MOL   H136 1822   3.420   3.566   4.475  0.0231  1.1325  1.3287
    4MOL   H137 1823   3.279   3.474   4.445 -0.4732 -1.6134  0.4799
    4MOL   H138 1824   3.373   4.008   4.631  0.0906 -0.4273 -0.8014
    4MOL   H139 1825   3.259   4.190   4.704  0.1359  0.3204 -2.0919
    4MOL   H140 1826   2.874   3.975   4.654  0.3230 -2.4056 -0.2395
    4MOL   H141 1827   2.999   3.799   4.549  2.1840 -0.3986 -1.2301
    4MOL   O142 1828   3.051   4.329   4.780 -0.1388  0.3998  0.4126
    4MOL   C143 1829   3.001   4.435   4.862  0.1684  0.0573  0.4522
    4MOL   C144 1830   3.118   4.545   4.868 -0.6207 -0.1227  0.1007
    4MOL   C145 1831   3.237   4.508   4.956  0.4782  0.0945  0.3155
    4MOL   C146 1832   3.343   4.614   4.991 -0.0391  0.2603 -0.3283
    4MOL   O147 1833   3.278   4.729   5.041  0.1357 -0.3894 -0.7672
    4MOL   C148 1834   3.240   4.747   5.169  0.6068 -0.1976  1.3950
    4MOL   O149 1835   3.266   4.661   5.248  0.2175  0.3207 -0.1330
    4MOL   C150 1836   3.146   4.863   5.188 -0.3056  1.1697  0.4313
    4MOL   C151 1837   3.082   4.873   5.312 -0.0460 -0.2006  0.4043
    4MOL   C152 1838   2.978   4.967   5.331  0.9487  0.4382  0.0734
    4MOL   C153 1839   2.929   5.049   5.230 -0.3595 -0.0829 -0.6125
    4MOL   C154 1840   2.815   5.143   5.251  0.2388 -0.1399 -0.5486
    4MOL   O155 1841   2.769   5.156   5.364 -0.0359  0.0358  0.7859
    4MOL   C156 1842   3.000   5.040   5.107 -1.1634 -0.0847 -0.1131
    4MOL   C157 1843   3.109   4.952   5.087  0.0071  0.7091 -0.2528
    4MOL   H158 1844   2.914   4.483   4.818  0.5158 -1.0243 -1.4727
    4MOL   H159 1845   2.979   4.419   4.968 -1.2576  1.8915  0.4671
    4MOL   H160 1846   3.076   4.631   4.921  0.0723  0.3567 -0.1177
    4MOL   H161 1847   3.140   4.588   4.770  0.7787 -0.5157  0.2340
    4MOL   H162 1848   3.192   4.469   5.048  1.8317 -1.8247  0.1796
    4MOL   H163 1849   3.291   4.429   4.904  2.4898  2.3050 -1.0626
    4MOL   H164 1850   3.405   4.571   5.070 -1.5819  0.5904  1.1003
    4MOL   H165 1851   3.403   4.646   4.907  1.6548  1.6867  1.3719
    4MOL   H166 1852   3.114   4.814   5.397 -0.1983 -0.7863  0.0555
    4MOL   H167 1853   2.932   4.973   5.429 -0.6038  1.6855 -0.7081
    4MOL   H168 1854   2.978   5.104   5.022 -0.0290  0.6747  0.1535
    4MOL   H169 1855   3.159   4.952   4.991 -1.2113  0.4361 -0.9047
    4MOL   O170 1856   2.772   5.206   5.145 -0.2980 -0.1676 -0.0067
    4MOL   C171 1857   2.662   5.296   5.143  0.0536 -0.1845 -0.2168
    4MOL   C172 1858   2.597   5.301   5.001  0.6528  0.7586  0.2064
    4MOL   C173 1859   2.685   5.373   4.891  0.3744  0.2616 -0.4100
    4MOL   C174 1860   2.820   5.304   4.870  0.0065 -0.1014 -0.5665
    4MOL   O175 1861   2.869   5.326   4.740 -0.2289 -0.3391  0.7169
    4MOL   C176 1862   2.961   5.245   4.690  0.2644  0.2231  0.8346
    4MOL   O177 1863   2.998   5.144   4.753 -0.6902  0.3067  0.2643
    4MOL   C178 1864   3.013   5.277   4.554  0.3877  0.3177  0.6441
    4MOL   C179 1865   3.097   5.184   4.492 -0.3714  0.0258 -0.1696
    4MOL   C180 1866   3.136   5.201   4.362 -0.4156  0.0224 -0.1093
    4MOL   C181 1867   3.119   5.321   4.292  0.5122  0.0329  0.1905
    4MOL   C182 1868   3.182   5.350   4.159 -0.3985  0.5061  0.1616
    4MOL   O183 1869   3.288   5.296   4.125  0.5095 -0.2236 -0.0255
    4MOL   C184 1870   3.035   5.419   4.349 -0.0400  0.1365 -0.0502
    4MOL   C185 1871   2.984   5.395   4.484  0.4207  0.0264 -0.7025
    4MOL   H186 1872   2.579   5.268   5.208 -0.8795  2.4637 -0.2041
    4MOL   H187 1873   2.694   5.390   5.188  1.1909 -1.0917  0.8839
    4MOL   H188 1874   2.491   5.327   5.004  0.0874 -1.1339 -1.7993
    4MOL   H189 1875   2.583   5.201   4.961 -0.8825  0.0886  2.2863
    4MOL   H190 1876   2.627   5.394   4.801 -0.9159  0.0996  0.3585
    4MOL   H191 1877   2.706   5.474   4.926 -0.2185  0.9208 -1.9266
    4MOL   H192 1878   2.887   5.330   4.952  2.0085 -0.9582 -1.8844
    4MOL   H193 1879   2.793   5.200   4.893 -3.6552  0.7388 -0.7973
    4MOL   H194 1880   3.134   5.096   4.543 -0.8525  0.1043  0.3184
    4MOL   H195 1881   3.198   5.130   4.309 -0.8257  1.8301 -3.1532
    4MOL   H196 1882   3.018   5.510   4.293 -0.0983 -0.3926 -0.9045
    4MOL   H197 1883   2.915   5.464   4.529  0.3987  0.3882 -1.2853
    4MOL   O198 1884   3.111   5.446   4.081  0.8347  0.2509 -0.2292
    4MOL   C199 1885   3.142   5.488   3.951  0.6368  0.0717  0.1981
    4MOL   C200 1886   3.261   5.587   3.955  0.4826 -0.2048  0.5069
    4MOL   C201 1887   3.270   5.680   4.085 -0.1519  0.3742 -0.5404
    4MOL   C202 1888   3.141   5.755   4.121  0.3156 -0.1580  0.3755
    4MOL   O203 1889   3.129   5.865   4.037  1.0296 -0.0686  0.4190
    4MOL   C204 1890   3.064   5.860   3.911  0.3025 -0.0533 -0.5310
    4MOL   O205 1891   3.027   5.760   3.860 -0.2473  0.1917 -0.8301
    4MOL   C206 1892   3.044   5.994   3.852  0.5801  0.3182  0.2733
    4MOL   C207 1893   2.950   6.012   3.748  0.1195  0.3491 -0.1962
    4MOL   C208 1894   2.928   6.145   3.705 -0.0538 -0.6726  0.5635
    4MOL   C209 1895   2.998   6.254   3.746  0.5377 -0.1447 -0.0327
    4MOL   C210 1896   2.978   6.396   3.699 -0.0600  0.0784  0.0300
    4MOL   O211 1897   2.894   6.430   3.616  0.3586  0.4782 -0.0817
    4MOL   C212 1898   3.100   6.230   3.839 -0.5306 -0.1684 -0.5257
    4MOL   C213 1899   3.127   6.100   3.892 -0.0439  0.1275 -0.3489
    4MOL   H214 1900   3.161   5.398   3.893 -1.6304 -0.0415 -0.4211
    4MOL   H215 1901   3.059   5.533   3.896  0.1791  0.6220  1.3255
    4MOL   H216 1902   3.264   5.651   3.867 -0.4682  0.6094  1.0606
    4MOL   H217 1903   3.353   5.528   3.952  0.6045  0.0070  0.1044
    4MOL   H218 1904   3.291   5.628   4.178 -0.2691 -0.7890 -1.1557
    4MOL   H219 1905   3.349   5.755   4.085  0.0842  0.1530 -2.1837
    4MOL   H220 1906   3.058   5.685   4.124 -0.6905  1.0349  0.5753
    4MOL   H221 1907   3.144   5.783   4.226 -2.4639  0.2509  0.3799
    4MOL   H222 1908   2.888   5.933   3.709 -0.0208  1.6049 -2.5894
    4MOL   H223 1909   2.856   6.170   3.628  0.7337  1.4512  0.4740
    4MOL   H224 1910   3.168   6.312   3.860 -1.8255  0.3905  1.6289
    4MOL   H225 1911   3.208   6.097   3.963  2.0373  1.8952 -2.5331
    4MOL   O226 1912   3.042   6.484   3.773 -0.3481 -0.9286 -0.4944
    4MOL   C227 1913   3.007   6.621   3.786 -0.8439  0.4045 -0.2139
    4MOL   C228 1914   3.070   6.728   3.699 -0.4361  0.5526  0.1541
    4MOL   C229 1915   3.028   6.719   3.551  0.2966 -0.5207  0.1190
    4MOL   C230 1916   2.886   6.768   3.504  0.0669 -0.7789  0.3324
    4MOL   O231 1917   2.777   6.704   3.572 -0.0024 -0.0143 -0.0917
    4MOL   C232 1918   2.652   6.693   3.505 -0.5326  0.3247  0.2800
    4MOL   O233 1919   2.630   6.722   3.386 -0.1487  0.2523  0.1670
    4MOL   C234 1920   2.551   6.639   3.598  0.2205 -0.4275 -0.0409
    4MOL   C235 1921   2.414   6.660   3.562  0.5895  0.0823  0.7434
    4MOL   C236 1922   2.313   6.615   3.652 -0.6817 -0.4355  0.4352
    4MOL   C237 1923   2.346   6.564   3.784 -0.0125  0.3114  0.7086
    4MOL   C238 1924   2.248   6.514   3.885 -0.2094 -0.4737  0.0215
    4MOL   O239 1925   2.128   6.530   3.870 -0.2622 -0.0698  0.2871
    4MOL   C240 1926   2.482   6.545   3.809 -0.2016  0.8037  0.1971
    4MOL   C241 1927   2.582   6.580   3.720  0.3837  0.4099 -0.3235
    4MOL   H242 1928   2.898   6.627   3.776 -0.9829 -1.2017  0.1136
    4MOL   H243 1929   3.031   6.642   3.890  1.2516  1.2878 -0.8509
    4MOL   H244 1930   3.177   6.707   3.710 -0.4650  1.8057  3.1001
    4MOL   H245 1931   3.047   6.829   3.731 -1.2482  0.6579 -0.7386
    4MOL   H246 1932   3.096   6.765   3.480  0.8174 -0.3894  0.6992
    4MOL   H247 1933   3.028   6.614   3.522  1.5437 -0.0295 -1.7108
    4MOL   H248 1934   2.872   6.874   3.528 -1.7616 -0.9280 -0.0006
    4MOL   H249 1935   2.875   6.773   3.396 -0.5842  1.3007  0.4612
    4MOL   H250 1936   2.393   6.694   3.462 -0.1001 -0.8829  0.5461
    4MOL   H251 1937   2.207   6.614   3.630 -1.1130  0.6673  2.3906
    4MOL   H252 1938   2.512   6.484   3.893 -0.9009  1.0027  0.5927
    4MOL   H253 1939   2.685   6.554   3.743 -0.2044 -0.7688  1.1376
    4MOL   O254 1940   2.295   6.448   3.995  0.0871 -0.2674  0.2031
    4MOL   C255 1941   2.209   6.414   4.106 -0.0562  0.1352  0.0345
    4MOL   C256 1942   2.142   6.277   4.090 -0.0313  0.2442 -0.4701
    4MOL   C257 1943   2.025   6.275   3.984 -0.5052 -0.4395  0.1952
    4MOL   C258 1944   1.935   6.152   3.991 -0.0052  0.3358 -0.7106
    4MOL   O259 1945   2.006   6.041   3.936  0.0698 -0.3205  0.5384
    4MOL   C260 1946   1.938   5.933   3.878 -0.1416 -0.7673 -0.2128
    4MOL   O261 1947   1.816   5.934   3.862  0.8628  0.2323  0.7778
    4MOL   C262 1948   2.020   5.808   3.838  0.4101 -0.1969 -1.3467
    4MOL   C263 1949   2.159   5.799   3.868 -0.0353  0.3309 -0.4324
    4MOL   C264 1950   2.238   5.693   3.832 -0.3322 -0.0151  0.0339
    4MOL   C265 1951   2.177   5.579   3.778 -0.0166  0.5816 -0.2309
    4MOL   C266 1952   2.252   5.457   3.738 -0.3033  0.6849 -0.2628
    4MOL   O267 1953   2.198   5.361   3.679  0.2751 -0.2054 -0.0213
    4MOL   C268 1954   2.036   5.582   3.753 -0.7652 -0.0387  0.2389
    4MOL   C269 1955   1.959   5.697   3.779 -0.5397  0.1624 -0.1248
    4MOL   H270 1956   2.274   6.416   4.193  0.6095 -1.7083 -0.3949
    4MOL   H271 1957   2.131   6.482   4.139 -0.0187  0.8902 -1.4043
    4MOL   H272 1958   2.103   6.256   4.189 -1.5670  0.6553 -0.9648
    4MOL   H273 1959   2.222   6.205   4.075 -0.3229 -0.4563  1.2599
    4MOL   H274 1960   1.961   6.362   3.998  0.5554  0.5307 -0.8309
    4MOL   H275 1961   2.063   6.284   3.883 -0.5050  0.5547  0.2805
    4MOL   H276 1962   1.901   6.130   4.093  1.7176  0.6142 -0.0596
    4MOL   H277 1963   1.842   6.172   3.938  0.5865  1.6622 -1.2602
    4MOL   H278 1964   2.206   5.889   3.906  1.1928  0.1233 -1.4170
    4MOL   H279 1965   2.343   5.699   3.857 -0.7638 -1.1361  2.2463
    4MOL   H280 1966   1.984   5.494   3.719 -0.1330 -0.4124  0.2275
    4MOL   H281 1967   1.854   5.692   3.755 -0.7129  1.2313  0.3957
    4MOL   O282 1968   2.388   5.465   3.759 -0.5733  0.5508  0.6143
    4MOL   C283 1969   2.473   5.362   3.714 -0.0464  0.2955 -0.5274
    4MOL   C284 1970   2.477   5.244   3.823  0.5229 -0.1427  0.6350
    4MOL   C285 1971   2.571   5.128   3.782 -0.2108  0.9808  0.0924
    4MOL   C286 1972   2.709   5.173   3.792  0.7096 -1.0087  0.3133
    4MOL   O287 1973   2.788   5.059   3.763  0.1607  0.9474 -0.1006
    4MOL   C288 1974   2.915   5.061   3.790 -0.0108  0.7777  0.6738
    4MOL   O289 1975   2.977   5.153   3.843  0.1538  0.8670 -0.3122
    4MOL   C290 1976   2.983   4.948   3.721 -0.0156 -0.2830 -0.8014
    4MOL   C291 1977   3.112   4.916   3.757 -0.2070 -0.2978  0.5258
    4MOL   C292 1978   3.178   4.797   3.707 -0.2687  0.0805 -0.5885
    4MOL   C293 1979   3.118   4.725   3.602 -0.5839  0.7827  0.1649
    4MOL   C294 1980   3.173   4.600   3.546  0.4422  0.0080 -0.5103
    4MOL   O295 1981   3.108   4.531   3.468  0.4968 -1.0717 -0.0050
    4MOL   C296 1982   2.989   4.774   3.556  0.1489  0.6331 -0.1648
    4MOL   C297 1983   2.921   4.882   3.614 -0.7022 -0.0800  0.0150
    4MOL   H298 1984   2.448   5.322   3.616  0.3616  0.0981 -0.5531
    4MOL   H299 1985   2.572   5.402   3.691  0.4914  0.2567  1.6344
    4MOL   H300 1986   2.378   5.202   3.838  0.6408  0.0841  2.1813
    4MOL   H301 1987   2.505   5.278   3.923  3.7164 -3.6144  1.0574
    4MOL   H302 1988   2.544   5.052   3.856 -0.9727 -0.2778 -1.4573
    4MOL   H303 1989   2.539   5.085   3.688  4.1715 -4.0574  0.6739
    4MOL   H304 1990   2.726   5.260   3.729 -1.6598 -1.8126 -1.5036
    4MOL   H305 1991   2.716   5.200   3.897  1.2281 -0.7327  0.2103
    4MOL   H306 1992   3.157   4.967   3.841 -0.2850  1.4387 -0.4641
    4MOL   H307 1993   3.271   4.758   3.746  0.5592  2.7073  0.1767
    4MOL   H308 1994   2.936   4.714   3.484 -0.3064  2.3172 -1.2647
    4MOL   H309 1995   2.819   4.907   3.587 -0.6809  2.0265  1.7312
    4MOL   O310 1996   3.296   4.570   3.588  0.5903  0.3658 -0.2710
    4MOL   C311 1997   3.353   4.451   3.544  0.5077  0.6224 -0.2247
    4MOL   C312 1998   3.483   4.427   3.622  0.1770 -0.0328  0.0481
    4MOL   C313 1999   3.566   4.305   3.571  0.0709  0.5846 -0.4305
    4MOL   C314 2000   3.600   4.307   3.424 -0.1490  0.0094  0.0559
    4MOL   O315 2001   3.690   4.197   3.395 -0.6487  0.2768 -0.4996
    4MOL   C316 2002   3.641   4.066   3.386  0.5135  0.1132 -0.0641
    4MOL   O317 2003   3.532   4.021   3.421  0.4783 -0.0042 -0.2902
    4MOL   C318 2004   3.724   3.980   3.307  0.2433 -0.4116  0.3336
    4MOL   C319 2005   3.809   4.029   3.208 -0.0106  0.1260  1.1183
    4MOL   C320 2006   3.896   3.936   3.143 -0.0705  0.4910 -0.4527
    4MOL   C321 2007   3.895   3.798   3.171  0.2217 -0.0055 -0.2432
    4MOL   C322 2008   4.003   3.712   3.114  1.2143  0.1680  0.0116
    4MOL   O323 2009   4.088   3.743   3.033 -0.0160  0.4527  0.3944
    4MOL   C324 2010   3.800   3.749   3.264  0.2629  0.1018 -0.0262
    4MOL   C325 2011   3.717   3.840   3.333  0.2711 -0.0012 -0.4115
    4MOL   H326 2012   3.298   4.361   3.574  0.2863 -0.5004 -3.7173
    4MOL   H327 2013   3.354   4.457   3.435 -1.7296  0.1193 -0.2948
    4MOL   H328 2014   3.466   4.423   3.730  3.3449  0.0824  0.5947
    4MOL   H329 2015   3.557   4.506   3.607 -1.0343  1.0367 -0.3561
    4MOL   H330 2016   3.655   4.291   3.632 -1.1611  0.5638  1.4104
    4MOL   H331 2017   3.512   4.213   3.591 -0.3613  0.8545 -0.3435
    4MOL   H332 2018   3.517   4.304   3.354  0.7906 -0.4297 -1.0501
    4MOL   H333 2019   3.652   4.403   3.418 -1.2091  0.5264 -1.1272
    4MOL   H334 2020   3.821   4.132   3.177 -1.2156 -0.4660 -1.4470
    4MOL   H335 2021   3.965   3.969   3.066  0.0422  1.7767  0.1839
    4MOL   H336 2022   3.798   3.642   3.275 -0.4319  0.0708 -0.4703
    4MOL   H337 2023   3.648   3.802   3.406 -0.5970  2.4500  0.1008
    4MOL   O338 2024   4.007   3.594   3.173 -0.2089  0.2629  0.1319
    4MOL   C339 2025   4.112   3.500   3.149  0.5368 -0.4362 -0.1788
    4MOL   C340 2026   4.160   3.443   3.280 -0.1250  0.1996  0.8099
    4MOL   C341 2027   4.054   3.349   3.334  0.3938  0.1338 -0.0550
    4MOL   C342 2028   4.058   3.332   3.487 -0.3789 -0.0583  0.4575
    4MOL   O343 2029   4.026   3.456   3.542  0.5803  0.0948 -0.4160
    4MOL   C344 2030   3.900   3.469   3.611  0.5942 -0.1902  0.2692
    4MOL   O345 2031   3.832   3.370   3.640  0.6982  0.4852 -0.4730
    4MOL   C346 2032   3.858   3.609   3.650  0.2000 -1.0606  0.3736
    4MOL   C347 2033   3.926   3.729   3.602  0.0697 -0.6418 -0.3285
    4MOL   C348 2034   3.876   3.859   3.637 -0.1306  0.4313 -0.5338
    4MOL   C349 2035   3.756   3.872   3.720 -0.5737 -0.3685 -0.6351
    4MOL   C350 2036   3.723   4.007   3.766 -0.5556  0.2762 -0.3837
    4MOL   O351 2037   3.798   4.101   3.734  0.1544  0.5442 -0.0487
    4MOL   C352 2038   3.688   3.757   3.759  0.5580  0.5730 -0.0726
    4MOL   C353 2039   3.743   3.625   3.730  0.2750  0.0549 -0.3394
    4MOL   H354 2040   4.072   3.421   3.085  0.1976 -0.2317 -0.2164
    4MOL   H355 2041   4.200   3.549   3.107  0.6804  0.3631  1.0242
    4MOL   H356 2042   4.172   3.529   3.345 -1.3396  0.9955  0.0018
    4MOL   H357 2043   4.250   3.382   3.272 -0.8866 -0.9666  0.9109
    4MOL   H358 2044   3.952   3.380   3.310  0.2278 -0.6476 -0.3840
    4MOL   H359 2045   4.064   3.251   3.289  2.0561 -1.1023  2.8383
    4MOL   H360 2046   3.993   3.250   3.517 -1.5080  0.5738 -0.2204
    4MOL   H361 2047   4.157   3.302   3.523  0.5224  1.1497 -0.9522
    4MOL   H362 2048   4.008   3.715   3.533  1.1793  0.8923  0.6606
    4MOL   H363 2049   3.935   3.943   3.604 -0.3744  0.8683  0.1236
    4MOL   H364 2050   3.599   3.762   3.820 -0.0387  2.2567 -1.0573
    4MOL   H365 2051   3.702   3.536   3.776 -0.9366  0.8227  0.0872
    4MOL   O366 2052   3.622   4.014   3.845 -0.3393 -0.5670 -0.5161
    4MOL   C367 2053   3.565   4.145   3.877  0.1670 -0.3478 -0.1955
    4MOL   C368 2054   3.528   4.132   4.024  0.0246  0.3958 -0.5803
    4MOL   C369 2055   3.434   4.014   4.054 -0.4066 -0.4504  0.3540
    4MOL   C370 2056   3.439   3.996   4.208  0.1695 -0.5427  0.6442
    4MOL   O371 2057   3.364   4.090   4.277  0.2768  0.0857  0.3045
    4MOL   C372 2058   3.231   4.074   4.298  0.8336 -1.2232 -0.2398
    4MOL   O373 2059   3.173   3.967   4.274 -0.3018  0.2648  0.2297
    4MOL   C374 2060   3.161   4.184   4.364 -0.3564 -0.3656 -0.1236
    4MOL   C375 2061   3.223   4.312   4.383 -0.3842  0.6616 -0.3952
    4MOL   C376 2062   3.149   4.415   4.431  0.1134  0.5503 -0.1258
    4MOL   C377 2063   3.007   4.403   4.454  0.5215 -0.6912  0.4629
    4MOL   C378 2064   2.932   4.523   4.508 -1.3464  0.3349  0.0159
    4MOL   O379 2065   2.816   4.510   4.548  0.1202  0.2111 -0.4056
    4MOL   C380 2066   2.944   4.280   4.425  0.2800 -1.0355  0.0131
    4MOL   C381 2067   3.023   4.174   4.387  0.1328  0.6791 -0.2409
    4MOL   H382 2068   3.628   4.233   3.864 -2.5744  1.4306 -1.9257
    4MOL   H383 2069   3.473   4.159   3.821  1.4155  0.2534 -2.1629
    4MOL   H384 2070   3.482   4.220   4.070 -2.0133 -1.7003  1.5295
    4MOL   H385 2071   3.618   4.107   4.081 -1.3138  0.0639  1.4642
    4MOL   H386 2072   3.335   4.029   4.013  0.7938  0.3397 -2.3888
    4MOL   H387 2073   3.467   3.916   4.020  1.8591 -0.6210  2.8477
    4MOL   H388 2074   3.407   3.895   4.235 -0.8217 -0.5934 -0.6901
    4MOL   H389 2075   3.543   4.010   4.236  0.7020 -0.5849 -1.2752
    4MOL   H390 2076   3.322   4.333   4.346 -0.5285 -0.2123 -1.2877
    4MOL   H391 2077   3.191   4.514   4.437  1.0533  0.1096  0.6297
    4MOL   H392 2078   2.842   4.266   4.459 -0.6355  1.4293 -1.6240
    4MOL   H393 2079   2.980   4.076   4.373 -0.9022  0.8322  1.7256
    4MOL   O394 2080   3.002   4.634   4.494  0.5263  0.6010 -0.2563
    4MOL   C395 2081   2.952   4.757   4.548  0.4703 -0.7701  0.2239
    4MOL   C396 2082   2.985   4.861   4.439 -0.4155 -0.2652 -0.1898
    4MOL   C397 2083   2.941   4.836   4.294 -0.0420 -0.8415 -0.0358
    4MOL   C398 2084   2.958   4.960   4.202 -0.2775 -0.1798  0.3765
    4MOL   O399 2085   2.863   5.058   4.228  0.0060 -0.3772  0.0857
    4MOL   C400 2086   2.739   5.052   4.167  0.0211 -0.5684 -0.2602
    4MOL   O401 2087   2.696   4.959   4.098 -0.2791 -0.0933 -0.3079
    4MOL   C402 2088   2.658   5.173   4.190 -0.1137  0.1025 -0.1431
    4MOL   C403 2089   2.517   5.158   4.186  0.6182  0.5830 -0.4610
    4MOL   C404 2090   2.437   5.276   4.179  0.5526  0.5661 -0.2594
    4MOL   C405 2091   2.488   5.404   4.199 -0.1314 -0.3316 -0.1947
    4MOL   C406 2092   2.395   5.520   4.196 -0.2050  0.4655  0.1241
    4MOL   O407 2093   2.274   5.506   4.192 -0.1260  0.0677  0.2621
    4MOL   C408 2094   2.632   5.416   4.213 -0.6496  0.3857 -0.7807
    4MOL   C409 2095   2.716   5.301   4.217 -0.5851 -0.0658  0.5317
    4MOL   H410 2096   2.844   4.762   4.552  0.3910 -0.8482 -1.3779
    4MOL   H411 2097   2.995   4.782   4.645  1.8139 -0.6245 -0.4002
    4MOL   H412 2098   3.090   4.888   4.446  0.1491 -2.1125 -1.3107
    4MOL   H413 2099   2.939   4.955   4.471 -0.0328  0.1588 -0.8694
    4MOL   H414 2100   3.012   4.757   4.266 -0.1692 -0.9726  0.0139
    4MOL   H415 2101   2.840   4.799   4.279 -1.0844  1.6078  0.7621
    4MOL   H416 2102   3.058   5.004   4.204 -0.3472 -0.0362  0.6356
    4MOL   H417 2103   2.951   4.936   4.095  0.6480  3.5877 -0.6034
    4MOL   H418 2104   2.474   5.061   4.169 -0.2654  0.4060  2.5187
    4MOL   H419 2105   2.330   5.265   4.165  0.8006 -3.1186  0.2272
    4MOL   H420 2106   2.671   5.517   4.221  2.4479 -0.8733  0.9530
    4MOL   H421 2107   2.821   5.317   4.233 -0.5381 -0.5497  0.7077
    4MOL   O422 2108   2.454   5.640   4.211 -1.2958  0.4813  0.3759
    4MOL   C423 2109   2.386   5.764   4.228 -0.1396  0.3153  0.2767
    4MOL   C424 2110   2.459   5.870   4.315  0.4611 -0.3867 -0.0920
    4MOL   C425 2111   2.375   6.003   4.329  0.3348  0.4204 -0.6642
    4MOL   C426 2112   2.253   6.003   4.417 -1.0012  0.2372  0.1872
    4MOL   O427 2113   2.158   5.906   4.383 -0.4220 -0.1679 -0.0572
    4MOL   C428 2114   2.039   5.940   4.343 -0.1009  0.2971 -0.3718
    4MOL   O429 2115   1.984   6.049   4.357 -0.8280 -0.7662  0.4134
    4MOL   C430 2116   1.962   5.830   4.280  0.5102  0.6239 -0.4725
    4MOL   C431 2117   2.016   5.704   4.286  0.2169  0.4763  1.2340
    4MOL   C432 2118   1.957   5.593   4.233 -0.4601 -0.0906  0.0297
    4MOL   C433 2119   1.839   5.601   4.160  0.1182 -0.7060 -0.2206
    4MOL   C434 2120   1.787   5.488   4.080  0.0139 -0.2299  0.1283
    4MOL   O435 2121   1.686   5.488   4.010 -0.0612  0.1927  0.1102
    4MOL   C436 2122   1.782   5.727   4.148  0.9268 -1.4271 -0.0948
    4MOL   C437 2123   1.832   5.842   4.217 -0.6245 -0.4872  0.8847
    4MOL   H438 2124   2.370   5.795   4.125 -1.4996  1.6001  0.8586
    4MOL   H439 2125   2.288   5.734   4.263 -1.7474  0.3793 -3.9712
    4MOL   H440 2126   2.557   5.891   4.274 -0.7327  1.2017 -2.2427
    4MOL   H441 2127   2.489   5.837   4.415 -2.0809  2.2284  1.6321
    4MOL   H442 2128   2.443   6.083   4.357 -1.1288  1.8152 -1.0116
    4MOL   H443 2129   2.351   6.039   4.228 -0.4159 -0.3345 -0.7580
    4MOL   H444 2130   2.289   5.986   4.518 -0.8900 -0.7655 -0.0147
    4MOL   H445 2131   2.216   6.105   4.424  1.7390  1.2537  0.6012
    4MOL   H446 2132   2.109   5.684   4.338  0.9046 -1.3913 -0.6576
    4MOL   H447 2133   2.014   5.503   4.251  1.4961  1.4025  1.4765
    4MOL   H448 2134   1.696   5.742   4.083  0.7602  0.2742  0.4943
    4MOL   H449 2135   1.779   5.936   4.213 -1.8262 -1.1218  1.5634
    4MOL   O450 2136   1.867   5.375   4.098  0.5351  0.8893 -0.0187
    4MOL   C451 2137   1.852   5.256   4.019  0.2490  0.6716 -0.7086
    4MOL   C452 2138   1.957   5.228   3.905 -0.2563  0.6137 -0.1693
    4MOL   C453 2139   1.946   5.080   3.863  0.6252  0.1099  0.1048
    4MOL   C454 2140   2.027   5.042   3.738  0.3581  0.5108  0.1827
    4MOL   O455 2141   2.029   4.907   3.711 -1.0859 -0.3939  0.1707
    4MOL   C456 2142   2.081   4.863   3.594 -0.3566 -0.3551  0.1620
    4MOL   O457 2143   2.113   4.938   3.501 -0.2255 -0.2555 -0.0176
    4MOL   C458 2144   2.102   4.711   3.597  0.4576 -0.3380 -0.9687
    4MOL   C459 2145   2.198   4.657   3.504 -0.4107 -0.1700  0.0284
    4MOL   C460 2146   2.234   4.524   3.516  0.0343  0.2399 -0.0891
    4MOL   C461 2147   2.167   4.433   3.600 -0.1790 -0.8744 -0.0655
    4MOL   C462 2148   2.194   4.287   3.586 -0.2652  0.4485  0.7451
    4MOL   O463 2149   2.285   4.242   3.515  0.4183  0.1049  0.2181
    4MOL   C464 2150   2.073   4.485   3.697 -0.1121  0.5567  0.0455
    4MOL   C465 2151   2.042   4.623   3.694  0.3963  0.0426 -0.0367
    4MOL   H466 2152   1.865   5.177   4.093  0.5986 -0.1743 -1.6516
    4MOL   H467 2153   1.751   5.245   3.981  0.0432 -2.1888  0.5578
    4MOL   H468 2154   2.058   5.250   3.940 -0.0615 -1.0423  0.3480
    4MOL   H469 2155   1.940   5.282   3.812  3.0031  0.1484 -1.0902
    4MOL   H470 2156   1.982   5.026   3.951 -0.8771  0.7597  1.1458
    4MOL   H471 2157   1.843   5.054   3.840  0.6023  0.6850 -0.4588
    4MOL   H472 2158   1.988   5.108   3.660 -0.3295  2.8582  2.4205
    4MOL   H473 2159   2.130   5.076   3.752  1.0161 -1.5485  0.4241
    4MOL   H474 2160   2.253   4.709   3.428 -0.6560 -1.2586 -0.9174
    4MOL   H475 2161   2.317   4.486   3.458  0.7242 -0.1838  1.1360
    4MOL   H476 2162   2.017   4.417   3.759  1.3460 -0.3257  0.4066
    4MOL   H477 2163   1.974   4.667   3.766  0.6483 -1.7093  1.3134
    4MOL   O478 2164   2.117   4.212   3.663 -0.2793  0.2554  0.3794
    4MOL   C479 2165   2.086   4.077   3.638 -0.3601  0.3700  0.4714
    4MOL   C480 2166   1.946   4.060   3.705  0.0480  0.0711  0.7084
    4MOL   C481 2167   1.836   4.135   3.638 -0.0009  0.2026  0.9292
    4MOL   C482 2168   1.718   4.153   3.731  0.4021 -0.7034 -0.0025
    4MOL   O483 2169   1.736   4.272   3.814 -0.1764  0.2324  0.3786
    4MOL   C484 2170   1.772   4.275   3.943  0.8388  0.4764 -0.1801
    4MOL   O485 2171   1.801   4.170   4.006 -0.2057 -0.6244 -0.0190
    4MOL   C486 2172   1.774   4.405   4.008 -0.1519  0.0673 -0.7618
    4MOL   C487 2173   1.760   4.521   3.933  1.2547  0.5540 -0.0562
    4MOL   C488 2174   1.758   4.648   3.998 -0.9201  0.8412 -0.1955
    4MOL   C489 2175   1.786   4.663   4.137 -0.1864  0.1147  0.6001
    4MOL   C490 2176   1.779   4.801   4.194 -0.1933 -0.1095 -0.9873
    4MOL   O491 2177   1.745   4.896   4.126  0.3745 -0.0478 -0.5408
    4MOL   C492 2178   1.798   4.545   4.211  0.6070 -0.0176  0.2647
    4MOL   C493 2179   1.793   4.412   4.149 -0.3124  0.3288  0.4870
    4MOL   H494 2180   2.074   4.061   3.531  0.9473 -0.7232  0.4763
    4MOL   H495 2181   2.165   4.008   3.667  2.3173  3.5259  0.9009
    4MOL   H496 2182   1.958   4.089   3.809 -1.3571  3.0987  0.0710
    4MOL   H497 2183   1.917   3.955   3.711  0.8053  0.0249  4.2237
    4MOL   H498 2184   1.865   4.239   3.622  1.5003 -0.6298 -2.1387
    4MOL   H499 2185   1.813   4.088   3.543  0.9416 -1.6318  1.5905
    4MOL   H500 2186   1.625   4.169   3.676  0.1602  1.2365  0.9394
    4MOL   H501 2187   1.706   4.060   3.786 -0.4361  0.7188  2.3152
    4MOL   H502 2188   1.748   4.516   3.826 -1.8163 -0.4042  0.2522
    4MOL   H503 2189   1.732   4.742   3.950 -1.5277  1.7822  1.9289
    4MOL   H504 2190   1.829   4.560   4.314 -0.4985  4.0319  0.0798
    4MOL   H505 2191   1.821   4.324   4.205  0.0592 -0.9709 -1.6692
    4MOL   O506 2192   1.800   4.809   4.325  0.3753  0.1582 -0.0008
    4MOL   C507 2193   1.758   4.922   4.401 -0.1023 -0.0549  0.0593
    4MOL   C508 2194   1.773   4.905   4.548 -0.6337 -0.2125  0.3710
    4MOL   C509 2195   1.661   4.807   4.598  0.5562 -0.3312  0.6599
    4MOL   C510 2196   1.689   4.656   4.571 -0.6414 -0.3315  1.0403
    4MOL   O511 2197   1.591   4.573   4.636  0.1227  0.4251  0.1018
    4MOL   C512 2198   1.577   4.445   4.594  0.1103 -0.6415  0.0264
    4MOL   O513 2199   1.659   4.391   4.518 -0.5217  0.7368  0.3025
    4MOL   C514 2200   1.454   4.377   4.642 -0.0987 -0.0995  0.2419
    4MOL   C515 2201   1.383   4.416   4.761 -0.7034 -0.4315  0.4507
    4MOL   C516 2202   1.252   4.362   4.783 -0.5179  0.0736 -0.5165
    4MOL   C517 2203   1.201   4.260   4.704 -0.2109 -0.6227  0.5070
    4MOL   C518 2204   1.060   4.204   4.734  0.7396 -0.2731 -0.1422
    4MOL   O519 2205   0.963   4.257   4.792 -0.0134  0.1187 -0.0767
    4MOL   C520 2206   1.278   4.209   4.603  0.8406 -0.6258  0.4076
    4MOL   C521 2207   1.402   4.268   4.569  0.6222  0.1166  0.0227
    4MOL   H522 2208   1.810   5.009   4.362  3.2034 -2.0195 -0.0732
    4MOL   H523 2209   1.657   4.947   4.369  0.3958  1.2819 -0.5164
    4MOL   H524 2210   1.752   5.003   4.591  1.5887  0.3200  0.3435
    4MOL   H525 2211   1.876   4.878   4.574 -0.2712  0.6866 -0.0959
    4MOL   H526 2212   1.635   4.837   4.699 -3.8244  1.5392 -0.9215
    4MOL   H527 2213   1.569   4.840   4.550  0.6562 -0.1279  0.6092
    4MOL   H528 2214   1.701   4.638   4.465 -1.3459  1.6205  0.6060
    4MOL   H529 2215   1.790   4.641   4.608 -1.4868 -3.0217  2.3544
    4MOL   H530 2216   1.416   4.494   4.829  0.3079  1.3154 -1.9751
    4MOL   H531 2217   1.205   4.395   4.874 -1.8518 -2.4168 -0.2551
    4MOL   H532 2218   1.234   4.138   4.535 -1.1183  3.1535 -2.4908
    4MOL   H533 2219   1.458   4.230   4.485 -2.3416 -0.4822 -1.7449
    4MOL   O534 2220   1.042   4.087   4.671 -1.0480  0.4714 -0.1511
    4MOL   C535 2221   0.937   4.008   4.701  0.3110 -0.1762  0.4242
    4MOL   C536 2222   0.961   3.914   4.824  0.7064  0.0580 -0.3756
    4MOL   C537 2223   1.076   3.818   4.786 -0.0741  0.0404 -0.0982
    4MOL   C538 2224   1.097   3.698   4.872  0.5641 -0.0265  0.2804
    4MOL   O539 2225   1.097   3.723   5.012 -0.3442  0.0432 -0.2826
    4MOL   C540 2226   1.138   3.624   5.093 -0.3198  0.0865 -1.0510
    4MOL   O541 2227   1.193   3.523   5.058  0.0086 -0.2420  0.1951
    4MOL   C542 2228   1.124   3.658   5.240  0.2464  0.2704 -1.6689
    4MOL   C543 2229   1.034   3.757   5.277  0.2605 -0.1798  0.0514
    4MOL   C544 2230   1.018   3.789   5.412 -0.6932 -0.0163  0.5375
    4MOL   C545 2231   1.100   3.728   5.510  0.2062 -0.6024  0.6988
    4MOL   C546 2232   1.077   3.761   5.649 -0.4885 -0.8743 -0.8211
    4MOL   O547 2233   0.988   3.839   5.686 -0.5742  0.7398 -0.0666
    4MOL   C548 2234   1.201   3.635   5.478 -0.2564 -0.4444 -0.0130
    4MOL   C549 2235   1.213   3.606   5.339 -0.2828  0.7296  0.2766
    4MOL   H550 2236   0.844   4.065   4.706  1.2633  1.7990 -2.8540
    4MOL   H551 2237   0.921   3.958   4.605 -2.5024 -0.7560  1.1350
    4MOL   H552 2238   0.870   3.859   4.848  0.6731  0.5805  0.7396
    4MOL   H553 2239   0.985   3.976   4.911  0.1886 -1.5811  0.9458
    4MOL   H554 2240   1.058   3.779   4.686 -1.3351  0.0459  0.1274
    4MOL   H555 2241   1.173   3.867   4.783 -0.2527  0.4397  0.4916
    4MOL   H556 2242   1.017   3.625   4.857  0.3646 -0.2682  2.3597
    4MOL   H557 2243   1.186   3.641   4.845 -0.2448 -1.4341  0.5409
    4MOL   H558 2244   0.957   3.792   5.211 -0.6767  0.8788  1.6720
    4MOL   H559 2245   0.933   3.850   5.438 -0.8500 -0.7238  1.7266
    4MOL   H560 2246   1.266   3.580   5.545 -0.0606  1.8766  1.7276
    4MOL   H561 2247   1.288   3.535   5.310  0.7226  2.0616 -0.4216
    4MOL   H562 2248   1.147   3.717   5.719 -0.7770  0.2089  0.1576
    5MOL     O1 2249   1.986   6.341   6.964 -0.6725  0.3070 -0.1393
    5MOL     C2 2250   1.995   6.204   7.001 -0.4601 -0.1189  0.2085
    5MOL     C3 2251   1.996   6.117   6.876  0.6379  0.3011 -0.2886
    5MOL     C4 2252   1.932   5.978   6.904  0.2092 -0.3642 -0.5261
    5MOL     C5 2253   1.946   5.890   6.774 -0.1538 -0.1233 -0.2177
    5MOL     O6 2254   2.090   5.867   6.767 -0.3158 -0.4240  0.0560
    5MOL     C7 2255   2.153   5.806   6.664 -0.1576 -0.3646  0.2524
    5MOL     O8 2256   2.100   5.773   6.554  0.2000 -0.4999 -0.3521
    5MOL     C9 2257   2.298   5.803   6.685  0.3330  0.4588  0.5250
    5MOL    C10 2258   2.363   5.889   6.775  0.5408  0.2066  0.9121
    5MOL    C11 2259   2.500   5.890   6.795 -0.3446 -0.7099  0.4045
    5MOL    C12 2260   2.574   5.796   6.729 -0.0603  0.1125 -0.0899
    5MOL    C13 2261   2.723   5.781   6.761 -0.0219  0.0629 -0.5612
    5MOL    O14 2262   2.802   5.712   6.696  0.3086 -0.3271 -0.2076
    5MOL    C15 2263   2.516   5.704   6.636 -0.9933  0.0260  0.1455
    5MOL    C16 2264   2.381   5.709   6.617  0.0101  0.2916 -0.7463
    5MOL    H17 2265   2.080   6.183   7.065  0.5646  0.9879 -0.7687
    5MOL    H18 2266   1.904   6.186   7.059  0.1853  0.8623  1.5760
    5MOL    H19 2267   2.100   6.102   6.846  0.9895  1.6148  0.2194
    5MOL    H20 2268   1.934   6.163   6.799  1.9446  0.8083 -1.0578
    5MOL    H21 2269   1.988   5.934   6.986  0.4207 -0.2691 -0.6193
    5MOL    H22 2270   1.834   5.971   6.951  1.0878 -0.0358  1.4142
    5MOL    H23 2271   1.899   5.793   6.794 -0.8525  0.7383  2.5494
    5MOL    H24 2272   1.916   5.942   6.683 -0.6597 -0.6158 -0.3341
    5MOL    H25 2273   2.310   5.961   6.835 -0.6199 -0.8380  1.1574
    5MOL    H26 2274   2.546   5.971   6.850 -0.1046  0.4556 -1.4464
    5MOL    H27 2275   2.572   5.625   6.587  0.2029  0.6962  0.3987
    5MOL    H28 2276   2.336   5.636   6.551 -0.2968  1.2480 -1.6166
    5MOL    H29 2277   1.952   6.390   7.038  0.3217 -1.2922  1.4162
    5MOL    O30 2278   2.767   5.862   6.863 -0.6528 -0.0335 -0.0312
    5MOL    C31 2279   2.902   5.867   6.902  0.2677  0.0520  0.1672
    5MOL    C32 2280   2.932   5.912   7.041 -0.0790  1.0143 -0.5768
    5MOL    C33 2281   2.883   6.058   7.070  0.9178  0.2117 -0.3166
    5MOL    C34 2282   2.976   6.166   7.015 -0.1234  0.5082  0.3764
    5MOL    O35 2283   2.910   6.288   7.052  0.0719 -0.0490  0.1209
    5MOL    C36 2284   2.972   6.410   7.043  1.4960  0.5350 -0.2693
    5MOL    O37 2285   3.091   6.419   7.017  0.0234 -0.2392  0.3875
    5MOL    C38 2286   2.882   6.525   7.072 -0.1209  0.1204 -0.3242
    5MOL    C39 2287   2.743   6.508   7.059  0.7550  0.0517 -0.8531
    5MOL    C40 2288   2.651   6.623   7.075  0.2742  0.4329  0.7191
    5MOL    C41 2289   2.699   6.751   7.113  0.2775  0.0250  0.0234
    5MOL    C42 2290   2.604   6.866   7.132  0.2028 -0.2943  0.1061
    5MOL    O43 2291   2.493   6.861   7.090  0.2848 -0.0326 -0.2858
    5MOL    C44 2292   2.841   6.761   7.132  0.7786 -0.1951 -0.1241
    5MOL    C45 2293   2.927   6.647   7.119 -0.2772  0.1915 -0.5442
    5MOL    H46 2294   2.940   5.766   6.888 -1.2177 -0.3082 -1.5573
    5MOL    H47 2295   2.940   5.941   6.832 -1.3553  0.9664  0.2214
    5MOL    H48 2296   3.040   5.914   7.053 -0.1748  2.1493  0.2657
    5MOL    H49 2297   2.883   5.835   7.101 -0.3537  1.8149  0.2399
    5MOL    H50 2298   2.784   6.061   7.026  1.6501  0.5220 -1.9611
    5MOL    H51 2299   2.875   6.068   7.179  0.7970  1.1397 -0.4119
    5MOL    H52 2300   3.068   6.169   7.073  0.3777 -0.0328 -0.3703
    5MOL    H53 2301   2.994   6.161   6.907 -1.0583 -0.5930  0.2690
    5MOL    H54 2302   2.701   6.412   7.033 -1.8092  0.3875  1.7872
    5MOL    H55 2303   2.545   6.616   7.054  0.0100  3.9645  0.4582
    5MOL    H56 2304   2.879   6.857   7.161 -0.0053 -0.0306  0.3900
    5MOL    H57 2305   3.032   6.650   7.142 -0.5543  1.2971  0.6823
    5MOL    O58 2306   2.668   6.963   7.202  0.1535  0.0846  0.1055
    5MOL    C59 2307   2.600   7.086   7.216 -0.0198  0.6545 -1.0229
    5MOL    C60 2308   2.681   7.192   7.150  0.0723  0.4925  0.7178
    5MOL    C61 2309   2.670   7.185   6.995  0.2271  0.2412 -0.3082
    5MOL    C62 2310   2.567   7.281   6.922  0.6357  0.4723 -0.0628
    5MOL    O63 2311   2.433   7.253   6.950  0.0762 -0.1273 -0.1076
    5MOL    C64 2312   2.372   7.332   7.032  0.5123  0.1448  0.6260
    5MOL    O65 2313   2.420   7.428   7.097 -0.1421  0.5171  0.2126
    5MOL    C66 2314   2.228   7.300   7.060  0.3860 -0.2458  0.2495
    5MOL    C67 2315   2.149   7.376   7.152 -0.2750  0.0467 -0.4143
    5MOL    C68 2316   2.015   7.351   7.177 -0.7610 -0.4084  0.0304
    5MOL    C69 2317   1.950   7.252   7.093  0.4213  0.6507 -0.8497
    5MOL    C70 2318   1.804   7.231   7.090 -0.2225 -0.4955  0.6728
    5MOL    O71 2319   1.754   7.147   7.020 -0.5723  0.2305 -0.1725
    5MOL    C72 2320   2.026   7.177   7.001 -0.1765  0.1159 -0.2270
    5MOL    C73 2321   2.168   7.199   6.982  0.1263  0.1142 -0.2985
    5MOL    H74 2322   2.502   7.080   7.170  0.7360  0.4772 -2.6564
    5MOL    H75 2323   2.589   7.114   7.321 -2.2804 -3.1434 -0.1481
    5MOL    H76 2324   2.783   7.176   7.183 -0.5364 -2.6930  1.2456
    5MOL    H77 2325   2.643   7.284   7.194  0.9004  0.9022  0.5850
    5MOL    H78 2326   2.773   7.214   6.978 -0.2792  1.1448 -1.9047
    5MOL    H79 2327   2.660   7.088   6.947  0.9818  0.2607 -0.5074
    5MOL    H80 2328   2.599   7.385   6.931  2.6084  0.1927 -3.1974
    5MOL    H81 2329   2.579   7.262   6.815 -0.2656  2.6712 -0.5658
    5MOL    H82 2330   2.204   7.455   7.201  1.5825 -0.6776 -1.2651
    5MOL    H83 2331   1.959   7.415   7.244 -0.4119 -0.4592  0.3783
    5MOL    H84 2332   1.978   7.107   6.934 -1.7214  1.4180 -0.5202
    5MOL    H85 2333   2.211   7.147   6.898 -0.4207 -1.7572  0.5679
    5MOL    O86 2334   1.737   7.297   7.189 -0.5833 -0.8282 -0.0949
    5MOL    C87 2335   1.603   7.278   7.223  0.3513  0.1619  0.1436
    5MOL    C88 2336   1.528   7.409   7.242  0.4487  0.5943 -0.1240
    5MOL    C89 2337   1.589   7.516   7.330  0.4389  0.2715 -0.3020
    5MOL    C90 2338   1.605   7.649   7.269 -0.1294 -0.0976 -0.0647
    5MOL    O91 2339   1.732   7.658   7.206 -0.0246 -0.1022 -0.0361
    5MOL    C92 2340   1.733   7.634   7.074  0.2164  0.1547 -0.5093
    5MOL    O93 2341   1.641   7.601   6.998 -0.5749  0.3068  0.5419
    5MOL    C94 2342   1.879   7.635   7.024  0.5640  0.1473 -0.2419
    5MOL    C95 2343   1.916   7.589   6.897 -0.0301  0.0531 -0.1420
    5MOL    C96 2344   2.040   7.616   6.842 -0.0043 -0.3338 -0.3273
    5MOL    C97 2345   2.140   7.677   6.920  0.1632  0.7102 -0.0159
    5MOL    C98 2346   2.284   7.683   6.877 -0.4817  0.0349 -0.0064
    5MOL    O99 2347   2.374   7.729   6.948 -0.0208 -0.5318  0.2361
    5MOL   C100 2348   2.107   7.715   7.052 -0.2366 -0.4110 -0.6418
    5MOL   C101 2349   1.975   7.699   7.101  0.3113 -0.3662 -0.3260
    5MOL   H102 2350   1.550   7.222   7.145 -0.6268 -1.8634  2.2091
    5MOL   H103 2351   1.595   7.217   7.313  3.6754 -0.6413 -0.0354
    5MOL   H104 2352   1.429   7.394   7.285  0.7674 -0.0842  0.3866
    5MOL   H105 2353   1.507   7.447   7.142  2.3964 -1.8678 -1.5500
    5MOL   H106 2354   1.533   7.536   7.421  0.7927 -0.3466  0.0592
    5MOL   H107 2355   1.685   7.487   7.373 -0.0141 -1.8657 -0.6537
    5MOL   H108 2356   1.536   7.684   7.192  1.5158  1.0184 -1.0913
    5MOL   H109 2357   1.615   7.734   7.338 -0.8320  0.3792 -0.5407
    5MOL   H110 2358   1.846   7.536   6.834 -0.3136 -0.1061  0.3034
    5MOL   H111 2359   2.053   7.560   6.750  0.2766  1.8904 -1.6637
    5MOL   H112 2360   2.178   7.778   7.103  0.0596 -0.3449 -1.1241
    5MOL   H113 2361   1.956   7.742   7.198 -0.2042 -1.7395  0.1909
    5MOL   O114 2362   2.306   7.631   6.747 -0.8026 -0.4959 -0.5779
    5MOL   C115 2363   2.437   7.608   6.701  0.1249 -0.1711  0.0065
    5MOL   C116 2364   2.439   7.494   6.598 -0.3930  0.4503  0.1391
    5MOL   C117 2365   2.589   7.477   6.561  0.1740  0.5940 -0.1961
    5MOL   C118 2366   2.606   7.362   6.464 -0.7286 -0.3165  0.2974
    5MOL   O119 2367   2.567   7.237   6.528  0.0500  0.1295 -0.1462
    5MOL   C120 2368   2.478   7.158   6.470 -0.7832  0.5808  0.7066
    5MOL   O121 2369   2.465   7.162   6.343  0.0164 -0.1768 -0.2718
    5MOL   C122 2370   2.408   7.064   6.563 -0.2269  0.3187  0.8365
    5MOL   C123 2371   2.451   7.032   6.689  0.2696 -0.5196 -0.6502
    5MOL   C124 2372   2.374   6.954   6.772 -0.3569  0.6511 -0.8231
    5MOL   C125 2373   2.262   6.888   6.727 -0.4540  0.4509  0.3914
    5MOL   C126 2374   2.193   6.793   6.824  0.1584 -0.1797  0.6411
    5MOL   O127 2375   2.085   6.745   6.797 -0.5265 -0.1724 -0.3069
    5MOL   C128 2376   2.218   6.910   6.599 -0.8065 -0.4370 -0.3451
    5MOL   C129 2377   2.289   7.002   6.516  0.0641 -0.1080 -0.7583
    5MOL   H130 2378   2.462   7.705   6.658 -1.4113  0.8559  1.4009
    5MOL   H131 2379   2.501   7.588   6.787 -2.1768 -0.9203  1.5713
    5MOL   H132 2380   2.383   7.506   6.505  0.8795  0.8208 -0.5875
    5MOL   H133 2381   2.402   7.408   6.655  2.6904 -0.3447  1.0609
    5MOL   H134 2382   2.613   7.571   6.510 -1.5467  0.0534 -2.0450
    5MOL   H135 2383   2.638   7.452   6.656 -0.7808  1.9619  0.6749
    5MOL   H136 2384   2.536   7.383   6.383 -0.0993  0.7678  0.0250
    5MOL   H137 2385   2.702   7.357   6.414  0.3019 -1.0616  2.2988
    5MOL   H138 2386   2.537   7.076   6.736 -1.3001  0.1518  1.6733
    5MOL   H139 2387   2.403   6.944   6.876 -0.7728  1.0527 -0.6650
    5MOL   H140 2388   2.134   6.854   6.560 -1.6625 -0.0036  0.8887
    5MOL   H141 2389   2.244   7.027   6.421 -2.0669  0.7946  0.4567
    5MOL   O142 2390   2.250   6.770   6.939 -0.4028 -0.6027 -0.3077
    5MOL   C143 2391   2.231   6.651   7.013 -0.3881 -0.1806  0.9230
    5MOL   C144 2392   2.146   6.671   7.134 -0.0178  0.1815  0.5811
    5MOL   C145 2393   2.199   6.772   7.233 -0.3142 -0.2626  0.0209
    5MOL   C146 2394   2.127   6.762   7.369 -0.3481  0.3258  0.0580
    5MOL   O147 2395   1.996   6.799   7.350 -0.1177  0.4551  0.1394
    5MOL   C148 2396   1.894   6.765   7.433 -0.3235 -0.6311  0.2660
    5MOL   O149 2397   1.909   6.699   7.536  0.2012  0.4534  0.4219
    5MOL   C150 2398   1.765   6.806   7.376  0.3388  0.2109  0.2675
    5MOL   C151 2399   1.751   6.887   7.257  0.4122  0.4392  0.3298
    5MOL   C152 2400   1.628   6.931   7.211 -0.1901  0.5887 -0.6858
    5MOL   C153 2401   1.513   6.891   7.281 -0.0960  0.2064 -0.4208
    5MOL   C154 2402   1.376   6.932   7.239  0.0596  0.4961  0.0509
    5MOL   O155 2403   1.277   6.876   7.283  0.2599 -0.2154  0.1772
    5MOL   C156 2404   1.529   6.817   7.405 -1.0793  0.2222 -0.0488
    5MOL   C157 2405   1.650   6.768   7.444  0.2054 -0.2911  0.6767
    5MOL   H158 2406   2.188   6.574   6.949  2.2063  0.3064 -1.4848
    5MOL   H159 2407   2.331   6.624   7.047 -0.2474  1.0258  1.5030
    5MOL   H160 2408   2.147   6.572   7.181 -0.1442 -1.1301 -2.0743
    5MOL   H161 2409   2.040   6.687   7.113  0.6144  0.7381 -2.4118
    5MOL   H162 2410   2.307   6.761   7.233 -0.2870 -0.0497  1.2640
    5MOL   H163 2411   2.184   6.875   7.202 -0.2815 -0.3128 -0.1613
    5MOL   H164 2412   2.151   6.661   7.402 -2.3279 -0.8497 -2.0242
    5MOL   H165 2413   2.164   6.835   7.441  0.2562  1.4844 -1.4076
    5MOL   H166 2414   1.838   6.917   7.201  1.9864  2.6356  3.7289
    5MOL   H167 2415   1.606   6.982   7.118  2.0991  0.7913 -1.1560
    5MOL   H168 2416   1.439   6.797   7.460 -2.9036 -2.2972 -3.7392
    5MOL   H169 2417   1.658   6.709   7.534 -2.3915  2.3462  2.7520
    5MOL   O170 2418   1.376   7.027   7.148 -0.3802  0.2917  0.5959
    5MOL   C171 2419   1.257   7.060   7.077  0.6464 -0.0626  0.7625
    5MOL   C172 2420   1.288   7.192   7.001  1.5015 -0.0748  0.2187
    5MOL   C173 2421   1.402   7.196   6.906  0.0623 -0.0876  0.0938
    5MOL   C174 2422   1.413   7.330   6.845 -0.0181 -0.8821  0.6754
    5MOL   O175 2423   1.536   7.340   6.784  0.1948  0.1767 -0.2847
    5MOL   C176 2424   1.554   7.364   6.647 -0.2085  0.1723  0.5195
    5MOL   O177 2425   1.463   7.392   6.574  0.4356 -0.3294 -0.0999
    5MOL   C178 2426   1.692   7.363   6.605  0.2501  0.3401  0.6755
    5MOL   C179 2427   1.796   7.321   6.693  0.1900 -0.2365  0.3149
    5MOL   C180 2428   1.930   7.313   6.642 -0.4993 -0.1211 -0.1273
    5MOL   C181 2429   1.959   7.356   6.510 -0.4046  0.4878  0.1042
    5MOL   C182 2430   2.096   7.340   6.461 -0.0212  0.1325  1.0476
    5MOL   O183 2431   2.190   7.302   6.528  0.0433  0.6679  0.7752
    5MOL   C184 2432   1.861   7.410   6.425 -0.3079  0.2299 -0.4673
    5MOL   C185 2433   1.727   7.408   6.475 -0.2329 -0.1114 -0.4202
    5MOL   H186 2434   1.226   6.982   7.008 -0.6226  0.8831  0.2490
    5MOL   H187 2435   1.172   7.072   7.144 -0.8545 -0.7608 -0.9685
    5MOL   H188 2436   1.306   7.269   7.076 -3.3992  0.7757  0.6601
    5MOL   H189 2437   1.203   7.228   6.943  1.5806  0.0965  0.2110
    5MOL   H190 2438   1.494   7.165   6.956 -0.1833  0.0903  0.6504
    5MOL   H191 2439   1.388   7.113   6.836 -0.1785  0.0257  0.0082
    5MOL   H192 2440   1.321   7.342   6.788 -0.0974 -0.4993  0.8819
    5MOL   H193 2441   1.423   7.401   6.928 -3.3839  0.2344  0.1840
    5MOL   H194 2442   1.780   7.284   6.793  1.7380 -2.2033 -0.1288
    5MOL   H195 2443   2.002   7.280   6.715 -1.1451 -2.7977 -0.6478
    5MOL   H196 2444   1.886   7.437   6.323 -0.2223  0.9072 -0.2719
    5MOL   H197 2445   1.649   7.445   6.410  0.4057 -1.5304 -2.0581
    5MOL   O198 2446   2.110   7.362   6.325  0.1430  0.7319 -0.4158
    5MOL   C199 2447   2.237   7.352   6.261 -0.5778 -0.1013 -0.3786
    5MOL   C200 2448   2.253   7.440   6.126 -0.0848  0.3063  0.0223
    5MOL   C201 2449   2.341   7.564   6.138 -0.9519  0.6064 -0.3259
    5MOL   C202 2450   2.490   7.520   6.132 -0.2341 -0.1927 -0.0590
    5MOL   O203 2451   2.567   7.632   6.177  0.4369  1.1377 -0.1466
    5MOL   C204 2452   2.694   7.622   6.220  0.4506  0.3461 -0.1177
    5MOL   O205 2453   2.756   7.517   6.220 -0.0397  0.4294  0.1246
    5MOL   C206 2454   2.751   7.746   6.274 -0.3054  0.6628 -0.5058
    5MOL   C207 2455   2.690   7.870   6.269 -0.2505  0.2794 -0.5897
    5MOL   C208 2456   2.744   7.979   6.337  0.4119 -0.0110  0.4697
    5MOL   C209 2457   2.871   7.975   6.392  0.2367 -0.3409  0.4275
    5MOL   C210 2458   2.945   8.097   6.442  0.2698 -0.2996  0.4817
    5MOL   O211 2459   3.057   8.088   6.496 -0.4862 -0.4405  0.2279
    5MOL   C212 2460   2.937   7.854   6.390 -0.3892 -0.1562 -0.2626
    5MOL   C213 2461   2.882   7.734   6.333 -0.0823 -0.5501  1.0940
    5MOL   H214 2462   2.317   7.374   6.332 -0.6299  1.0249 -0.6551
    5MOL   H215 2463   2.239   7.245   6.238 -1.7514 -0.9071  3.0522
    5MOL   H216 2464   2.150   7.463   6.099  0.0536  1.7208  0.6498
    5MOL   H217 2465   2.299   7.389   6.041  0.1949  1.1846 -0.3536
    5MOL   H218 2466   2.312   7.628   6.055 -0.4932  0.7126 -0.4080
    5MOL   H219 2467   2.305   7.623   6.222 -0.3186 -1.3803  1.3893
    5MOL   H220 2468   2.493   7.432   6.196  0.1052  0.1388  0.3879
    5MOL   H221 2469   2.523   7.484   6.035  1.4760  1.9735 -0.3120
    5MOL   H222 2470   2.592   7.871   6.225  0.7653 -2.0645 -3.0239
    5MOL   H223 2471   2.691   8.073   6.324 -1.0997 -0.7738  1.0233
    5MOL   H224 2472   3.035   7.841   6.434  0.2933 -2.2742 -2.3118
    5MOL   H225 2473   2.931   7.638   6.341  1.0250 -0.2981 -1.9416
    5MOL   O226 2474   2.871   0.114   6.440  0.2129  0.1332  0.1414
    5MOL   C227 2475   2.933   0.230   6.492  0.3605 -0.0806 -0.4062
    5MOL   C228 2476   2.949   0.243   6.651  0.2511 -0.1350 -0.5683
    5MOL   C229 2477   3.035   0.363   6.692  0.1687  0.0080  0.4729
    5MOL   C230 2478   3.184   0.342   6.660  0.3551 -0.4860 -0.9941
    5MOL   O231 2479   3.240   0.226   6.724  0.4929  0.0469  0.2845
    5MOL   C232 2480   3.369   0.214   6.730 -0.5848 -0.8715 -0.1913
    5MOL   O233 2481   3.445   0.285   6.668 -0.0345  0.1981  0.4055
    5MOL   C234 2482   3.420   0.109   6.815  0.2621 -0.3549 -1.6939
    5MOL   C235 2483   3.341   0.051   6.911  0.5818  0.5960  0.2222
    5MOL   C236 2484   3.392   8.054   7.001 -1.0078  0.4052  0.4181
    5MOL   C237 2485   3.528   8.018   6.993  0.1227 -0.7865 -0.2253
    5MOL   C238 2486   3.588   7.919   7.088  0.2929  0.7044  0.1066
    5MOL   O239 2487   3.704   7.874   7.079  0.1837  0.2405  0.6432
    5MOL   C240 2488   3.606   8.073   6.892 -0.1989 -0.3291  0.3945
    5MOL   C241 2489   3.555   0.065   6.800  0.4780  0.0332 -0.8505
    5MOL   H242 2490   3.026   0.249   6.440 -0.4413  1.0722 -1.4440
    5MOL   H243 2491   2.871   0.314   6.461 -1.3998 -0.4208  1.9888
    5MOL   H244 2492   2.985   0.148   6.690 -4.5124 -2.2045 -0.9338
    5MOL   H245 2493   2.850   0.260   6.692  0.4294  0.2356 -0.2888
    5MOL   H246 2494   3.002   0.437   6.620 -0.9239  0.1102  1.0695
    5MOL   H247 2495   3.012   0.391   6.795  1.1405 -0.2469  0.7668
    5MOL   H248 2496   3.205   0.344   6.553  0.0593 -0.3704 -1.0514
    5MOL   H249 2497   3.241   0.426   6.697 -0.8706 -0.6000  1.2452
    5MOL   H250 2498   3.240   0.086   6.929 -0.7236 -3.4077  1.3045
    5MOL   H251 2499   3.329   8.021   7.082  0.6271 -2.5441  0.5302
    5MOL   H252 2500   3.712   8.054   6.898 -0.1489  0.0694  0.7967
    5MOL   H253 2501   3.621   0.118   6.734  0.7680 -0.0624 -0.6363
    5MOL   O254 2502   3.503   7.880   7.197  0.4689 -0.7019  0.0172
    5MOL   C255 2503   3.553   7.803   7.302  0.1423 -0.0027  0.5557
    5MOL   C256 2504   3.429   7.732   7.363 -0.7029  0.1790 -0.4364
    5MOL   C257 2505   3.446   7.679   7.507 -0.3115  0.4361 -0.2108
    5MOL   C258 2506   3.338   7.591   7.574 -0.0477  0.0925  0.3048
    5MOL   O259 2507   3.207   7.631   7.540  0.0064 -0.2766 -0.2951
    5MOL   C260 2508   3.110   7.634   7.637  0.0845  0.0871 -0.2113
    5MOL   O261 2509   3.130   7.605   7.758  0.0667 -0.3403 -0.3170
    5MOL   C262 2510   2.977   7.678   7.590  0.5480 -0.1252  0.9424
    5MOL   C263 2511   2.956   7.707   7.451  0.2926  0.1470 -0.3162
    5MOL   C264 2512   2.831   7.749   7.407  0.4523 -0.6662  0.0506
    5MOL   C265 2513   2.728   7.771   7.497  0.2920 -0.1323 -0.0052
    5MOL   C266 2514   2.592   7.816   7.457  0.1178 -0.0153  0.1283
    5MOL   O267 2515   2.517   7.871   7.537 -0.0475  0.0129 -0.6920
    5MOL   C268 2516   2.754   7.744   7.632 -0.1273  0.1441  1.1360
    5MOL   C269 2517   2.874   7.690   7.679  0.2508  0.4285  0.1118
    5MOL   H270 2518   3.628   7.728   7.278  2.0764  2.0183  0.0731
    5MOL   H271 2519   3.588   7.870   7.380  0.5506 -1.9040  2.0130
    5MOL   H272 2520   3.403   7.648   7.298 -2.2156  0.3961 -0.1177
    5MOL   H273 2521   3.335   7.787   7.367 -2.2138 -2.3779 -0.0587
    5MOL   H274 2522   3.538   7.621   7.512 -1.0317 -0.6455  1.0096
    5MOL   H275 2523   3.460   7.766   7.571 -0.7043 -0.2974  0.8909
    5MOL   H276 2524   3.363   7.489   7.545  0.4959 -0.2399  1.8359
    5MOL   H277 2525   3.357   7.580   7.681  1.1147  0.2554  0.1192
    5MOL   H278 2526   3.040   7.690   7.386 -0.0973 -0.1524 -0.7433
    5MOL   H279 2527   2.814   7.755   7.300 -2.3371  1.7782  0.5334
    5MOL   H280 2528   2.675   7.761   7.704 -0.3439  0.9675  0.7022
    5MOL   H281 2529   2.877   7.662   7.783  0.9976 -2.9489 -0.7739
    5MOL   O282 2530   2.573   7.798   7.323 -0.2314 -0.0418 -0.3892
    5MOL   C283 2531   2.459   7.854   7.249  0.2187  0.5342 -0.1223
    5MOL   C284 2532   2.450   8.007   7.235  0.4188 -0.0471 -0.0129
    5MOL   C285 2533   2.581   8.064   7.187  0.4011 -0.7831  0.1686
    5MOL   C286 2534   2.607   8.065   7.032  0.0719  0.3369 -0.2302
    5MOL   O287 2535   2.654   7.937   6.998  0.5677  0.2905 -0.3113
    5MOL   C288 2536   2.669   7.898   6.871 -0.4345 -0.1735 -0.0841
    5MOL   O289 2537   2.624   7.969   6.776  0.5340 -0.7295 -0.2887
    5MOL   C290 2538   2.744   7.770   6.847  0.6613 -0.2362 -0.6292
    5MOL   C291 2539   2.788   7.737   6.717  0.0232  0.1015 -0.2068
    5MOL   C292 2540   2.872   7.627   6.699  1.1003  0.9546 -0.5024
    5MOL   C293 2541   2.902   7.538   6.802 -0.1805  0.8462 -0.1412
    5MOL   C294 2542   2.978   7.416   6.770 -0.0117  0.0107  0.1195
    5MOL   O295 2543   3.053   7.409   6.670 -0.1631 -0.2808 -0.3072
    5MOL   C296 2544   2.850   7.564   6.932  0.5147 -0.0414 -0.1388
    5MOL   C297 2545   2.772   7.681   6.953  0.5503  0.5633 -0.7452
    5MOL   H298 2546   2.466   7.800   7.154 -1.5006  0.1777 -0.0592
    5MOL   H299 2547   2.370   7.819   7.301  0.0973 -0.9527 -1.2977
    5MOL   H300 2548   2.417   8.055   7.327 -0.7541  0.9649 -0.9508
    5MOL   H301 2549   2.379   8.028   7.155  1.4820  0.5946 -0.8138
    5MOL   H302 2550   2.581   0.074   7.197  3.1338 -0.6855 -0.3514
    5MOL   H303 2551   2.668   8.010   7.224  0.6601 -0.8034 -0.4480
    5MOL   H304 2552   2.515   8.079   6.975  2.3639  2.6062 -3.5154
    5MOL   H305 2553   2.686   0.032   6.996  1.4358  0.6351  3.0806
    5MOL   H306 2554   2.769   7.801   6.632 -1.5232  0.3290  0.3036
    5MOL   H307 2555   2.910   7.603   6.601 -1.3127  0.1942 -1.2838
    5MOL   H308 2556   2.876   7.500   7.014 -0.1281  2.1888  1.8636
    5MOL   H309 2557   2.750   7.712   7.054  0.0733 -2.9643  0.2899
    5MOL   O310 2558   2.953   7.318   6.857 -0.2281 -0.1050 -0.0714
    5MOL   C311 2559   3.048   7.209   6.852  0.2673  0.6088  0.1839
    5MOL   C312 2560   3.179   7.259   6.916 -0.0653 -0.1816 -0.2655
    5MOL   C313 2561   3.175   7.325   7.059 -0.0305 -0.4732  0.2160
    5MOL   C314 2562   3.315   7.364   7.118 -0.4396  0.2463  0.5122
    5MOL   O315 2563   3.378   7.240   7.164  0.2667  0.6122  0.3212
    5MOL   C316 2564   3.504   7.208   7.115  0.6419  0.0457 -0.6418
    5MOL   O317 2565   3.555   7.258   7.013  0.0181  0.5340  0.0429
    5MOL   C318 2566   3.568   7.098   7.189  0.2669  0.2138 -0.0056
    5MOL   C319 2567   3.693   7.056   7.138 -0.9060  0.6108  0.3364
    5MOL   C320 2568   3.756   6.943   7.199  0.2959 -0.9799 -0.7967
    5MOL   C321 2569   3.698   6.878   7.314 -0.1033  0.2269  0.2207
    5MOL   C322 2570   3.759   6.766   7.388 -0.8564  0.2635 -0.6803
    5MOL   O323 2571   3.700   6.716   7.485 -0.0627 -0.1579 -0.5171
    5MOL   C324 2572   3.573   6.928   7.365  0.4996  0.0808 -0.4339
    5MOL   C325 2573   3.505   7.031   7.294 -0.3890  0.5341 -0.3706
    5MOL   H326 2574   3.010   7.119   6.900 -0.7935  0.0966 -1.5728
    5MOL   H327 2575   3.064   7.177   6.749  0.0995 -0.1949  0.3992
    5MOL   H328 2576   3.228   7.332   6.851  0.4622  0.1368  0.4871
    5MOL   H329 2577   3.249   7.175   6.919  1.6485  1.2445  0.7055
    5MOL   H330 2578   3.112   7.413   7.057 -0.2513 -0.6076  1.4129
    5MOL   H331 2579   3.136   7.249   7.127  1.2843 -2.1252 -0.8137
    5MOL   H332 2580   3.381   7.401   7.038 -0.2123 -0.3325  0.4307
    5MOL   H333 2581   3.315   7.437   7.199 -1.0047  1.5726 -0.6649
    5MOL   H334 2582   3.741   7.105   7.055 -1.7189  1.2058  0.2113
    5MOL   H335 2583   3.848   6.906   7.155 -0.2895 -3.6413  0.1338
    5MOL   H336 2584   3.530   6.887   7.455  1.0193 -0.6983 -0.5401
    5MOL   H337 2585   3.406   7.056   7.329 -0.3463 -1.2525  1.0942
    5MOL   O338 2586   3.887   6.746   7.364 -0.5278 -0.3684 -0.3395
    5MOL   C339 2587   3.962   6.660   7.445 -0.2148 -0.5148 -0.1449
    5MOL   C340 2588   4.109   6.649   7.405 -0.6766 -0.0963  0.7298
    5MOL   C341 2589   4.198   6.761   7.462  0.2090 -0.2919 -0.6462
    5MOL   C342 2590   4.349   6.733   7.439  0.6623 -0.1505  0.4999
    5MOL   O343 2591   4.375   6.726   7.298  0.0674 -0.5006 -0.1813
    5MOL   C344 2592   4.408   6.829   7.233 -0.3143 -0.0492  0.1143
    5MOL   O345 2593   4.471   6.926   7.283 -0.7669 -0.2583 -0.4679
    5MOL   C346 2594   4.359   6.821   7.095 -0.7551 -0.0713 -0.2778
    5MOL   C347 2595   4.266   6.726   7.049  0.5292 -0.4172  0.4526
    5MOL   C348 2596   4.227   6.730   6.914  0.2719  0.1297 -0.0199
    5MOL   C349 2597   4.256   6.840   6.831 -0.7228 -0.0666 -0.2812
    5MOL   C350 2598   4.200   6.846   6.692 -0.2286 -0.4536 -0.5543
    5MOL   O351 2599   4.255   6.909   6.602  0.0028 -0.5566  0.3744
    5MOL   C352 2600   4.341   6.944   6.884  0.7337  0.2082 -0.4883
    5MOL   C353 2601   4.399   6.931   7.008 -0.0319  0.4373  0.3336
    5MOL   H354 2602   3.953   6.693   7.549  0.5809  0.0551 -0.2538
    5MOL   H355 2603   3.916   6.562   7.437 -0.8845 -0.0403 -2.4608
    5MOL   H356 2604   4.131   6.654   7.298  0.5858 -0.4792  0.9622
    5MOL   H357 2605   4.146   6.556   7.446  2.0537  1.3457  1.6745
    5MOL   H358 2606   4.172   6.856   7.417  0.9177  0.3284  0.2307
    5MOL   H359 2607   4.173   6.784   7.566  1.2455 -0.4495 -0.3657
    5MOL   H360 2608   4.410   6.814   7.480 -2.1207  1.1265  2.2257
    5MOL   H361 2609   4.381   6.637   7.479  1.4125  0.0317  0.3581
    5MOL   H362 2610   4.239   6.643   7.111 -1.1033 -2.1314 -2.4437
    5MOL   H363 2611   4.174   6.650   6.864  0.2951 -0.1630  0.4182
    5MOL   H364 2612   4.372   7.028   6.823  1.5468  0.9478  0.9016
    5MOL   H365 2613   4.474   7.005   7.032 -1.4838  1.8735  0.5791
    5MOL   O366 2614   4.092   6.769   6.665 -0.0069 -0.0439 -0.6694
    5MOL   C367 2615   4.011   6.787   6.554  0.6841 -0.3419  0.2607
    5MOL   C368 2616   3.889   6.868   6.593  0.1841 -0.1961 -0.2902
    5MOL   C369 2617   3.789   6.793   6.681 -0.4872 -0.4630  0.2943
    5MOL   C370 2618   3.663   6.877   6.692  0.6354 -0.1730  0.2741
    5MOL   O371 2619   3.600   6.873   6.561 -0.1137 -0.5052 -0.2559
    5MOL   C372 2620   3.480   6.933   6.538 -0.0136 -0.4474  0.1618
    5MOL   O373 2621   3.413   6.987   6.628  0.1318  0.3701 -0.2349
    5MOL   C374 2622   3.430   6.905   6.401  0.4479 -0.6515 -0.5639
    5MOL   C375 2623   3.298   6.940   6.364  0.1020  0.1975 -0.1852
    5MOL   C376 2624   3.252   6.923   6.233  0.3095 -0.5866  0.3837
    5MOL   C377 2625   3.335   6.878   6.131  0.3257 -0.5543 -0.2174
    5MOL   C378 2626   3.285   6.865   5.988  0.3954  0.4680  0.2633
    5MOL   O379 2627   3.361   6.852   5.897 -0.2215  0.2803  0.4900
    5MOL   C380 2628   3.470   6.852   6.165  0.2706  0.3613 -0.4056
    5MOL   C381 2629   3.514   6.850   6.302  0.3133  0.4277  0.5871
    5MOL   H382 2630   4.063   6.838   6.473  1.2786  0.4838  1.1427
    5MOL   H383 2631   3.975   6.689   6.522  0.8049  0.5207 -2.5910
    5MOL   H384 2632   3.843   6.891   6.497  1.1460  0.3935 -0.6060
    5MOL   H385 2633   3.907   6.967   6.633 -0.4114 -0.3175  0.2989
    5MOL   H386 2634   3.770   6.690   6.652 -1.0785 -0.9565  2.3488
    5MOL   H387 2635   3.833   6.789   6.781  0.9443 -1.6167 -0.3576
    5MOL   H388 2636   3.600   6.831   6.768  1.3376  0.0623  1.0026
    5MOL   H389 2637   3.683   6.982   6.715  0.0657 -0.1139  0.5020
    5MOL   H390 2638   3.236   6.991   6.436 -3.0370 -2.0461 -1.1793
    5MOL   H391 2639   3.152   6.959   6.214  0.6496  0.4315  0.5293
    5MOL   H392 2640   3.532   6.802   6.092 -2.4370  0.1576 -2.6343
    5MOL   H393 2641   3.617   6.823   6.321 -0.5130 -3.1537  0.2955
    5MOL   O394 2642   3.148   6.851   5.980  0.0300 -0.0882 -0.1062
    5MOL   C395 2643   3.091   6.805   5.864  0.7484  0.0610  0.0881
    5MOL   C396 2644   2.957   6.739   5.919 -0.4303  0.0986 -0.1987
    5MOL   C397 2645   2.852   6.711   5.808 -0.6299 -0.0724  0.1907
    5MOL   C398 2646   2.889   6.593   5.716  0.1722 -0.6319  0.1779
    5MOL   O399 2647   2.977   6.647   5.618 -0.5040  0.4296  0.3770
    5MOL   C400 2648   2.953   6.612   5.494 -0.8834 -0.3092 -0.1508
    5MOL   O401 2649   2.857   6.536   5.461 -0.1132 -0.0479 -0.2663
    5MOL   C402 2650   3.058   6.650   5.392 -0.5476  0.1686 -0.0621
    5MOL   C403 2651   3.187   6.677   5.427  0.0653 -0.2176  0.3174
    5MOL   C404 2652   3.280   6.711   5.328 -0.3733  0.1816  1.3062
    5MOL   C405 2653   3.241   6.708   5.189 -0.6006  0.2543  0.3854
    5MOL   C406 2654   3.344   6.737   5.080 -1.7470 -0.5298  0.0265
    5MOL   O407 2655   3.464   6.762   5.106  0.5957  0.0742  0.2711
    5MOL   C408 2656   3.106   6.680   5.151  0.3350  0.1657  0.9254
    5MOL   C409 2657   3.016   6.668   5.261  0.3235  0.2497 -0.3180
    5MOL   H410 2658   3.077   6.880   5.786  0.5119  0.9515  0.9840
    5MOL   H411 2659   3.153   6.737   5.805 -2.3365 -2.8737  0.1071
    5MOL   H412 2660   2.920   6.793   6.006  0.3690  1.0502 -0.4425
    5MOL   H413 2661   2.977   6.641   5.962  4.3532  1.7000  1.5203
    5MOL   H414 2662   2.758   6.698   5.862 -1.1330  1.6057 -0.2496
    5MOL   H415 2663   2.842   6.800   5.746  1.9828 -1.2643 -2.0435
    5MOL   H416 2664   2.930   6.511   5.775  0.0887  0.2206  1.4476
    5MOL   H417 2665   2.788   6.564   5.688  0.0191  1.7430 -1.8577
    5MOL   H418 2666   3.229   6.673   5.527 -0.3846 -0.0991  0.5122
    5MOL   H419 2667   3.381   6.741   5.352  0.5600 -0.6837 -1.4021
    5MOL   H420 2668   3.075   6.686   5.048 -0.5192  1.9915  1.2603
    5MOL   H421 2669   2.913   6.645   5.239  0.2813  0.4373 -0.3159
    5MOL   O422 2670   3.302   6.735   4.958  0.5165 -0.2682  0.1493
    5MOL   C423 2671   3.392   6.731   4.847  0.1148  0.2841 -0.4417
    5MOL   C424 2672   3.312   6.713   4.715 -0.7628 -0.7627 -0.2658
    5MOL   C425 2673   3.224   6.836   4.684 -0.3456 -0.6083 -0.0904
    5MOL   C426 2674   3.294   6.969   4.645  0.1925  0.3610  0.7528
    5MOL   O427 2675   3.348   7.034   4.758  0.4172  0.8973  0.2140
    5MOL   C428 2676   3.432   7.135   4.745  0.6665  0.3918  0.7800
    5MOL   O429 2677   3.435   7.202   4.640 -1.1241  0.4381  0.1305
    5MOL   C430 2678   3.515   7.158   4.864  0.3247 -0.4969 -0.1031
    5MOL   C431 2679   3.611   7.265   4.870 -0.6866  0.5676  0.0902
    5MOL   C432 2680   3.694   7.285   4.983  0.7206  0.4156 -0.3129
    5MOL   C433 2681   3.673   7.197   5.089  0.0477  0.8713 -0.1109
    5MOL   C434 2682   3.747   7.221   5.214  0.9864 -0.6587 -0.6405
    5MOL   O435 2683   3.747   7.139   5.310 -0.6518  0.4657  0.3214
    5MOL   C436 2684   3.575   7.100   5.094  0.1582  0.1200 -0.3453
    5MOL   C437 2685   3.496   7.074   4.981  0.2034  0.0412 -0.2251
    5MOL   H438 2686   3.444   6.827   4.842 -1.2863  1.3843  3.6603
    5MOL   H439 2687   3.460   6.647   4.856 -1.4567 -0.8248  1.7478
    5MOL   H440 2688   3.250   6.624   4.712 -1.7734 -0.1651  2.0830
    5MOL   H441 2689   3.379   6.697   4.631  0.7153 -0.6288  0.8775
    5MOL   H442 2690   3.155   6.807   4.605 -4.2272  1.1290  2.4883
    5MOL   H443 2691   3.160   6.873   4.764  0.6324 -0.0135  0.4269
    5MOL   H444 2692   3.366   6.957   4.564 -0.7826  0.0906 -0.0883
    5MOL   H445 2693   3.212   7.030   4.607 -0.0435 -1.1222 -1.2213
    5MOL   H446 2694   3.617   7.338   4.791  3.9475 -0.5490 -0.7413
    5MOL   H447 2695   3.766   7.365   4.987  1.4826 -0.2274 -0.9454
    5MOL   H448 2696   3.561   7.048   5.188  1.2929 -1.9253 -1.2942
    5MOL   H449 2697   3.416   7.002   4.994  0.1006  0.4927  1.7979
    5MOL   O450 2698   3.800   7.346   5.220  0.5257 -0.3285 -0.0111
    5MOL   C451 2699   3.897   7.377   5.320 -0.1485  0.3322 -0.0602
    5MOL   C452 2700   3.918   7.525   5.335  0.0770 -0.2089  0.9816
    5MOL   C453 2701   3.792   7.608   5.362 -0.5602 -0.4342  0.4117
    5MOL   C454 2702   3.693   7.548   5.462 -0.3242  0.2009 -0.2671
    5MOL   O455 2703   3.743   7.537   5.594  0.2289  0.3217  0.3328
    5MOL   C456 2704   3.709   7.432   5.668  1.3036 -0.6967  0.2091
    5MOL   O457 2705   3.615   7.354   5.643  0.0214 -0.2114  0.6824
    5MOL   C458 2706   3.779   7.427   5.797  0.5873 -0.2060  0.4303
    5MOL   C459 2707   3.716   7.370   5.909 -0.3358 -0.2923  0.3406
    5MOL   C460 2708   3.775   7.387   6.035  0.0060  0.0055 -0.4448
    5MOL   C461 2709   3.903   7.446   6.046 -0.2287 -0.6493 -0.5053
    5MOL   C462 2710   3.954   7.459   6.185 -0.1783 -0.0761  0.0862
    5MOL   O463 2711   3.913   7.391   6.281 -0.0936  0.2267 -0.8298
    5MOL   C464 2712   3.976   7.485   5.930 -1.0218 -0.0511 -0.6141
    5MOL   C465 2713   3.908   7.477   5.807 -0.1088  0.0834  0.1452
    5MOL   H466 2714   3.878   7.330   5.416  4.2351 -1.4881  0.0441
    5MOL   H467 2715   3.992   7.336   5.285 -0.0620  1.0962 -0.7320
    5MOL   H468 2716   3.974   7.563   5.250 -3.7653  1.1013 -1.0900
    5MOL   H469 2717   3.992   7.542   5.414 -0.4845  0.5068  1.3559
    5MOL   H470 2718   3.829   7.703   5.399 -1.0331 -1.0453  2.4911
    5MOL   H471 2719   3.732   7.639   5.276  0.9615  0.1927 -0.4452
    5MOL   H472 2720   3.614   7.622   5.476  0.2033  0.3434  2.1814
    5MOL   H473 2721   3.655   7.452   5.426 -0.8669 -0.3498  1.6654
    5MOL   H474 2722   3.616   7.337   5.888  0.1452 -0.6904 -1.4532
    5MOL   H475 2723   3.715   7.349   6.117  1.3813 -1.6342 -0.1909
    5MOL   H476 2724   4.070   7.538   5.941  0.1118 -2.2542  0.6119
    5MOL   H477 2725   3.959   7.540   5.736 -1.8890  1.0520 -0.2946
    5MOL   O478 2726   4.053   7.549   6.203  0.4203 -0.4169 -0.0863
    5MOL   C479 2727   4.095   7.584   6.337 -0.5810  0.1847  0.1858
    5MOL   C480 2728   4.225   7.515   6.371  0.1396  0.4201 -0.6456
    5MOL   C481 2729   4.302   7.563   6.492 -0.4144 -1.0271 -0.7381
    5MOL   C482 2730   4.335   7.711   6.502  0.5823  0.0863 -0.5224
    5MOL   O483 2731   4.419   7.751   6.397 -0.2924  0.2313 -0.1593
    5MOL   C484 2732   4.448   7.879   6.369  0.2294 -0.2435  0.3522
    5MOL   O485 2733   4.411   7.976   6.432 -0.1678 -0.0241  0.0016
    5MOL   C486 2734   4.534   7.880   6.248 -0.6500 -0.7720 -1.1792
    5MOL   C487 2735   4.576   7.766   6.175  0.0618 -0.1088  0.0487
    5MOL   C488 2736   4.652   7.780   6.055  0.2412 -0.5773  0.4703
    5MOL   C489 2737   4.707   7.903   6.010  0.3390 -0.4881  0.2712
    5MOL   C490 2738   4.784   7.928   5.879 -0.1237 -0.1082  0.8808
    5MOL   O491 2739   4.863   8.021   5.862  0.1949 -0.5407  0.4564
    5MOL   C492 2740   4.682   8.014   6.097 -0.1709  0.1306 -0.1197
    5MOL   C493 2741   4.589   8.007   6.207  0.0780  0.2754 -0.7722
    5MOL   H494 2742   4.111   7.692   6.340 -0.8821  0.1999  1.2176
    5MOL   H495 2743   4.022   7.552   6.411 -0.1376 -0.8635  0.1741
    5MOL   H496 2744   4.297   7.524   6.290 -0.5020 -0.1944 -1.2844
    5MOL   H497 2745   4.191   7.411   6.379  0.3169  0.5628  2.6677
    5MOL   H498 2746   4.258   7.533   6.587 -0.0048  0.8502  0.0793
    5MOL   H499 2747   4.393   7.505   6.484  0.0930 -0.4618  0.7710
    5MOL   H500 2748   4.245   7.772   6.492 -0.1820 -0.6353  1.7262
    5MOL   H501 2749   4.380   7.727   6.599  1.1140  0.6825 -0.8688
    5MOL   H502 2750   4.529   7.674   6.206 -1.6408  0.2958 -1.2787
    5MOL   H503 2751   4.659   7.694   5.990  0.7092  1.0009 -1.6357
    5MOL   H504 2752   4.732   0.007   6.070 -2.1351  0.7549 -1.7839
    5MOL   H505 2753   4.565   0.001   6.256  0.0216 -0.2959  0.3083
    5MOL   O506 2754   4.774   7.826   5.795  0.4366  0.8797 -0.0400
    5MOL   C507 2755   4.853   7.809   5.679  0.5388  0.1165  0.3899
    5MOL   C508 2756   4.754   7.804   5.560  0.0947 -0.2134  0.2741
    5MOL   C509 2757   4.661   7.686   5.561 -0.3423  0.0561  0.3246
    5MOL   C510 2758   4.550   7.690   5.671  0.8623  0.4832 -0.6727
    5MOL   O511 2759   4.474   7.574   5.649  0.2274  0.0120  0.0439
    5MOL   C512 2760   4.385   7.525   5.738 -0.4738 -0.0062  1.1139
    5MOL   O513 2761   4.379   7.569   5.856  0.1611  0.3230 -0.0631
    5MOL   C514 2762   4.296   7.418   5.690  0.5741  0.1543  0.2520
    5MOL   C515 2763   4.279   7.397   5.552 -0.1985  0.8775 -0.5944
    5MOL   C516 2764   4.201   7.287   5.502 -0.0561  0.1502  0.1646
    5MOL   C517 2765   4.129   7.208   5.596  0.4091  0.4872 -0.3947
    5MOL   C518 2766   4.050   7.090   5.552  0.2387 -0.0146  0.1953
    5MOL   O519 2767   3.991   7.016   5.627  0.0828  0.0841 -0.9351
    5MOL   C520 2768   4.142   7.235   5.737  0.1997  0.3474  0.3927
    5MOL   C521 2769   4.231   7.335   5.787  1.0752 -0.0256  0.1969
    5MOL   H522 2770   4.922   7.892   5.661  1.2644 -0.6769 -0.5728
    5MOL   H523 2771   4.901   7.715   5.706 -1.7107 -0.5375  2.1930
    5MOL   H524 2772   4.819   7.808   5.472 -0.5065 -0.9013 -0.2006
    5MOL   H525 2773   4.697   7.897   5.558 -1.1064 -0.8829  1.9342
    5MOL   H526 2774   4.605   7.682   5.468 -1.0758  0.1650  0.7622
    5MOL   H527 2775   4.717   7.593   5.573  1.8822  1.3091 -0.1251
    5MOL   H528 2776   4.604   7.691   5.765 -1.7782 -3.2878  0.9859
    5MOL   H529 2777   4.489   7.780   5.675 -0.0850 -0.2745  2.9305
    5MOL   H530 2778   4.335   7.457   5.483 -1.8385  3.1315 -0.0437
    5MOL   H531 2779   4.196   7.273   5.395  1.7759  0.7008 -0.0048
    5MOL   H532 2780   4.102   7.167   5.811 -2.7976 -0.5936 -1.9588
    5MOL   H533 2781   4.246   7.341   5.894 -0.0454  1.1678  0.2895
    5MOL   O534 2782   4.054   7.073   5.425  0.5061 -0.2511 -0.1652
    5MOL   C535 2783   3.988   6.959   5.367  0.2691  0.1221 -0.0184
    5MOL   C536 2784   4.032   6.962   5.223  0.3149 -0.0859  0.2178
    5MOL   C537 2785   3.980   6.850   5.135  0.7701 -0.1923 -0.0253
    5MOL   C538 2786   3.835   6.861   5.090  0.2449 -0.0721  0.6754
    5MOL   O539 2787   3.822   6.790   4.969 -0.4105 -0.3352 -0.2311
    5MOL   C540 2788   3.845   6.844   4.853 -0.2351  0.3812 -0.4378
    5MOL   O541 2789   3.888   6.956   4.834  0.6180  0.4266  0.1783
    5MOL   C542 2790   3.806   6.752   4.743 -0.0023 -0.1436  0.5118
    5MOL   C543 2791   3.836   6.788   4.613  0.3992 -0.1855 -0.8084
    5MOL   C544 2792   3.800   6.706   4.505 -0.0907  0.2747 -0.6669
    5MOL   C545 2793   3.730   6.587   4.520 -0.1345 -0.3311 -0.2312
    5MOL   C546 2794   3.687   6.512   4.402 -0.4533 -0.2412 -0.3055
    5MOL   O547 2795   3.726   6.534   4.287 -0.3931  0.2963 -0.1491
    5MOL   C548 2796   3.708   6.547   4.654 -0.3150 -0.1598 -0.3308
    5MOL   C549 2797   3.751   6.625   4.766  0.5648  0.0847  0.4777
    5MOL   H550 2798   4.012   6.872   5.428  0.0276  1.7166  2.3858
    5MOL   H551 2799   3.879   6.964   5.368  0.2896  0.4322  1.3918
    5MOL   H552 2800   4.141   6.975   5.225  0.0198  3.1251 -1.0939
    5MOL   H553 2801   3.994   7.057   5.185 -0.4765 -0.3196  0.4219
    5MOL   H554 2802   4.035   6.846   5.041 -0.9957  1.2102 -1.1536
    5MOL   H555 2803   4.008   6.755   5.181  0.2345  0.2930  1.3270
    5MOL   H556 2804   3.764   6.817   5.160 -1.7842 -1.1068 -1.9383
    5MOL   H557 2805   3.810   6.966   5.074  1.6013 -0.0464 -1.5191
    5MOL   H558 2806   3.891   6.878   4.589  1.6454 -0.2436  1.7203
    5MOL   H559 2807   3.837   6.739   4.409 -0.0727 -2.8006 -1.7802
    5MOL   H560 2808   3.659   6.453   4.673  1.1657 -0.8274  0.2136
    5MOL   H561 2809   3.733   6.590   4.867 -0.9430  1.5832  0.7413
    5MOL   H562 2810   3.629   6.423   4.426 -0.3360 -0.2600 -0.0924
    6MOL     O1 2811   0.015   7.191   3.907 -0.0722 -0.1982  0.0574
    6MOL     C2 2812   0.052   7.064   3.967  0.3948 -0.2612 -0.4922
    6MOL     C3 2813   0.067   6.950   3.861  0.5276  0.7301 -0.3030
    6MOL     C4 2814   0.092   6.816   3.944 -0.8940 -0.2117  0.2731
    6MOL     C5 2815   8.088   6.782   4.053  0.2362 -0.1234 -0.6928
    6MOL     O6 2816   0.006   6.843   4.178 -0.2279 -0.0542 -0.1000
    6MOL     C7 2817   8.054   6.785   4.289  0.4354 -0.0149 -0.7399
    6MOL     O8 2818   7.978   6.688   4.286 -0.2525  0.3581  0.2818
    6MOL     C9 2819   8.097   6.854   4.411  0.2595  0.3130 -0.4364
    6MOL    C10 2820   0.104   6.946   4.411  0.6478 -0.7219 -0.4044
    6MOL    C11 2821   0.138   7.011   4.532  0.4113  0.2964  0.3107
    6MOL    C12 2822   0.081   6.978   4.654  0.0904  0.4735 -0.5167
    6MOL    C13 2823   0.136   7.033   4.781 -0.2032 -0.4739  0.2054
    6MOL    O14 2824   0.090   6.998   4.890  0.4513 -0.0272 -0.0033
    6MOL    C15 2825   8.073   6.890   4.658  0.0132 -0.0016  0.0899
    6MOL    C16 2826   8.031   6.828   4.539 -0.3700  0.0270 -0.2098
    6MOL    H17 2827   0.150   7.084   4.011  0.2579 -2.3105  0.8462
    6MOL    H18 2828   8.080   7.041   4.047  0.3468 -2.1034 -1.0465
    6MOL    H19 2829   0.158   6.969   3.804  0.7587  1.1301  0.1981
    6MOL    H20 2830   8.084   6.942   3.788 -1.6806  0.2010  2.1703
    6MOL    H21 2831   0.088   6.743   3.864  0.7846 -0.7143  0.6200
    6MOL    H22 2832   0.196   6.816   3.976 -1.4569 -0.7623  2.1805
    6MOL    H23 2833   7.988   6.800   4.013 -0.2628  0.8970  0.9754
    6MOL    H24 2834   0.007   6.675   4.063 -2.4694 -0.4698  0.5623
    6MOL    H25 2835   0.137   6.990   4.318  2.5965 -2.5606 -0.6238
    6MOL    H26 2836   0.221   7.080   4.529 -0.5882  1.4514 -1.8760
    6MOL    H27 2837   8.043   6.859   4.757  1.3522  0.5222  0.6819
    6MOL    H28 2838   7.963   6.744   4.544  1.3710 -1.3281  1.4450
    6MOL    H29 2839   0.055   7.266   3.949  0.3184 -0.5785  0.3726
    6MOL    O30 2840   0.240   7.113   4.770  0.1946  0.4580  0.1431
    6MOL    C31 2841   0.291   7.187   4.881 -0.5549 -0.0072  0.3809
    6MOL    C32 2842   0.370   7.313   4.848 -0.2278 -0.0580  0.1901
    6MOL    C33 2843   0.413   7.392   4.978  0.1458 -0.0636  0.1424
    6MOL    C34 2844   0.495   7.518   4.954  0.0398 -0.2077 -0.2192
    6MOL    O35 2845   0.400   7.615   4.924 -0.4590 -0.5706  0.0491
    6MOL    C36 2846   0.389   7.667   4.797  0.1232 -0.1220  0.9711
    6MOL    O37 2847   0.448   7.629   4.695  0.0460 -0.0823  0.0209
    6MOL    C38 2848   0.281   7.770   4.794 -0.0469  0.1112 -0.0325
    6MOL    C39 2849   0.275   7.836   4.668 -0.1929 -0.3483 -0.1553
    6MOL    C40 2850   0.180   7.940   4.647 -0.2557 -0.1501  0.5842
    6MOL    C41 2851   0.092   7.973   4.749  0.4245 -0.4472 -0.4165
    6MOL    C42 2852   8.083   8.078   4.718 -0.1263 -0.1714  0.2290
    6MOL    O43 2853   8.004   0.027   4.804 -0.3511  0.1738  0.2210
    6MOL    C44 2854   0.100   7.903   4.875 -0.0736  0.4457 -0.0234
    6MOL    C45 2855   0.190   7.798   4.899  0.6173  1.1504  0.0892
    6MOL    H46 2856   0.204   7.222   4.938 -0.5703 -1.0909  1.0288
    6MOL    H47 2857   0.347   7.123   4.948 -1.5538 -0.7417  0.5235
    6MOL    H48 2858   0.305   7.374   4.786  1.7865 -0.3179 -2.2632
    6MOL    H49 2859   0.459   7.292   4.789 -0.7401  0.1228 -0.6537
    6MOL    H50 2860   0.328   7.411   5.042 -0.6819  1.1228 -1.2687
    6MOL    H51 2861   0.483   7.328   5.032 -0.0392  0.0853  0.5612
    6MOL    H52 2862   0.559   7.547   5.037  0.0507 -1.4561  0.2238
    6MOL    H53 2863   0.569   7.514   4.874  0.5492 -0.5949  0.2678
    6MOL    H54 2864   0.347   7.818   4.589 -1.3726  0.2335 -1.3700
    6MOL    H55 2865   0.189   7.984   4.549 -0.3003 -0.0479  0.6264
    6MOL    H56 2866   0.033   7.923   4.957  1.9188  1.3194  1.4372
    6MOL    H57 2867   0.196   7.755   4.998 -0.1849  0.6687 -0.0750
    6MOL    O58 2868   8.068   0.003   4.586 -0.3813  0.4781 -0.4013
    6MOL    C59 2869   7.970   0.094   4.542  0.1142  0.4834 -0.5421
    6MOL    C60 2870   7.915   0.044   4.411  0.1283 -0.3852  0.8229
    6MOL    C61 2871   7.793   0.123   4.350 -0.9853 -0.1643 -0.1516
    6MOL    C62 2872   7.763   0.085   4.206 -0.4066  0.4726 -0.0481
    6MOL    O63 2873   7.680   0.177   4.138  0.1817 -0.5273  0.5462
    6MOL    C64 2874   7.657   0.158   4.013  0.9253  0.1348  0.0877
    6MOL    O65 2875   7.716   0.072   3.946 -0.4670  0.0814 -0.5477
    6MOL    C66 2876   7.550   0.258   3.958 -0.3001 -1.0577 -0.1523
    6MOL    C67 2877   7.522   0.262   3.820 -0.2776  0.1427 -0.2194
    6MOL    C68 2878   7.429   0.354   3.779 -0.3331 -0.5820 -0.0932
    6MOL    C69 2879   7.360   0.436   3.867  0.0370  0.6455 -0.0406
    6MOL    C70 2880   7.247   0.524   3.827 -0.1644  0.4637  0.2995
    6MOL    O71 2881   7.172   0.487   3.741 -0.2651  0.2642  0.8735
    6MOL    C72 2882   7.390   0.433   4.003  0.2942  0.3026 -0.7239
    6MOL    C73 2883   7.487   0.345   4.047  0.5504  0.5391 -0.5559
    6MOL    H74 2884   7.894   0.114   4.618  0.0799  0.1888 -0.5007
    6MOL    H75 2885   8.018   0.187   4.509 -2.9320  1.4290 -2.5029
    6MOL    H76 2886   7.887   8.037   4.423  1.1224 -0.5504  1.6735
    6MOL    H77 2887   8.002   0.053   4.347  0.1500 -1.5768  0.6667
    6MOL    H78 2888   7.704   0.114   4.413 -0.6211  0.1306  0.4079
    6MOL    H79 2889   7.822   0.228   4.356  0.3057 -0.5948  1.3869
    6MOL    H80 2890   7.863   0.091   4.164 -0.8396 -0.6101 -1.2531
    6MOL    H81 2891   7.726   8.081   4.202 -1.3954  0.6854  2.3936
    6MOL    H82 2892   7.569   0.194   3.750 -0.0033 -0.4303  0.5162
    6MOL    H83 2893   7.391   0.337   3.679 -0.2726 -0.9394 -0.0535
    6MOL    H84 2894   7.357   0.502   4.080  2.5067 -1.0551  1.5125
    6MOL    H85 2895   7.514   0.337   4.151 -1.6418 -1.9257 -0.1055
    6MOL    O86 2896   7.252   0.644   3.889 -0.5510  0.5718 -0.2592
    6MOL    C87 2897   7.149   0.738   3.874  0.1719 -0.9218  0.1018
    6MOL    C88 2898   7.135   0.842   3.990 -0.0380  0.4287  0.6044
    6MOL    C89 2899   7.134   0.778   4.118  0.0019 -0.1981  0.9405
    6MOL    C90 2900   7.111   0.889   4.225 -0.2051 -0.1013  0.2558
    6MOL    O91 2901   6.987   0.948   4.217  0.4327  0.6341  0.3954
    6MOL    C92 2902   6.976   1.069   4.260  0.1735 -0.0074  0.2709
    6MOL    O93 2903   7.069   1.133   4.311 -0.6778 -0.1117 -0.2632
    6MOL    C94 2904   6.839   1.125   4.253 -0.1935 -0.2428  0.3100
    6MOL    C95 2905   6.794   1.218   4.347 -0.0231  0.2289 -0.1954
    6MOL    C96 2906   6.659   1.266   4.334 -0.6691  0.4525  0.3677
    6MOL    C97 2907   6.572   1.223   4.233  0.6954 -0.2171  0.8566
    6MOL    C98 2908   6.436   1.272   4.222  0.0455 -0.2291  0.0329
    6MOL    O99 2909   6.391   1.351   4.306 -0.2683 -0.2082  0.1522
    6MOL   C100 2910   6.622   1.126   4.138  0.4412  0.4927 -0.0598
    6MOL   C101 2911   6.753   1.082   4.146  0.2364  0.2356 -0.1475
    6MOL   H102 2912   7.155   0.772   3.771  0.7951 -0.5349  0.2626
    6MOL   H103 2913   7.052   0.689   3.874 -0.4794  0.3231  0.5880
    6MOL   H104 2914   7.042   0.898   3.979  0.0128  1.0183  2.9035
    6MOL   H105 2915   7.208   0.924   3.986 -0.5007  1.0471  3.5922
    6MOL   H106 2916   7.046   0.714   4.112 -0.1900  0.2793 -2.4847
    6MOL   H107 2917   7.224   0.718   4.133  1.5518  1.1972 -2.3356
    6MOL   H108 2918   7.118   0.843   4.324 -0.2124  0.9287  0.7456
    6MOL   H109 2919   7.201   0.949   4.217 -0.1840  0.1604  2.1288
    6MOL   H110 2920   6.847   1.233   4.440  1.0814  0.5028 -0.8629
    6MOL   H111 2921   6.630   1.328   4.418  1.8330  3.1170 -0.6161
    6MOL   H112 2922   6.557   1.091   4.059  2.1434 -1.2366 -0.7333
    6MOL   H113 2923   6.786   1.016   4.067  1.5921  0.1649  0.4652
    6MOL   O114 2924   6.364   1.238   4.120  0.5655 -0.2073 -0.6238
    6MOL   C115 2925   6.236   1.298   4.093 -0.1973  0.1719  0.3432
    6MOL   C116 2926   6.123   1.270   4.194  0.0614 -0.0757 -0.0383
    6MOL   C117 2927   5.991   1.322   4.135  0.7974 -0.6301  0.2266
    6MOL   C118 2928   5.869   1.298   4.232 -0.5478 -0.3462 -0.3659
    6MOL   O119 2929   5.878   1.388   4.341 -0.6300 -0.0386  0.5889
    6MOL   C120 2930   5.789   1.376   4.437  1.0380 -0.1291 -0.6359
    6MOL   O121 2931   5.696   1.294   4.424  0.3828 -0.6251  0.2335
    6MOL   C122 2932   5.809   1.455   4.554  1.2870  0.1162 -0.3390
    6MOL   C123 2933   5.880   1.574   4.551 -0.3392  0.3892 -0.3173
    6MOL   C124 2934   5.918   1.646   4.669 -0.5054 -0.7594  0.2752
    6MOL   C125 2935   5.865   1.601   4.796 -0.3605  0.4263  0.0314
    6MOL   C126 2936   5.905   1.679   4.914  0.0633  0.1044 -0.2922
    6MOL   O127 2937   6.016   1.729   4.922 -0.5724 -0.7069  0.0481
    6MOL   C128 2938   5.788   1.480   4.802 -0.4324  0.3533 -0.3093
    6MOL   C129 2939   5.756   1.414   4.679 -0.6345  0.0499  0.0284
    6MOL   H130 2940   6.239   1.407   4.093  1.6873  0.1311 -0.6383
    6MOL   H131 2941   6.212   1.287   3.987  1.5321  2.2399 -0.3083
    6MOL   H132 2942   6.142   1.314   4.292 -2.4734  1.0513  0.0093
    6MOL   H133 2943   6.113   1.163   4.207  1.5029 -0.1436  0.5741
    6MOL   H134 2944   6.003   1.424   4.100  1.9496 -0.8757 -0.1346
    6MOL   H135 2945   5.965   1.264   4.046  1.0993 -0.4459  0.0160
    6MOL   H136 2946   5.770   1.303   4.186 -0.5732 -0.0386 -0.2802
    6MOL   H137 2947   5.866   1.196   4.270 -4.0684 -0.6017 -1.1729
    6MOL   H138 2948   5.896   1.623   4.456  0.3583 -1.4266 -1.1634
    6MOL   H139 2949   5.977   1.736   4.663 -2.4127  0.5900  1.0788
    6MOL   H140 2950   5.754   1.446   4.899 -3.0912  0.5868 -1.1082
    6MOL   H141 2951   5.709   1.319   4.694 -1.9825  0.7732  0.4271
    6MOL   O142 2952   5.816   1.679   5.008 -0.2790  0.1168 -0.3619
    6MOL   C143 2953   5.814   1.770   5.117  0.4272  0.1136  0.4292
    6MOL   C144 2954   5.719   1.889   5.091  0.3612 -0.0514  0.6390
    6MOL   C145 2955   5.733   2.003   5.193 -0.0176  1.0321  0.3539
    6MOL   C146 2956   5.874   2.048   5.219  0.1000  0.4532 -0.5356
    6MOL   O147 2957   5.941   2.082   5.102 -0.2497  0.2955 -0.2725
    6MOL   C148 2958   6.072   2.068   5.085 -0.3598 -0.0462 -0.6326
    6MOL   O149 2959   6.152   2.029   5.173 -0.0668  0.1872 -0.4494
    6MOL   C150 2960   6.120   2.114   4.948  0.4263  0.6295  0.0366
    6MOL   C151 2961   6.238   2.191   4.933  0.2289  1.2346  0.1179
    6MOL   C152 2962   6.282   2.237   4.810  0.2212 -0.3056 -0.1547
    6MOL   C153 2963   6.210   2.200   4.696  0.6790 -0.1697 -0.1195
    6MOL   C154 2964   6.240   2.257   4.556 -0.0427 -0.0314 -0.1640
    6MOL   O155 2965   6.182   2.219   4.454  0.1747 -0.3930 -0.0697
    6MOL   C156 2966   6.099   2.117   4.712  0.4180 -0.0091 -0.1811
    6MOL   C157 2967   6.047   2.076   4.835 -0.4023 -0.1464 -0.5992
    6MOL   H158 2968   5.768   1.730   5.207 -1.3059 -2.2763 -1.4655
    6MOL   H159 2969   5.914   1.794   5.153 -0.0772 -0.0342  1.9766
    6MOL   H160 2970   5.616   1.859   5.070  0.2341  1.1053 -0.4895
    6MOL   H161 2971   5.758   1.937   5.001 -2.1306 -0.2773 -0.5969
    6MOL   H162 2972   5.671   2.087   5.161 -0.3863  0.6104 -0.0337
    6MOL   H163 2973   5.692   1.972   5.289 -2.3991  1.4163 -0.4914
    6MOL   H164 2974   5.870   2.139   5.280  2.2327 -0.4302  0.9730
    6MOL   H165 2975   5.922   1.973   5.282 -0.0424  1.5306  0.8858
    6MOL   H166 2976   6.287   2.213   5.027  1.2675 -0.2079 -0.0641
    6MOL   H167 2977   6.371   2.299   4.804 -0.0138  0.2483  1.7920
    6MOL   H168 2978   6.040   2.093   4.624 -0.9615  0.5265  0.5898
    6MOL   H169 2979   5.956   2.019   4.849 -1.9651  2.8518  2.0614
    6MOL   O170 2980   6.341   2.342   4.551 -0.2939  0.1852  0.1260
    6MOL   C171 2981   6.383   2.401   4.425  0.1473 -0.6519 -0.5537
    6MOL   C172 2982   6.514   2.333   4.372  0.1851 -0.0724 -0.2169
    6MOL   C173 2983   6.485   2.200   4.300  0.1376  0.3149  0.0525
    6MOL   C174 2984   6.605   2.142   4.226 -0.4380 -0.1396  0.2467
    6MOL   O175 2985   6.581   2.029   4.152  0.2023  0.9440  0.4877
    6MOL   C176 2986   6.582   2.031   4.016  0.4819  0.2392  0.4786
    6MOL   O177 2987   6.620   2.127   3.953 -0.3638  0.1926 -0.0498
    6MOL   C178 2988   6.543   1.898   3.958 -0.2353  0.1901 -0.2484
    6MOL   C179 2989   6.514   1.785   4.036 -0.7817 -0.2247 -0.3853
    6MOL   C180 2990   6.460   1.661   3.983  0.4416 -0.0432 -0.0753
    6MOL   C181 2991   6.452   1.648   3.841 -0.1173  0.3316  0.1053
    6MOL   C182 2992   6.408   1.525   3.770  0.6976  0.3046 -0.1453
    6MOL   O183 2993   6.359   1.427   3.833  0.2836 -0.9262  0.4243
    6MOL   C184 2994   6.482   1.760   3.759  0.3252  0.4870  0.0212
    6MOL   C185 2995   6.525   1.880   3.818  0.5819  0.1169  0.1965
    6MOL   H186 2996   6.298   2.400   4.357 -0.0079  0.5304 -0.3777
    6MOL   H187 2997   6.414   2.505   4.429  1.4544 -1.0830  1.3220
    6MOL   H188 2998   6.605   2.340   4.432  1.6037 -0.2400 -2.2900
    6MOL   H189 2999   6.554   2.403   4.299  0.8749  0.9683  1.1339
    6MOL   H190 3000   6.441   2.137   4.378  1.4587  1.3677  1.7052
    6MOL   H191 3001   6.412   2.223   4.224  0.1437 -3.7709 -1.3311
    6MOL   H192 3002   6.656   2.218   4.167 -0.4347  0.3495  0.8708
    6MOL   H193 3003   6.685   2.117   4.295  1.7017  1.0772 -1.7426
    6MOL   H194 3004   6.531   1.796   4.142  0.5000  0.7237 -0.6736
    6MOL   H195 3005   6.441   1.575   4.044  0.5679 -1.1161 -1.5241
    6MOL   H196 3006   6.473   1.761   3.651  2.0886 -1.8102 -0.1837
    6MOL   H197 3007   6.542   1.977   3.772 -2.6757  1.6933  2.1739
    6MOL   O198 3008   6.439   1.530   3.641 -0.2883  0.1872 -0.3713
    6MOL   C199 3009   6.384   1.432   3.558 -0.2548 -0.0001 -0.3964
    6MOL   C200 3010   6.245   1.472   3.514  0.1454 -0.6548 -0.0775
    6MOL   C201 3011   6.251   1.615   3.443  0.4103  0.2519  0.2522
    6MOL   C202 3012   6.116   1.679   3.428  0.9823 -0.4186  1.1121
    6MOL   O203 3013   6.048   1.695   3.554  0.3509  0.1773  0.3758
    6MOL   C204 3014   5.927   1.759   3.556  0.6710 -0.5620  0.1306
    6MOL   O205 3015   5.881   1.827   3.468  0.6606  0.1091  0.2412
    6MOL   C206 3016   5.853   1.730   3.685 -0.0940 -0.1142 -0.0098
    6MOL   C207 3017   5.905   1.657   3.792  0.1261  0.0044  0.1356
    6MOL   C208 3018   5.826   1.635   3.911  0.4531 -0.4421  0.6723
    6MOL   C209 3019   5.699   1.691   3.921 -0.1819  0.0813 -0.0442
    6MOL   C210 3020   5.620   1.653   4.035  0.1277 -0.3349  1.0714
    6MOL   O211 3021   5.676   1.640   4.144 -0.0831 -0.1696  0.5034
    6MOL   C212 3022   5.647   1.755   3.808  0.1474 -0.0475 -0.1878
    6MOL   C213 3023   5.724   1.779   3.696 -0.1230  0.5452  0.1873
    6MOL   H214 3024   6.456   1.423   3.477 -1.7343 -1.4987 -1.5974
    6MOL   H215 3025   6.377   1.332   3.601 -0.2389  1.7412  3.8825
    6MOL   H216 3026   6.178   1.472   3.600  1.5627  0.8770  1.0588
    6MOL   H217 3027   6.210   1.389   3.452  2.3553 -0.4576 -1.6630
    6MOL   H218 3028   6.306   1.681   3.510  0.5466 -0.4316  0.8194
    6MOL   H219 3029   6.290   1.619   3.341 -1.3981  1.5032 -0.4154
    6MOL   H220 3030   6.126   1.779   3.384 -3.1315 -0.8107 -0.8871
    6MOL   H221 3031   6.059   1.623   3.355  0.6064  0.4669  0.7205
    6MOL   H222 3032   6.008   1.627   3.796  0.6771  1.9021  0.9016
    6MOL   H223 3033   5.877   1.584   3.991 -2.5170 -1.1664  2.1279
    6MOL   H224 3034   5.543   1.785   3.804  0.1959  0.1812  0.1567
    6MOL   H225 3035   5.684   1.836   3.614 -0.6957 -1.7393 -1.1547
    6MOL   O226 3036   5.493   1.631   4.004  0.6016  0.1267 -0.0628
    6MOL   C227 3037   5.393   1.578   4.093 -0.3265 -0.2435  0.8573
    6MOL   C228 3038   5.421   1.437   4.132  0.0507  0.3357 -0.4497
    6MOL   C229 3039   5.425   1.337   4.016  0.0769  0.4777  0.1082
    6MOL   C230 3040   5.437   1.188   4.058  0.1174  0.0493 -0.3781
    6MOL   O231 3041   5.431   1.105   3.946 -0.2811  0.3637  0.3725
    6MOL   C232 3042   5.543   1.065   3.886 -0.0804 -0.1068 -0.1959
    6MOL   O233 3043   5.657   1.100   3.911 -0.3068  0.2076 -1.1546
    6MOL   C234 3044   5.514   0.966   3.778 -0.1299  0.1748  0.4079
    6MOL   C235 3045   5.581   0.849   3.770 -0.4266  0.2296  0.5252
    6MOL   C236 3046   5.558   0.752   3.673  0.2772  0.7192  0.1348
    6MOL   C237 3047   5.472   0.786   3.567 -0.0373 -0.2588 -0.1139
    6MOL   C238 3048   5.452   0.708   3.443 -1.0848  0.4045  0.6240
    6MOL   O239 3049   5.381   0.744   3.348  0.5079  0.3775 -0.1368
    6MOL   C240 3050   5.404   0.910   3.575 -0.0643 -0.0669  0.1590
    6MOL   C241 3051   5.421   1.003   3.678 -0.5858 -0.0815 -0.7333
    6MOL   H242 3052   5.388   1.646   4.178  3.3776  1.7156 -0.3974
    6MOL   H243 3053   5.293   1.584   4.051 -0.1555  1.9437  0.6849
    6MOL   H244 3054   5.342   1.402   4.200  0.0434  0.7308 -0.2507
    6MOL   H245 3055   5.507   1.429   4.198 -1.0127  0.2340  0.9590
    6MOL   H246 3056   5.335   1.336   3.954  0.4691 -0.8231 -0.4609
    6MOL   H247 3057   5.514   1.355   3.957 -0.4865 -1.2704 -1.3338
    6MOL   H248 3058   5.523   1.186   4.126  1.2837  2.7790 -1.6899
    6MOL   H249 3059   5.356   1.151   4.121  0.4748 -1.2086 -0.6557
    6MOL   H250 3060   5.654   0.828   3.847  1.8648 -0.1986 -1.6902
    6MOL   H251 3061   5.606   0.656   3.675  1.5755  1.3558 -0.0506
    6MOL   H252 3062   5.336   0.938   3.496  0.8472 -0.0610 -0.6342
    6MOL   H253 3063   5.368   1.097   3.673 -2.5197 -1.2025 -1.9555
    6MOL   O254 3064   5.532   0.596   3.434 -0.1606  0.8594 -0.4400
    6MOL   C255 3065   5.539   0.534   3.307  0.4305 -0.4317 -0.0971
    6MOL   C256 3066   5.472   0.395   3.303  0.9207 -0.5307 -0.2982
    6MOL   C257 3067   5.491   0.316   3.169  1.3184 -0.2034  0.2824
    6MOL   C258 3068   5.436   0.176   3.161  0.2475  0.4482 -0.3077
    6MOL   O259 3069   5.521   0.092   3.240 -0.6503  0.0355  0.0992
    6MOL   C260 3070   5.482   0.056   3.366 -0.1085  0.2148 -0.3221
    6MOL   O261 3071   5.371   0.065   3.409  0.5492 -0.4106  0.7273
    6MOL   C262 3072   5.592   8.075   3.435 -0.0759 -0.0961 -0.1207
    6MOL   C263 3073   5.712   8.050   3.365  0.5692 -0.2969  0.1862
    6MOL   C264 3074   5.810   7.976   3.421  0.4912 -0.5966 -0.4113
    6MOL   C265 3075   5.801   7.920   3.549  0.7085  0.1194  0.6633
    6MOL   C266 3076   5.908   7.847   3.614  0.4183  0.8828  0.6995
    6MOL   O267 3077   5.907   7.822   3.736  0.0748 -0.4845  0.1266
    6MOL   C268 3078   5.675   7.940   3.617  0.8719  0.6222  0.2284
    6MOL   C269 3079   5.576   8.024   3.562  0.3096  0.0300 -0.1650
    6MOL   H270 3080   5.509   0.602   3.227  0.6637 -0.0451  0.1430
    6MOL   H271 3081   5.645   0.518   3.285  0.5830 -2.5425  2.0196
    6MOL   H272 3082   5.369   0.413   3.334  1.1768 -0.1166  0.3350
    6MOL   H273 3083   5.515   0.332   3.381 -1.6231 -1.5524  0.3243
    6MOL   H274 3084   5.450   0.362   3.080  0.8811  2.9309  2.0310
    6MOL   H275 3085   5.599   0.305   3.155  1.5746  1.8186  0.4541
    6MOL   H276 3086   5.330   0.180   3.184  0.5797  0.2708  1.3157
    6MOL   H277 3087   5.441   0.145   3.057 -0.9389 -1.1145  0.0814
    6MOL   H278 3088   5.726   8.082   3.262 -1.0218  1.3651  0.4556
    6MOL   H279 3089   5.889   7.952   3.351 -0.2271 -0.6033 -1.2288
    6MOL   H280 3090   5.669   7.902   3.718 -2.5753  1.6611  0.4627
    6MOL   H281 3091   5.486   8.032   3.622  0.3515 -2.5681  0.2913
    6MOL   O282 3092   6.000   7.806   3.525  0.2974 -0.1066 -0.2178
    6MOL   C283 3093   6.112   7.719   3.565 -0.0469  0.3677  0.0630
    6MOL   C284 3094   6.207   7.685   3.450  0.5686  0.3238  0.4701
    6MOL   C285 3095   6.266   7.806   3.377  0.1259 -0.4425 -0.4632
    6MOL   C286 3096   6.397   7.768   3.318 -0.0360 -0.3420  1.1910
    6MOL   O287 3097   6.492   7.714   3.414  0.0039 -0.2771  0.1075
    6MOL   C288 3098   6.626   7.722   3.376  0.2652 -0.1939  0.6652
    6MOL   O289 3099   6.666   7.799   3.284  0.2903 -0.0191  0.3546
    6MOL   C290 3100   6.724   7.633   3.457  0.4347  0.8559 -0.4646
    6MOL   C291 3101   6.858   7.613   3.419  0.3079 -0.8697 -0.3437
    6MOL   C292 3102   6.942   7.532   3.495  0.1164  0.4303  0.3481
    6MOL   C293 3103   6.895   7.472   3.617  0.2275 -0.3157  0.0834
    6MOL   C294 3104   6.985   7.376   3.688 -0.3493 -0.0689 -0.0029
    6MOL   O295 3105   7.097   7.350   3.648  0.3461  0.1671  0.3703
    6MOL   C296 3106   6.767   7.507   3.662 -0.1489 -0.2661  0.1179
    6MOL   C297 3107   6.687   7.589   3.589  0.9689  0.7890  0.2165
    6MOL   H298 3108   6.173   7.762   3.644 -3.6269 -0.5850  3.5084
    6MOL   H299 3109   6.075   7.629   3.613 -0.8693  1.2243  1.0463
    6MOL   H300 3110   6.155   7.610   3.391 -0.2743  0.2843  1.2443
    6MOL   H301 3111   6.294   7.640   3.498  1.5187  2.3454  0.7096
    6MOL   H302 3112   6.206   7.836   3.291 -1.8453 -0.9784  0.6839
    6MOL   H303 3113   6.269   7.888   3.449  2.0399 -2.2074  1.5389
    6MOL   H304 3114   6.382   7.689   3.245  0.9359  0.7649 -0.2286
    6MOL   H305 3115   6.443   7.857   3.274  0.6411 -1.0620  0.4109
    6MOL   H306 3116   6.891   7.647   3.322  1.9768 -0.4229  0.3702
    6MOL   H307 3117   7.039   7.518   3.448 -0.4833  0.6636 -0.9754
    6MOL   H308 3118   6.726   7.471   3.756 -1.1023  2.6216  0.8555
    6MOL   H309 3119   6.587   7.617   3.621  0.0730 -1.1295 -0.8180
    6MOL   O310 3120   6.931   7.328   3.811  0.0153 -0.4573 -0.0215
    6MOL   C311 3121   7.024   7.261   3.895  0.1999  0.0872 -0.4957
    6MOL   C312 3122   6.968   7.257   4.035 -0.1733  0.2116  0.7133
    6MOL   C313 3123   6.994   7.383   4.119 -0.1446 -0.7174  0.7925
    6MOL   C314 3124   6.961   7.356   4.265 -0.1947 -0.2343 -0.8203
    6MOL   O315 3125   6.829   7.401   4.294 -0.1273 -0.0615  0.3524
    6MOL   C316 3126   6.791   7.422   4.415  0.0298 -0.2925  0.7529
    6MOL   O317 3127   6.856   7.374   4.505  0.0321 -0.3821  0.1728
    6MOL   C318 3128   6.662   7.500   4.436  0.4614 -0.3401  0.2502
    6MOL   C319 3129   6.617   7.539   4.567 -0.0777  0.5399  0.6522
    6MOL   C320 3130   6.488   7.585   4.595 -0.3858  0.0785  0.3488
    6MOL   C321 3131   6.392   7.601   4.490 -0.1134 -0.6116 -0.2480
    6MOL   C322 3132   6.260   7.660   4.521 -0.1638 -0.6164  0.0883
    6MOL   O323 3133   6.225   7.699   4.631 -0.5935 -0.4061  0.5416
    6MOL   C324 3134   6.438   7.573   4.357  0.3643 -0.2877 -0.5739
    6MOL   C325 3135   6.570   7.530   4.332 -0.6736 -0.3905 -0.5143
    6MOL   H326 3136   7.026   7.160   3.853  1.6409  0.0382 -0.3397
    6MOL   H327 3137   7.125   7.301   3.899  0.0204  0.8793 -3.1543
    6MOL   H328 3138   7.017   7.172   4.084 -1.3427 -1.1572 -0.4276
    6MOL   H329 3139   6.863   7.228   4.023  0.1486 -0.5843 -0.3520
    6MOL   H330 3140   7.097   7.415   4.108 -0.5490  0.2010 -0.5784
    6MOL   H331 3141   6.942   7.471   4.081  0.3963 -1.5047 -1.8649
    6MOL   H332 3142   6.977   7.251   4.288  2.2226  0.2063 -0.3407
    6MOL   H333 3143   7.032   7.415   4.322 -2.1448  0.4387  0.9920
    6MOL   H334 3144   6.674   7.502   4.652  0.1397 -0.8775 -0.1011
    6MOL   H335 3145   6.456   7.587   4.698 -0.9147 -2.5741  0.2740
    6MOL   H336 3146   6.372   7.583   4.273 -2.3003 -1.3871  1.3044
    6MOL   H337 3147   6.591   7.505   4.229  2.4853  0.3953 -0.1149
    6MOL   O338 3148   6.179   7.665   4.415 -0.0138  0.3062 -0.0166
    6MOL   C339 3149   6.045   7.706   4.424 -0.9402 -0.5545 -0.0494
    6MOL   C340 3150   5.973   7.650   4.297 -1.1708  0.5991  0.0542
    6MOL   C341 3151   5.991   7.490   4.281 -0.5298  0.2807  0.0063
    6MOL   C342 3152   5.965   7.438   4.134 -0.2651 -0.3571  0.2819
    6MOL   O343 3153   5.848   7.484   4.072  0.0635 -0.7369  0.0260
    6MOL   C344 3154   5.830   7.463   3.935 -0.6187 -0.3747  0.3862
    6MOL   O345 3155   5.914   7.400   3.866  0.5825  0.3098 -0.3352
    6MOL   C346 3156   5.709   7.539   3.878  0.4373  0.1062 -0.3396
    6MOL   C347 3157   5.621   7.620   3.957  0.2067  0.0114  0.2532
    6MOL   C348 3158   5.502   7.676   3.903  0.5157 -0.8371 -0.0322
    6MOL   C349 3159   5.480   7.665   3.767 -0.6532 -0.1318  0.5814
    6MOL   C350 3160   5.365   7.728   3.697  0.2066 -0.0590 -0.4027
    6MOL   O351 3161   5.329   7.694   3.585  0.3034 -0.2481  0.7407
    6MOL   C352 3162   5.575   7.593   3.688 -0.2615 -0.1775 -0.3302
    6MOL   C353 3163   5.688   7.530   3.740 -0.6560  0.6812  0.1199
    6MOL   H354 3164   6.002   7.674   4.519 -0.8619  1.4254  0.6704
    6MOL   H355 3165   6.039   7.814   4.432  0.8038 -0.5776  1.9971
    6MOL   H356 3166   6.025   7.696   4.214  1.9118 -1.1922  0.9061
    6MOL   H357 3167   5.869   7.681   4.294 -0.9553  1.3770  0.3263
    6MOL   H358 3168   6.089   7.456   4.314  0.3744  0.5697 -2.2914
    6MOL   H359 3169   5.924   7.446   4.355  0.1339 -0.1324  0.3613
    6MOL   H360 3170   6.051   7.460   4.070  0.1179 -2.0861  0.1681
    6MOL   H361 3171   5.956   7.329   4.139  0.9947 -0.5191 -0.5863
    6MOL   H362 3172   5.632   7.643   4.062  0.8124  0.2223  0.1437
    6MOL   H363 3173   5.437   7.735   3.966  0.9713  0.5892 -0.8890
    6MOL   H364 3174   5.561   7.596   3.580  1.6031 -1.5209 -0.6247
    6MOL   H365 3175   5.757   7.481   3.674  0.2998  1.9839  0.1407
    6MOL   O366 3176   5.304   7.823   3.775  0.2787  0.4288  0.1442
    6MOL   C367 3177   5.224   7.925   3.718 -0.7732  0.1692  0.4271
    6MOL   C368 3178   5.073   7.915   3.754 -0.4126 -0.5669 -0.1678
    6MOL   C369 3179   5.008   7.781   3.718  0.5189 -0.5345 -0.7064
    6MOL   C370 3180   4.853   7.785   3.695  0.0293  0.5776  0.3627
    6MOL   O371 3181   4.786   7.858   3.791 -0.0887  0.3457 -0.1044
    6MOL   C372 3182   4.647   7.871   3.789 -0.2017 -0.5102  0.2787
    6MOL   O373 3183   4.575   7.795   3.726 -0.5889 -0.0067 -0.0465
    6MOL   C374 3184   4.597   7.981   3.874 -0.4227  0.7519  0.0740
    6MOL   C375 3185   4.682   8.052   3.965  0.5392  0.8561 -0.5896
    6MOL   C376 3186   4.632   0.069   4.027 -0.4513 -0.0070 -0.1891
    6MOL   C377 3187   4.490   0.106   4.017 -0.2229 -0.2603 -0.3743
    6MOL   C378 3188   4.441   0.230   4.078 -0.4315  0.3285 -0.2507
    6MOL   O379 3189   4.491   0.274   4.183 -0.4465  0.0209 -0.2016
    6MOL   C380 3190   4.410   0.025   3.932 -0.0037  0.4561 -0.3511
    6MOL   C381 3191   4.462   8.009   3.866  0.9260 -0.6753 -0.0176
    6MOL   H382 3192   5.266   8.018   3.756 -1.9163  0.6580  0.5393
    6MOL   H383 3193   5.232   7.928   3.609 -0.8964  0.8395  0.4312
    6MOL   H384 3194   5.016   7.997   3.711 -0.4237 -1.0300 -1.0357
    6MOL   H385 3195   5.076   7.922   3.863  2.3752 -2.0661 -0.0867
    6MOL   H386 3196   5.062   7.746   3.630  0.9917  1.5155 -1.2725
    6MOL   H387 3197   5.019   7.711   3.800  1.0336  0.3481 -0.0156
    6MOL   H388 3198   4.830   7.827   3.597 -0.1458 -1.0560 -0.3054
    6MOL   H389 3199   4.809   7.686   3.704 -1.3030  1.2463  1.3883
    6MOL   H390 3200   4.784   8.018   3.976  0.0130 -0.9004 -1.1047
    6MOL   H391 3201   4.700   0.130   4.085 -1.1585  0.5162  0.1065
    6MOL   H392 3202   4.305   0.046   3.917 -0.5035 -3.1092 -2.2466
    6MOL   H393 3203   4.398   7.953   3.799 -1.3128  1.3975  0.2877
    6MOL   O394 3204   4.324   0.277   4.022  0.0228 -0.8743 -0.0896
    6MOL   C395 3205   4.260   0.390   4.071  0.6160  0.3558  0.4943
    6MOL   C396 3206   4.188   0.461   3.958  0.1446  0.2475  0.0392
    6MOL   C397 3207   4.041   0.504   3.996 -0.1889  0.1837  0.5171
    6MOL   C398 3208   3.974   0.539   3.857 -0.7696 -0.0502  0.0133
    6MOL   O399 3209   4.056   0.626   3.782  0.3761 -0.3603 -0.8011
    6MOL   C400 3210   4.009   0.668   3.661 -0.0780 -0.0650  0.9136
    6MOL   O401 3211   3.904   0.625   3.607  0.1378  0.0019 -0.2248
    6MOL   C402 3212   4.087   0.777   3.596 -0.0726  0.3230 -0.3462
    6MOL   C403 3213   4.206   0.818   3.648 -0.4047  0.2637  0.2876
    6MOL   C404 3214   4.289   0.926   3.589  0.8435  0.0568 -1.0807
    6MOL   C405 3215   4.239   0.989   3.477 -0.1032 -0.0498 -0.3432
    6MOL   C406 3216   4.315   1.094   3.401  0.0853  0.3611  0.3880
    6MOL   O407 3217   4.433   1.122   3.429  0.3191 -0.4484 -0.1789
    6MOL   C408 3218   4.113   0.941   3.426 -0.3790 -0.0743  0.2067
    6MOL   C409 3219   4.041   0.837   3.479  0.6324  0.2363 -0.1392
    6MOL   H410 3220   4.186   0.361   4.146  0.6526 -0.0090  0.3932
    6MOL   H411 3221   4.336   0.462   4.103  0.0916  1.3963 -0.5687
    6MOL   H412 3222   4.189   0.397   3.870 -0.6805 -1.1764  1.0576
    6MOL   H413 3223   4.253   0.545   3.935 -0.3654  1.0557  1.4624
    6MOL   H414 3224   3.997   0.419   4.048  0.7420 -0.3955  0.3846
    6MOL   H415 3225   4.049   0.592   4.058 -1.7539 -0.0539  1.0751
    6MOL   H416 3226   3.965   0.442   3.807  0.1943 -0.5998  0.8861
    6MOL   H417 3227   3.871   0.570   3.874 -1.3934 -1.7497 -0.5607
    6MOL   H418 3228   4.243   0.784   3.744 -2.9158 -2.3480  0.4037
    6MOL   H419 3229   4.389   0.952   3.623  0.5376  1.2638 -1.0920
    6MOL   H420 3230   4.071   0.988   3.338 -2.4134 -0.3018  1.0312
    6MOL   H421 3231   3.953   0.807   3.424  2.7571 -0.2949 -3.3666
    6MOL   O422 3232   4.247   1.148   3.292 -0.0158  0.2905  0.4776
    6MOL   C423 3233   4.298   1.272   3.235 -0.2693  0.5995 -0.2030
    6MOL   C424 3234   4.285   1.266   3.082  0.1744  0.1712  0.4211
    6MOL   C425 3235   4.139   1.297   3.040 -0.4216 -0.0464 -0.0636
    6MOL   C426 3236   4.127   1.309   2.889 -0.0085 -0.3638  0.5389
    6MOL   O427 3237   4.157   1.190   2.813 -0.4586 -0.0435  0.2981
    6MOL   C428 3238   4.154   1.196   2.684  0.3055 -0.3878 -0.2463
    6MOL   O429 3239   4.110   1.299   2.625 -0.1298  0.0779 -0.3895
    6MOL   C430 3240   4.222   1.088   2.612  0.1775 -0.2940 -0.3315
    6MOL   C431 3241   4.247   0.963   2.673 -0.0475  0.9354  0.2647
    6MOL   C432 3242   4.311   0.861   2.605  1.2267  0.1227 -0.1821
    6MOL   C433 3243   4.356   0.872   2.470  0.4616  0.0877 -0.5828
    6MOL   C434 3244   4.426   0.762   2.397 -0.4455 -0.5283 -0.6675
    6MOL   O435 3245   4.475   0.787   2.288 -0.4059  0.5042 -0.3195
    6MOL   C436 3246   4.347   0.998   2.414  0.2381 -0.5853  0.5618
    6MOL   C437 3247   4.275   1.100   2.481  0.0783 -0.2242 -0.0789
    6MOL   H438 3248   4.241   1.355   3.278 -0.4406  0.4284 -0.0960
    6MOL   H439 3249   4.403   1.290   3.256  0.2041 -1.7658 -0.3980
    6MOL   H440 3250   4.314   1.168   3.045  1.0065  1.5908 -2.9248
    6MOL   H441 3251   4.364   1.326   3.037  2.6326 -1.5699  2.3116
    6MOL   H442 3252   4.081   1.214   3.079 -0.0273 -0.2698  0.0603
    6MOL   H443 3253   4.108   1.388   3.091 -0.8238 -0.0617 -0.2830
    6MOL   H444 3254   4.032   1.354   2.861  0.6661 -0.5406 -2.2113
    6MOL   H445 3255   4.200   1.387   2.866 -0.2037 -0.4030 -0.2361
    6MOL   H446 3256   4.220   0.933   2.773  4.3588  0.2464  1.3275
    6MOL   H447 3257   4.322   0.763   2.651 -0.9331  1.4051  3.2537
    6MOL   H448 3258   4.388   1.016   2.316 -0.9331 -0.5439  0.0672
    6MOL   H449 3259   4.253   1.198   2.440  1.0873 -0.1035 -0.3427
    6MOL   O450 3260   4.420   0.646   2.460  0.1935 -0.5012 -0.2108
    6MOL   C451 3261   4.502   0.542   2.394 -0.1845  0.4262 -0.2533
    6MOL   C452 3262   4.532   0.427   2.490 -0.5126  0.3188 -0.3091
    6MOL   C453 3263   4.574   0.469   2.636  0.1678  0.1137  0.1521
    6MOL   C454 3264   4.714   0.529   2.638 -0.7131  0.0143  0.0331
    6MOL   O455 3265   4.813   0.428   2.651 -0.2842 -0.3000  0.6608
    6MOL   C456 3266   4.940   0.465   2.621 -0.3671  0.2564  1.0295
    6MOL   O457 3267   4.966   0.581   2.586 -0.2320 -0.5411 -0.1569
    6MOL   C458 3268   5.047   0.364   2.639  0.3822  0.3322  0.2247
    6MOL   C459 3269   5.013   0.251   2.721 -0.7268  0.0429  0.5206
    6MOL   C460 3270   5.109   0.156   2.748  0.1890  0.0731  0.3797
    6MOL   C461 3271   5.234   0.157   2.684 -0.7480 -0.2679  0.3240
    6MOL   C462 3272   5.336   0.049   2.697  0.6892 -0.3269  0.8289
    6MOL   O463 3273   5.449   0.061   2.650 -0.1964 -0.1126 -0.9393
    6MOL   C464 3274   5.270   0.278   2.618  0.0958 -0.4052  0.7419
    6MOL   C465 3275   5.176   0.380   2.587 -0.1704  1.1306 -0.2569
    6MOL   H466 3276   4.459   0.509   2.300 -1.5323  1.7363 -0.1312
    6MOL   H467 3277   4.595   0.590   2.365  0.0209 -0.7864 -1.6266
    6MOL   H468 3278   4.602   0.353   2.451 -0.7191 -1.1674  2.0510
    6MOL   H469 3279   4.443   0.366   2.503  0.0784 -0.2227  1.3809
    6MOL   H470 3280   4.503   0.538   2.681  1.2814  2.9671 -2.3371
    6MOL   H471 3281   4.588   0.381   2.699 -1.1869 -0.8678 -0.8815
    6MOL   H472 3282   4.710   0.589   2.547 -1.3091  2.8713  1.8897
    6MOL   H473 3283   4.724   0.585   2.731 -0.2292  0.2354 -0.1559
    6MOL   H474 3284   4.910   0.246   2.751 -0.6506  1.5823  1.1368
    6MOL   H475 3285   5.081   0.076   2.814  0.5922  0.4045  0.9566
    6MOL   H476 3286   5.369   0.287   2.576 -0.5345  0.9491 -0.4900
    6MOL   H477 3287   5.198   0.473   2.538  0.3955  1.9123  1.4361
    6MOL   O478 3288   5.300   8.043   2.774  0.2505 -0.1480 -0.5129
    6MOL   C479 3289   5.387   7.930   2.785 -0.2044 -0.0843 -0.5502
    6MOL   C480 3290   5.377   7.835   2.663  1.2507 -0.5031  0.4602
    6MOL   C481 3291   5.240   7.775   2.637 -0.1077 -0.4744 -0.7893
    6MOL   C482 3292   5.223   7.707   2.495  0.3337 -0.1697  0.4603
    6MOL   O483 3293   5.338   7.628   2.469  0.1734 -0.0964  0.4900
    6MOL   C484 3294   5.346   7.558   2.359  0.6471 -0.7207  0.5748
    6MOL   O485 3295   5.247   7.528   2.298 -0.2835 -0.2227  0.3351
    6MOL   C486 3296   5.482   7.539   2.301  0.4374 -0.0058  0.4869
    6MOL   C487 3297   5.497   7.513   2.162 -0.5885  0.6949 -0.3127
    6MOL   C488 3298   5.624   7.483   2.113  0.4052  0.3102  0.5210
    6MOL   C489 3299   5.733   7.487   2.197 -0.0851 -0.4908  0.8853
    6MOL   C490 3300   5.867   7.466   2.132  0.5865  0.8578  0.6696
    6MOL   O491 3301   5.886   7.440   2.012 -0.0789 -0.1407  1.4157
    6MOL   C492 3302   5.722   7.534   2.330 -0.3559  0.1081  0.6488
    6MOL   C493 3303   5.596   7.559   2.384 -0.0701  0.4243 -0.1710
    6MOL   H494 3304   5.488   7.958   2.814 -0.1274 -0.8824 -0.0331
    6MOL   H495 3305   5.362   7.870   2.873 -0.6478 -0.4809 -0.9413
    6MOL   H496 3306   5.457   7.763   2.675  0.7288 -1.1379  0.1689
    6MOL   H497 3307   5.403   7.887   2.571 -0.4377 -0.8711 -0.2521
    6MOL   H498 3308   5.215   7.699   2.712 -0.7012  1.7994  1.3787
    6MOL   H499 3309   5.155   7.842   2.642 -0.5903 -1.0846 -0.6735
    6MOL   H500 3310   5.132   7.648   2.488  0.6780 -0.5461 -1.0025
    6MOL   H501 3311   5.212   7.782   2.417 -2.3577 -2.5158 -1.5017
    6MOL   H502 3312   5.409   7.507   2.099 -0.2529  2.1944 -0.9544
    6MOL   H503 3313   5.630   7.452   2.010  0.9741 -0.0988  0.6747
    6MOL   H504 3314   5.814   7.533   2.387  0.8341  0.6463 -1.2142
    6MOL   H505 3315   5.590   7.589   2.487 -1.1360  0.2307 -0.1627
    6MOL   O506 3316   5.962   7.481   2.226  0.2221  0.4773  0.3110
    6MOL   C507 3317   6.098   7.461   2.203  0.5500 -0.1694 -0.0542
    6MOL   C508 3318   6.165   7.600   2.155 -0.0415 -0.7682  0.5845
    6MOL   C509 3319   6.131   7.645   2.009  0.0872 -0.4834  1.0140
    6MOL   C510 3320   6.222   7.758   1.959 -0.0768  0.0029 -0.1594
    6MOL   O511 3321   6.228   7.866   2.049  0.2295 -0.1526  0.7778
    6MOL   C512 3322   6.299   7.980   2.036  0.2813 -0.1677 -0.2731
    6MOL   O513 3323   6.372   8.001   1.940  0.3701  0.0335  0.0245
    6MOL   C514 3324   6.294   8.053   2.168  0.5420 -0.2726 -0.2563
    6MOL   C515 3325   6.194   8.018   2.262  0.4177 -0.5143  0.0022
    6MOL   C516 3326   6.184   8.087   2.381  0.3418  0.3286 -0.7648
    6MOL   C517 3327   6.272   0.093   2.419 -0.3947  0.0366 -0.3945
    6MOL   C518 3328   6.254   0.150   2.556  0.2686  0.0383  0.1659
    6MOL   O519 3329   6.154   0.144   2.627  0.2503  0.1209 -0.0410
    6MOL   C520 3330   6.383   0.120   2.336 -0.2706 -0.2443  0.9088
    6MOL   C521 3331   6.386   0.061   2.204 -0.5126  0.7715 -0.2514
    6MOL   H522 3332   6.152   7.424   2.290  1.9439 -0.5604 -1.0702
    6MOL   H523 3333   6.102   7.391   2.119 -2.4743 -0.5232  0.0440
    6MOL   H524 3334   6.273   7.589   2.165 -0.1798 -0.4172  2.8242
    6MOL   H525 3335   6.125   7.678   2.219  1.0188 -1.6770  2.4200
    6MOL   H526 3336   6.152   7.559   1.946 -0.8294 -0.6746  0.9629
    6MOL   H527 3337   6.026   7.667   1.992  0.4835 -0.0507 -1.0341
    6MOL   H528 3338   6.327   7.732   1.947 -0.2615 -0.9127  0.2081
    6MOL   H529 3339   6.200   7.795   1.859 -0.0584 -1.6987 -0.8142
    6MOL   H530 3340   6.119   7.943   2.240 -2.7280  1.7065  2.7776
    6MOL   H531 3341   6.100   8.067   2.446  2.4491 -1.5423  1.4373
    6MOL   H532 3342   6.467   0.182   2.363  0.5398 -0.2776 -1.4288
    6MOL   H533 3343   6.463   0.093   2.136  0.3601  0.1475  0.4355
    6MOL   O534 3344   6.370   0.199   2.612  0.3016  0.2272  0.0938
    6MOL   C535 3345   6.372   0.226   2.746 -0.0424 -0.2671 -0.6169
    6MOL   C536 3346   6.516   0.268   2.781 -0.1930 -0.0340  0.2747
    6MOL   C537 3347   6.541   0.410   2.731 -0.1827  0.2531  0.0769
    6MOL   C538 3348   6.512   0.530   2.822  0.2560  0.3527  0.1048
    6MOL   O539 3349   6.559   0.507   2.949  0.3020 -0.1379  0.3140
    6MOL   C540 3350   6.515   0.579   3.054 -0.0079  0.1451  0.2635
    6MOL   O541 3351   6.427   0.658   3.047 -0.1785  0.5485 -0.3898
    6MOL   C542 3352   6.601   0.563   3.176  0.8318  0.4833  0.2596
    6MOL   C543 3353   6.601   0.662   3.279  0.1722  0.1911  0.4517
    6MOL   C544 3354   6.691   0.643   3.389  0.2514 -0.5537  0.5189
    6MOL   C545 3355   6.772   0.531   3.398 -0.5792  1.1510  0.1115
    6MOL   C546 3356   6.850   0.495   3.523  0.4994 -0.4648  0.2167
    6MOL   O547 3357   6.820   0.526   3.639 -0.7738 -0.1550  0.7279
    6MOL   C548 3358   6.776   0.430   3.297 -1.0735 -0.4908  0.1894
    6MOL   C549 3359   6.690   0.451   3.191 -0.0110  0.3216  0.0869
    6MOL   H550 3360   6.300   0.306   2.758 -1.0961 -1.2144 -0.5045
    6MOL   H551 3361   6.339   0.140   2.805 -0.3305  0.4286  0.2377
    6MOL   H552 3362   6.583   0.195   2.735 -1.0042  1.9442 -4.3427
    6MOL   H553 3363   6.532   0.260   2.888  0.2700  0.7496  0.2645
    6MOL   H554 3364   6.650   0.419   2.734 -0.3851  3.2828  0.4048
    6MOL   H555 3365   6.505   0.441   2.632 -1.6826  1.4459  0.9776
    6MOL   H556 3366   6.546   0.625   2.782  0.1452  0.3392 -0.0232
    6MOL   H557 3367   6.404   0.542   2.834  0.4556  0.8817  1.4993
    6MOL   H558 3368   6.536   0.747   3.263  2.7654  2.3036  0.7500
    6MOL   H559 3369   6.690   0.717   3.467  1.6835  0.2970 -0.2480
    6MOL   H560 3370   6.835   0.340   3.301 -1.3055 -0.6160  0.8590
    6MOL   H561 3371   6.691   0.381   3.108 -0.1074  0.6025 -0.1548
    6MOL   H562 3372   6.934   0.432   3.495 -0.3315 -0.7322 -1.7418
    7MOL     O1 3373   7.989   2.720   6.174 -0.2613 -0.1537  0.1385
    7MOL     C2 3374   8.094   2.766   6.092  0.1448 -0.0623  1.2446
    7MOL     C3 3375   0.072   2.634   6.042 -0.0332  0.0888 -0.3025
    7MOL     C4 3376   0.006   2.548   5.938  0.0842  0.3062 -0.1240
    7MOL     C5 3377   0.093   2.439   5.886  0.3257 -0.0764 -0.1429
    7MOL     O6 3378   0.025   2.344   5.801 -0.4536  0.1373  0.1749
    7MOL     C7 3379   0.053   2.331   5.670 -0.0645 -0.1213  0.0406
    7MOL     O8 3380   0.110   2.417   5.609 -0.1113 -0.4055  0.2817
    7MOL     C9 3381   0.008   2.204   5.608 -0.3333  0.3612 -0.5611
    7MOL    C10 3382   7.989   2.143   5.657 -0.1730  0.2325  0.4728
    7MOL    C11 3383   7.925   2.031   5.598  0.3018  0.0604  0.1072
    7MOL    C12 3384   7.990   1.973   5.489  0.6914 -0.6490 -0.3162
    7MOL    C13 3385   7.938   1.849   5.430  0.1047 -0.1387 -0.2301
    7MOL    O14 3386   7.837   1.785   5.470 -0.4420 -0.0092 -0.6078
    7MOL    C15 3387   0.011   2.034   5.435  0.4614 -0.0575 -0.6646
    7MOL    C16 3388   0.077   2.138   5.501  0.9508 -0.5291  0.2480
    7MOL    H17 3389   8.059   2.828   6.010 -1.0589 -1.9447  0.2936
    7MOL    H18 3390   0.072   2.820   6.147 -1.5281  2.7570  0.9123
    7MOL    H19 3391   0.092   2.578   6.134 -0.8060 -0.1154 -0.2521
    7MOL    H20 3392   0.173   2.654   6.009  1.2725 -1.6655  2.4186
    7MOL    H21 3393   8.008   2.504   5.965  0.5434 -0.0459  0.9479
    7MOL    H22 3394   8.084   2.613   5.852 -1.4366  1.7434  1.2721
    7MOL    H23 3395   0.180   2.485   5.839  1.0678 -0.4406  0.8814
    7MOL    H24 3396   0.125   2.381   5.972 -0.5709 -1.3632 -0.6563
    7MOL    H25 3397   7.936   2.194   5.736  0.4032 -0.1135  1.0798
    7MOL    H26 3398   7.836   1.983   5.634  0.4079  0.3439  0.7454
    7MOL    H27 3399   0.061   1.985   5.353  0.0453 -2.1852  0.3201
    7MOL    H28 3400   0.172   2.181   5.471  2.1006 -1.8403  1.9006
    7MOL    H29 3401   7.926   2.791   6.171  0.2861  0.4641  2.1860
    7MOL    O30 3402   8.011   1.813   5.324  0.2467  0.2072  1.1510
    7MOL    C31 3403   7.970   1.696   5.255 -0.3176  0.2195  0.5816
    7MOL    C32 3404   7.874   1.708   5.127 -0.0067 -0.3891 -0.7281
    7MOL    C33 3405   7.949   1.748   5.000  0.7654 -0.0209  0.8810
    7MOL    C34 3406   7.846   1.749   4.883  0.0280  0.7372  0.2499
    7MOL    O35 3407   7.917   1.760   4.760  0.3942 -0.0738 -0.3116
    7MOL    C36 3408   7.860   1.808   4.651 -0.4311  0.0692 -0.1022
    7MOL    O37 3409   7.740   1.831   4.631 -0.3736 -0.4819 -0.4541
    7MOL    C38 3410   7.968   1.818   4.545  0.0300  0.0337 -0.0027
    7MOL    C39 3411   7.940   1.855   4.411  0.0715 -0.2994  0.5054
    7MOL    C40 3412   8.034   1.873   4.313  0.0108  0.6689 -0.6170
    7MOL    C41 3413   0.075   1.858   4.350  0.2405  0.0881  0.5648
    7MOL    C42 3414   0.184   1.870   4.246  0.5901 -0.2671 -0.3573
    7MOL    O43 3415   0.163   1.920   4.138  0.3762  0.6064  0.1814
    7MOL    C44 3416   0.107   1.818   4.480  0.5248 -0.3890 -0.3194
    7MOL    C45 3417   0.006   1.806   4.577 -0.0724 -1.3551  0.3117
    7MOL    H46 3418   8.057   1.634   5.232 -0.9102  0.2389 -1.8401
    7MOL    H47 3419   7.920   1.627   5.322 -0.4694  1.7602  2.0914
    7MOL    H48 3420   7.794   1.778   5.149  2.7550  2.7635 -0.2608
    7MOL    H49 3421   7.822   1.612   5.117 -0.8931 -0.2409  1.9856
    7MOL    H50 3422   7.995   1.846   5.008 -0.7219  0.7990 -0.4750
    7MOL    H51 3423   8.022   1.667   5.004 -0.9153 -1.6256 -0.1036
    7MOL    H52 3424   7.785   1.659   4.890 -0.4034  1.0673  0.7519
    7MOL    H53 3425   7.776   1.833   4.881 -0.0462  0.7355  2.2233
    7MOL    H54 3426   7.837   1.866   4.380  0.6878  0.1893 -1.4480
    7MOL    H55 3427   8.015   1.910   4.213 -2.7275  2.6607  0.5910
    7MOL    H56 3428   0.210   1.796   4.506  0.1632 -2.9678 -0.9409
    7MOL    H57 3429   0.036   1.761   4.670  0.0890 -2.0870 -0.0923
    7MOL    O58 3430   0.298   1.823   4.279 -0.5731  0.3192 -0.3673
    7MOL    C59 3431   0.407   1.815   4.190 -0.6858 -0.5687 -0.1637
    7MOL    C60 3432   0.520   1.734   4.243 -0.3216 -0.1360 -0.1153
    7MOL    C61 3433   0.617   1.702   4.129 -0.8769  0.2053  1.2670
    7MOL    C62 3434   0.744   1.626   4.167 -0.0463  0.0113 -0.3211
    7MOL    O63 3435   0.713   1.487   4.208 -0.5462 -0.5348  0.0608
    7MOL    C64 3436   0.715   1.394   4.114 -0.6987  0.3560 -0.2216
    7MOL    O65 3437   0.722   1.412   3.993  0.2735  0.7919 -0.0934
    7MOL    C66 3438   0.688   1.261   4.175  0.3811  0.1237 -0.7753
    7MOL    C67 3439   0.645   1.241   4.310  0.3745 -0.0976  0.6077
    7MOL    C68 3440   0.622   1.107   4.360  0.0758  0.0259  0.2305
    7MOL    C69 3441   0.630   0.994   4.273 -0.5966 -0.3284  0.7321
    7MOL    C70 3442   0.607   0.858   4.330  0.1135 -0.1834  0.1247
    7MOL    O71 3443   0.616   0.751   4.269 -0.2691 -0.6008  0.3654
    7MOL    C72 3444   0.665   1.017   4.137  0.3909  0.1242  0.4093
    7MOL    C73 3445   0.698   1.150   4.092 -0.0511  0.1530 -0.3973
    7MOL    H74 3446   0.381   1.762   4.099  0.7494  0.2743 -1.0914
    7MOL    H75 3447   0.441   1.918   4.175 -1.1090 -0.4102 -0.0424
    7MOL    H76 3448   0.481   1.644   4.290 -1.4528 -1.0230 -2.6412
    7MOL    H77 3449   0.574   1.785   4.322 -1.5654  1.7350 -0.4224
    7MOL    H78 3450   0.564   1.641   4.056  0.4901 -0.4491  0.7986
    7MOL    H79 3451   0.641   1.792   4.071  3.6641 -3.3050 -2.7042
    7MOL    H80 3452   0.802   1.634   4.075  1.3195  2.1292  0.6901
    7MOL    H81 3453   0.792   1.692   4.240 -1.7205  0.0207  0.8072
    7MOL    H82 3454   0.628   1.326   4.375  0.5047  0.1259  0.3505
    7MOL    H83 3455   0.608   1.100   4.467 -1.4147  0.8929  0.1142
    7MOL    H84 3456   0.672   0.929   4.075 -1.9489  1.0309 -1.2191
    7MOL    H85 3457   0.727   1.159   3.988  3.0023 -0.3511  0.3761
    7MOL    O86 3458   0.562   0.868   4.454 -0.1510 -0.2964 -0.2576
    7MOL    C87 3459   0.521   0.755   4.527 -0.0902  0.3060  0.2640
    7MOL    C88 3460   0.581   0.772   4.666 -0.0343 -0.4992 -0.7599
    7MOL    C89 3461   0.498   0.865   4.762 -0.1911  0.5057 -0.2346
    7MOL    C90 3462   0.579   0.898   4.882 -0.0590  0.5237 -0.5463
    7MOL    O91 3463   0.635   0.780   4.953  0.4597  0.2832 -0.2814
    7MOL    C92 3464   0.558   0.701   5.039 -0.1110 -1.0100  0.2329
    7MOL    O93 3465   0.431   0.702   5.043  0.1227 -0.6734 -0.2945
    7MOL    C94 3466   0.654   0.628   5.132 -0.4646  0.4154  0.1910
    7MOL    C95 3467   0.595   0.564   5.246  0.2192 -0.3659 -0.0479
    7MOL    C96 3468   0.679   0.507   5.345  0.0154 -0.3857 -0.1115
    7MOL    C97 3469   0.818   0.506   5.327  0.0924  0.4395 -0.8513
    7MOL    C98 3470   0.906   0.445   5.421  0.2757  0.3943 -0.1834
    7MOL    O99 3471   0.863   0.401   5.527  0.4022  0.4130  0.0128
    7MOL   C100 3472   0.874   0.555   5.208 -0.3520  0.9239  0.1014
    7MOL   C101 3473   0.791   0.617   5.109 -0.1218 -0.2019  0.4689
    7MOL   H102 3474   0.413   0.740   4.527  0.0985 -1.1563  1.1580
    7MOL   H103 3475   0.553   0.660   4.483 -0.3035  0.2364  0.2572
    7MOL   H104 3476   0.678   0.821   4.660 -1.8766  3.0303 -3.1996
    7MOL   H105 3477   0.604   0.675   4.711 -0.3952 -1.2335 -2.1148
    7MOL   H106 3478   0.459   0.956   4.717 -0.4317 -0.0080 -1.0907
    7MOL   H107 3479   0.410   0.805   4.785  0.5489 -1.2890 -1.9029
    7MOL   H108 3480   0.660   0.968   4.861  1.3563 -1.1115 -0.7076
    7MOL   H109 3481   0.510   0.953   4.947 -1.2342 -1.4256 -0.0969
    7MOL   H110 3482   0.487   0.564   5.248  0.2229  0.2941  0.5190
    7MOL   H111 3483   0.647   0.472   5.441  0.1419 -2.1531 -0.7021
    7MOL   H112 3484   0.980   0.543   5.190 -0.0980 -0.5618  2.3828
    7MOL   H113 3485   0.831   0.665   5.020  1.4854  0.8414  1.7303
    7MOL   O114 3486   1.035   0.446   5.385 -0.2733 -0.2898  0.1555
    7MOL   C115 3487   1.131   0.362   5.455 -0.0141  0.4050  0.1430
    7MOL   C116 3488   1.273   0.418   5.434  0.2072 -0.2021 -0.5069
    7MOL   C117 3489   1.379   0.343   5.526  0.1225  0.6396  0.1188
    7MOL   C118 3490   1.515   0.422   5.545 -0.7202  0.4061  0.4876
    7MOL   O119 3491   1.580   0.418   5.419  0.3736  0.1266 -0.2604
    7MOL   C120 3492   1.696   0.354   5.404 -0.1499 -0.5808 -0.3556
    7MOL   O121 3493   1.756   0.297   5.493 -0.4977  0.0857  0.2160
    7MOL   C122 3494   1.749   0.364   5.265  0.0042 -0.1400 -0.3585
    7MOL   C123 3495   1.832   0.264   5.215  0.6584 -0.2186  0.3057
    7MOL   C124 3496   1.882   0.266   5.084 -0.0144  0.2360 -0.7005
    7MOL   C125 3497   1.856   0.380   5.005  0.4535  0.3535  0.1462
    7MOL   C126 3498   1.905   0.381   4.864 -0.9775 -0.5472  0.2753
    7MOL   O127 3499   1.910   0.487   4.801  0.1235 -0.5906  0.4351
    7MOL   C128 3500   1.772   0.482   5.056 -0.6895 -0.5915 -0.2922
    7MOL   C129 3501   1.718   0.476   5.185  0.2570  0.1375 -0.2672
    7MOL   H130 3502   1.105   0.349   5.561  0.2321  0.8593  0.2600
    7MOL   H131 3503   1.120   0.263   5.412  0.7347 -0.0110  0.8928
    7MOL   H132 3504   1.283   0.525   5.455  1.5249 -0.6684  1.3250
    7MOL   H133 3505   1.306   0.400   5.331  1.3813  0.6584 -0.2917
    7MOL   H134 3506   1.337   0.343   5.627  0.9916 -0.0294  0.4787
    7MOL   H135 3507   1.390   0.240   5.494  0.0971 -0.1423  2.5686
    7MOL   H136 3508   1.478   0.518   5.582 -1.8863 -0.4220  1.5083
    7MOL   H137 3509   1.572   0.374   5.625  0.6643  1.8144  0.3585
    7MOL   H138 3510   1.847   0.177   5.277 -1.6105 -0.8019  0.0715
    7MOL   H139 3511   1.946   0.187   5.046  0.7002  0.3269  0.2899
    7MOL   H140 3512   1.748   0.573   5.002  0.4884 -0.3815 -0.4958
    7MOL   H141 3513   1.661   0.558   5.227  0.0942 -1.2181  2.2247
    7MOL   O142 3514   1.932   0.263   4.814 -0.7038 -0.2166  0.0698
    7MOL   C143 3515   1.935   0.246   4.677  0.0740 -0.2484  0.0349
    7MOL   C144 3516   1.891   0.102   4.646 -0.7475  0.1252 -0.7310
    7MOL   C145 3517   1.944   0.053   4.513 -0.3417 -0.0222  0.3339
    7MOL   C146 3518   1.871   8.020   4.477 -0.2652  0.3789 -0.1187
    7MOL   O147 3519   1.896   8.012   4.337 -0.3272 -0.0061  0.1499
    7MOL   C148 3520   2.013   7.961   4.291  0.4216  0.4126  0.3099
    7MOL   O149 3521   2.092   7.914   4.372 -0.9109  0.1012  0.2465
    7MOL   C150 3522   2.034   7.979   4.144 -0.5352 -0.8242  0.2655
    7MOL   C151 3523   2.161   7.950   4.080 -1.0591  0.4289  0.4455
    7MOL   C152 3524   2.181   7.961   3.946 -0.0739 -0.3577  0.0690
    7MOL   C153 3525   2.070   8.001   3.867  0.8065  0.2306  0.3611
    7MOL   C154 3526   2.093   8.012   3.720  0.4134 -0.4802 -0.0901
    7MOL   O155 3527   2.205   8.005   3.671  0.2197  0.0204 -0.2121
    7MOL   C156 3528   1.946   8.036   3.926 -0.4054  0.5776  0.0496
    7MOL   C157 3529   1.922   8.025   4.066 -0.1208  0.2871 -0.0646
    7MOL   H158 3530   1.862   0.315   4.635  0.6800  0.1493 -0.3515
    7MOL   H159 3531   2.030   0.271   4.632 -0.7829 -1.8357 -2.7737
    7MOL   H160 3532   1.784   0.082   4.653 -0.8473  0.5544 -1.0352
    7MOL   H161 3533   1.935   0.040   4.724  2.3945  2.5809 -0.4139
    7MOL   H162 3534   1.919   0.126   4.436  0.9083  0.7089  0.6085
    7MOL   H163 3535   2.050   0.029   4.511 -0.3797 -0.3332  1.5038
    7MOL   H164 3536   1.902   7.932   4.534  2.5236  0.9717 -0.6183
    7MOL   H165 3537   1.763   8.025   4.464 -0.2649 -1.8293 -1.3321
    7MOL   H166 3538   2.241   7.928   4.150 -2.1756 -2.0272  1.0278
    7MOL   H167 3539   2.273   7.926   3.903 -0.6473  1.5341 -2.8690
    7MOL   H168 3540   1.862   8.061   3.862 -1.4807  0.7505  1.5008
    7MOL   H169 3541   1.830   8.059   4.111 -0.4874  1.2846 -1.5305
    7MOL   O170 3542   1.976   8.012   3.649 -0.6094  0.2219  0.2279
    7MOL   C171 3543   1.981   8.021   3.507 -0.3325 -0.4946 -0.8138
    7MOL   C172 3544   1.971   0.071   3.485  0.1808  0.2624  0.5503
    7MOL   C173 3545   1.832   0.130   3.517 -0.5404 -0.2239  0.1229
    7MOL   C174 3546   1.838   0.283   3.553  0.2592 -0.2093  0.7504
    7MOL   O175 3547   1.889   0.293   3.688  0.4263  0.2150  0.4130
    7MOL   C176 3548   1.892   0.416   3.749  0.4326 -0.4845  0.8194
    7MOL   O177 3549   1.857   0.521   3.690 -0.6171 -0.1750 -0.0140
    7MOL   C178 3550   1.924   0.411   3.891  0.3345  0.4178  0.9471
    7MOL   C179 3551   1.986   0.295   3.951 -0.3621  0.4304 -0.4139
    7MOL   C180 3552   2.027   0.299   4.089 -0.4035  0.4985  0.9006
    7MOL   C181 3553   1.995   0.410   4.164 -0.5155  0.2530 -0.2479
    7MOL   C182 3554   2.035   0.412   4.305 -0.2102  0.1489 -0.3860
    7MOL   O183 3555   2.090   0.315   4.366  0.1560 -0.3160 -0.4227
    7MOL   C184 3556   1.922   0.517   4.107 -0.2393  0.6961 -0.9881
    7MOL   C185 3557   1.885   0.520   3.972 -0.2569  0.4338 -0.3442
    7MOL   H186 3558   2.082   7.993   3.478  0.5199  0.1719  1.4351
    7MOL   H187 3559   1.907   7.967   3.447 -1.0863  0.5044 -0.8001
    7MOL   H188 3560   1.994   0.091   3.381 -0.6933 -0.8385  0.1232
    7MOL   H189 3561   2.051   0.109   3.548  0.6645  2.0244 -1.0958
    7MOL   H190 3562   1.787   0.118   3.418  0.2453  3.9467 -0.8326
    7MOL   H191 3563   1.783   0.079   3.600 -1.2266 -2.5750 -1.6676
    7MOL   H192 3564   1.900   0.348   3.491 -1.3121 -1.2402 -1.9759
    7MOL   H193 3565   1.736   0.321   3.549  0.4130  0.2106  0.7822
    7MOL   H194 3566   1.998   0.201   3.900  1.2221 -0.5510  1.6748
    7MOL   H195 3567   2.070   0.213   4.139  2.1529  2.1785  1.6415
    7MOL   H196 3568   1.900   0.599   4.174  1.1168 -0.9344  1.5355
    7MOL   H197 3569   1.809   0.590   3.941 -2.8087 -1.2466  1.9147
    7MOL   O198 3570   2.012   0.537   4.363 -0.8825 -0.6074 -0.6786
    7MOL   C199 3571   2.020   0.556   4.505  0.3307 -0.5203 -0.0002
    7MOL   C200 3572   2.048   0.708   4.523  0.1865  0.1619 -0.2001
    7MOL   C201 3573   1.953   0.801   4.443  0.1545 -0.7710 -0.7971
    7MOL   C202 3574   2.022   0.856   4.319 -0.0251 -0.1901 -0.4630
    7MOL   O203 3575   1.915   0.883   4.228  0.0063 -0.2605  0.0134
    7MOL   C204 3576   1.940   0.965   4.122 -0.3620  0.1617  0.0577
    7MOL   O205 3577   2.045   1.026   4.107  0.3020 -0.8089 -0.1797
    7MOL   C206 3578   1.814   0.986   4.043  0.5461  0.5203 -0.2653
    7MOL   C207 3579   1.813   1.093   3.954 -0.1324 -0.5543  0.4723
    7MOL   C208 3580   1.688   1.127   3.894  0.3471 -0.2625  0.3531
    7MOL   C209 3581   1.564   1.053   3.909  0.0539 -0.5375 -0.4602
    7MOL   C210 3582   1.449   1.082   3.823  0.4312 -0.0028 -0.1638
    7MOL   O211 3583   1.351   1.002   3.826 -0.1516 -0.1566  0.1843
    7MOL   C212 3584   1.576   0.944   4.000 -0.2766 -0.4985 -0.1464
    7MOL   C213 3585   1.691   0.918   4.071 -0.6178  0.0415 -0.5472
    7MOL   H214 3586   1.919   0.537   4.541  0.4502 -2.8340 -0.8336
    7MOL   H215 3587   2.087   0.491   4.561  1.7560 -0.6018 -1.7484
    7MOL   H216 3588   2.156   0.723   4.518  0.1459  0.9373  0.9353
    7MOL   H217 3589   2.020   0.726   4.627 -1.3040 -0.8924 -0.3932
    7MOL   H218 3590   1.868   0.735   4.426 -0.2376 -1.1194  2.2630
    7MOL   H219 3591   1.915   0.877   4.512  0.9303  0.1611 -1.3915
    7MOL   H220 3592   2.079   0.945   4.344  0.7474 -0.7712 -0.1321
    7MOL   H221 3593   2.084   0.783   4.267  1.9987  1.2035 -0.0339
    7MOL   H222 3594   1.896   1.160   3.937  0.3989 -0.9362  1.5096
    7MOL   H223 3595   1.696   1.210   3.826  1.2415 -0.4145  0.2610
    7MOL   H224 3596   1.488   0.883   4.017 -1.6435  1.2284 -0.7886
    7MOL   H225 3597   1.692   0.833   4.139 -1.0380  0.9290  0.5776
    7MOL   O226 3598   1.459   1.197   3.754  0.5492 -0.4437  0.5567
    7MOL   C227 3599   1.336   1.242   3.699 -0.1835 -0.1025 -0.0461
    7MOL   C228 3600   1.377   1.344   3.594  0.2295 -0.7367 -0.6703
    7MOL   C229 3601   1.446   1.470   3.645  0.3165 -0.6407 -0.3039
    7MOL   C230 3602   1.486   1.565   3.530 -0.4095  0.7308 -0.4605
    7MOL   O231 3603   1.377   1.642   3.481  0.0711  0.4798  0.1763
    7MOL   C232 3604   1.337   1.612   3.358  0.2826 -0.6164 -0.9661
    7MOL   O233 3605   1.391   1.533   3.286 -0.6247 -0.0700  0.0021
    7MOL   C234 3606   1.214   1.690   3.326 -0.0827  0.5889 -0.1735
    7MOL   C235 3607   1.126   1.739   3.425 -0.4154 -0.5839 -0.2420
    7MOL   C236 3608   1.010   1.809   3.384  0.4006  0.2907  0.0454
    7MOL   C237 3609   0.972   1.825   3.245  0.4441 -0.4593 -0.9541
    7MOL   C238 3610   0.850   1.898   3.219 -0.1248  0.0825 -1.0091
    7MOL   O239 3611   0.792   1.887   3.113 -0.3082  0.3408 -0.3523
    7MOL   C240 3612   1.057   1.768   3.148 -0.0795 -0.2525 -0.2049
    7MOL   C241 3613   1.174   1.698   3.190  0.6411 -0.0033  0.2688
    7MOL   H242 3614   1.292   1.159   3.645 -0.5947 -2.3018  3.5539
    7MOL   H243 3615   1.280   1.289   3.779  2.1216  0.3408  1.3753
    7MOL   H244 3616   1.288   1.378   3.540 -0.0179 -0.3311 -0.0116
    7MOL   H245 3617   1.431   1.299   3.511 -1.1790  0.6364 -2.3912
    7MOL   H246 3618   1.371   1.527   3.700  0.9807 -0.3504  0.3169
    7MOL   H247 3619   1.532   1.453   3.711 -0.7381 -1.6710  0.8371
    7MOL   H248 3620   1.562   1.630   3.575  0.4908 -0.3777 -0.3359
    7MOL   H249 3621   1.535   1.502   3.456  0.4803  0.1011  0.6436
    7MOL   H250 3622   1.162   1.730   3.526  2.3172  0.8299 -1.0608
    7MOL   H251 3623   0.941   1.838   3.462  0.3465 -0.9465  0.4665
    7MOL   H252 3624   1.035   1.772   3.043  0.5533  0.6344 -0.3092
    7MOL   H253 3625   1.231   1.646   3.114 -0.0649 -2.3245  1.2951
    7MOL   O254 3626   0.810   1.979   3.322 -0.5488  0.1890  0.4190
    7MOL   C255 3627   0.693   2.054   3.305 -0.2366  0.6675  0.3854
    7MOL   C256 3628   0.717   2.171   3.213 -0.3163 -0.6096  0.3440
    7MOL   C257 3629   0.597   2.263   3.209  0.3444  0.0822  0.5477
    7MOL   C258 3630   0.536   2.330   3.334  0.0791  0.0315 -0.2906
    7MOL   O259 3631   0.631   2.404   3.401  0.2769  0.0778 -0.5922
    7MOL   C260 3632   0.671   2.521   3.355 -0.0202  0.1779 -0.2158
    7MOL   O261 3633   0.625   2.583   3.256  0.0020 -0.1001  0.2379
    7MOL   C262 3634   0.772   2.576   3.439 -0.2968 -0.2763 -0.2675
    7MOL   C263 3635   0.811   2.710   3.419  0.1378  0.3123 -0.7164
    7MOL   C264 3636   0.913   2.770   3.496  0.1369  0.1244 -1.0645
    7MOL   C265 3637   0.979   2.691   3.596  0.6806 -0.4968  0.1191
    7MOL   C266 3638   1.088   2.749   3.678 -0.2750 -0.1136 -0.6021
    7MOL   O267 3639   1.137   2.857   3.651 -0.2394  0.0122 -0.5897
    7MOL   C268 3640   0.946   2.550   3.611 -0.2921 -0.1687  0.5741
    7MOL   C269 3641   0.840   2.498   3.537  0.0720  0.5205 -0.8638
    7MOL   H270 3642   0.610   1.991   3.276  1.5980 -1.4060 -0.5345
    7MOL   H271 3643   0.661   2.094   3.401  2.4907 -1.0375  2.0929
    7MOL   H272 3644   0.745   2.152   3.110  0.2963 -0.5818  0.5058
    7MOL   H273 3645   0.797   2.223   3.265 -0.0734 -0.8176  0.1779
    7MOL   H274 3646   0.613   2.338   3.131  0.5472  0.6979  1.1829
    7MOL   H275 3647   0.521   2.202   3.160 -0.0377  1.4266 -0.5574
    7MOL   H276 3648   0.455   2.397   3.306 -1.2377  0.3741  3.9547
    7MOL   H277 3649   0.492   2.259   3.403 -0.2212  0.3206 -0.1829
    7MOL   H278 3650   0.770   2.766   3.337 -1.7895 -1.4888 -0.9881
    7MOL   H279 3651   0.939   2.874   3.492 -0.9568  0.4438  0.1119
    7MOL   H280 3652   1.013   2.500   3.680  0.7286  2.3793  1.5147
    7MOL   H281 3653   0.825   2.393   3.556  0.4664  0.3256 -1.6170
    7MOL   O282 3654   1.118   2.681   3.791  0.6576  0.1055 -0.7581
    7MOL   C283 3655   1.213   2.737   3.881 -0.3038 -0.0341 -0.4065
    7MOL   C284 3656   1.328   2.631   3.899 -0.4972 -0.2213  0.0995
    7MOL   C285 3657   1.405   2.606   3.779  0.6927 -0.0811 -0.6167
    7MOL   C286 3658   1.496   2.722   3.735  0.2616  0.6094  0.5540
    7MOL   O287 3659   1.581   2.670   3.638 -0.6374 -0.1572  0.8613
    7MOL   C288 3660   1.626   2.754   3.541 -0.2882  0.2385 -0.1970
    7MOL   O289 3661   1.588   2.869   3.529 -0.0537 -0.0254  0.1467
    7MOL   C290 3662   1.737   2.699   3.459  0.0832 -1.4788 -0.0891
    7MOL   C291 3663   1.759   2.557   3.466  0.2594  0.1051 -0.3778
    7MOL   C292 3664   1.839   2.492   3.364 -0.5241  1.0218 -0.4042
    7MOL   C293 3665   1.919   2.577   3.282 -0.1567  0.0437 -0.0177
    7MOL   C294 3666   1.997   2.511   3.170  0.7054  0.4042 -0.2520
    7MOL   O295 3667   1.953   2.405   3.123 -0.0052  0.7577  0.1144
    7MOL   C296 3668   1.911   2.717   3.289  0.5864  0.3774  0.5227
    7MOL   C297 3669   1.809   2.777   3.369 -0.2972 -0.2792  0.1176
    7MOL   H298 3670   1.265   2.825   3.842  0.4927 -0.2979  0.0370
    7MOL   H299 3671   1.166   2.762   3.976  0.5593  0.6639 -0.1515
    7MOL   H300 3672   1.282   2.535   3.925  1.1478 -0.7275  1.2688
    7MOL   H301 3673   1.399   2.655   3.978  0.2395 -1.0964 -0.2831
    7MOL   H302 3674   1.470   2.519   3.796 -0.9810 -1.1308  0.4978
    7MOL   H303 3675   1.329   2.580   3.705  0.5411 -1.6952  0.0754
    7MOL   H304 3676   1.437   2.808   3.703 -1.5984 -0.5406  0.8162
    7MOL   H305 3677   1.553   2.742   3.826 -1.8369 -1.0582  2.3158
    7MOL   H306 3678   1.700   2.491   3.529 -0.8760  0.3107 -1.2139
    7MOL   H307 3679   1.845   2.384   3.363 -0.5338  1.0064  0.5977
    7MOL   H308 3680   1.975   2.776   3.224  1.3463 -1.8189 -0.7903
    7MOL   H309 3681   1.792   2.883   3.358 -1.3355 -0.6682 -2.4946
    7MOL   O310 3682   2.105   2.584   3.135  0.0171  0.3301 -0.0821
    7MOL   C311 3683   2.184   2.542   3.026 -0.4581  0.1071  0.3067
    7MOL   C312 3684   2.113   2.578   2.891  0.3243 -0.6212 -0.0984
    7MOL   C313 3685   2.193   2.521   2.772  0.3512 -0.4084  0.2582
    7MOL   C314 3686   2.153   2.580   2.633  0.0852 -0.0207  0.1983
    7MOL   O315 3687   2.027   2.550   2.589  0.2383  0.0272 -0.1813
    7MOL   C316 3688   1.979   2.604   2.472 -0.0285 -0.8117 -0.0681
    7MOL   O317 3689   2.052   2.647   2.388  0.6243 -0.2311 -0.7492
    7MOL   C318 3690   1.830   2.577   2.455  0.5386  1.3204  0.0904
    7MOL   C319 3691   1.759   2.542   2.571  0.8276 -0.2769  0.1819
    7MOL   C320 3692   1.618   2.531   2.568 -0.6098 -0.5718  0.3769
    7MOL   C321 3693   1.545   2.541   2.450 -0.3102 -0.5335  0.2443
    7MOL   C322 3694   1.403   2.528   2.448  0.3302  0.5254 -0.3363
    7MOL   O323 3695   1.336   2.527   2.342  0.3312  0.7453 -0.2009
    7MOL   C324 3696   1.615   2.580   2.332  0.6150  0.2059  0.0762
    7MOL   C325 3697   1.756   2.602   2.338  0.1747 -0.0591 -0.8991
    7MOL   H326 3698   2.279   2.595   3.027  0.8270 -2.1223 -0.1079
    7MOL   H327 3699   2.200   2.434   3.035 -1.1182 -0.0840 -0.6837
    7MOL   H328 3700   2.098   2.684   2.868  0.3412 -0.3756  1.0021
    7MOL   H329 3701   2.012   2.537   2.887 -0.1333  0.4144  0.7841
    7MOL   H330 3702   2.298   2.549   2.781  0.4926 -0.4005 -1.2800
    7MOL   H331 3703   2.190   2.412   2.778  1.2989 -0.4969 -0.8131
    7MOL   H332 3704   2.157   2.689   2.640  1.8368  0.0399 -1.3896
    7MOL   H333 3705   2.229   2.535   2.568 -0.8557 -1.6449  0.1911
    7MOL   H334 3706   1.809   2.539   2.667  2.1984  1.8254 -0.4522
    7MOL   H335 3707   1.573   2.518   2.665 -1.4426 -1.2411 -0.1013
    7MOL   H336 3708   1.558   2.594   2.241  4.5160 -2.4727 -2.9826
    7MOL   H337 3709   1.802   2.640   2.249  0.8586  0.2213 -0.4319
    7MOL   O338 3710   1.348   2.510   2.570  0.1789  0.2066 -0.5950
    7MOL   C339 3711   1.219   2.459   2.575  1.1225  0.7321 -0.0633
    7MOL   C340 3712   1.192   2.410   2.720  0.5896 -0.6147 -0.3967
    7MOL   C341 3713   1.295   2.308   2.768 -0.9737  0.6299 -1.2017
    7MOL   C342 3714   1.237   2.211   2.872  0.4201  0.4571  0.3142
    7MOL   O343 3715   1.331   2.107   2.885  0.1399  0.6201  0.3175
    7MOL   C344 3716   1.328   2.021   2.986  0.1933  0.0793  0.4361
    7MOL   O345 3717   1.242   2.026   3.077  0.3443  0.1487  0.1390
    7MOL   C346 3718   1.449   1.927   2.973  0.1612 -0.1355 -0.8634
    7MOL   C347 3719   1.509   1.913   2.851  0.4618  0.3289 -0.7810
    7MOL   C348 3720   1.621   1.825   2.842 -0.3926  1.0460 -0.4046
    7MOL   C349 3721   1.672   1.759   2.957 -0.6899  0.4806 -0.6452
    7MOL   C350 3722   1.780   1.666   2.944 -0.6412  0.0776 -0.2077
    7MOL   O351 3723   1.835   1.617   3.039 -0.6073  0.8623  0.6554
    7MOL   C352 3724   1.619   1.785   3.084  0.7149 -0.8532  1.2626
    7MOL   C353 3725   1.504   1.870   3.093  0.3696  0.1396  0.1438
    7MOL   H354 3726   1.148   2.532   2.535  0.4425  0.3318  0.3883
    7MOL   H355 3727   1.216   2.368   2.516  3.0422 -1.3853  2.9888
    7MOL   H356 3728   1.090   2.371   2.732 -0.0623  1.0627 -0.3515
    7MOL   H357 3729   1.196   2.502   2.778 -2.9742  1.1241 -2.6968
    7MOL   H358 3730   1.337   2.246   2.688  0.1186 -0.5172  0.2223
    7MOL   H359 3731   1.382   2.364   2.802 -0.4086  0.3379 -2.1461
    7MOL   H360 3732   1.234   2.275   2.960 -0.9084  0.5312  0.2375
    7MOL   H361 3733   1.141   2.162   2.852  0.8347 -0.0878 -0.3526
    7MOL   H362 3734   1.477   1.963   2.761  0.2380  1.2195 -0.2116
    7MOL   H363 3735   1.682   1.816   2.754  0.3179 -3.0220  0.4155
    7MOL   H364 3736   1.650   1.732   3.173  0.3239 -0.0335  1.8988
    7MOL   H365 3737   1.460   1.883   3.191  3.7955 -0.3621  1.8114
    7MOL   O366 3738   1.818   1.640   2.816  0.0236  0.0644 -0.1903
    7MOL   C367 3739   1.908   1.531   2.789 -0.8281 -0.2402 -0.0978
    7MOL   C368 3740   1.848   1.388   2.818  0.0387  0.4773  0.0494
    7MOL   C369 3741   1.946   1.280   2.844  0.0795  0.0904 -0.2612
    7MOL   C370 3742   2.050   1.312   2.957 -0.0739 -0.3519 -0.0904
    7MOL   O371 3743   2.131   1.199   2.995 -0.4186  0.1985  0.5819
    7MOL   C372 3744   2.251   1.203   3.042  0.5798  0.0450  0.2492
    7MOL   O373 3745   2.327   1.305   3.035  0.6848  0.2201  0.0079
    7MOL   C374 3746   2.305   1.077   3.095  0.7657  0.1021 -0.1687
    7MOL   C375 3747   2.428   1.073   3.152  0.2214 -0.3355  0.5527
    7MOL   C376 3748   2.481   0.959   3.209  0.2944 -0.0197 -0.2045
    7MOL   C377 3749   2.403   0.843   3.203 -0.6078  0.0737  0.2516
    7MOL   C378 3750   2.465   0.727   3.265  0.7388  0.3382 -0.1177
    7MOL   O379 3751   2.547   0.724   3.353 -0.3724 -0.2741  0.1201
    7MOL   C380 3752   2.282   0.838   3.129 -0.0651 -0.4404  0.1973
    7MOL   C381 3753   2.233   0.958   3.077  0.1188  0.1715  0.3006
    7MOL   H382 3754   1.927   1.547   2.683 -1.4462 -0.7488 -0.2925
    7MOL   H383 3755   1.998   1.540   2.850 -0.9994  0.9046  0.0087
    7MOL   H384 3756   1.785   1.361   2.733 -1.5811  1.5246  0.8923
    7MOL   H385 3757   1.775   1.394   2.899 -1.0921 -1.1010 -0.8302
    7MOL   H386 3758   1.904   1.183   2.872  0.0359 -0.1025 -0.9861
    7MOL   H387 3759   1.998   1.252   2.752  1.5131  0.3170  0.4574
    7MOL   H388 3760   2.109   1.396   2.920 -1.9737  0.8730 -0.4323
    7MOL   H389 3761   1.998   1.356   3.042  1.1308  0.1229  0.4156
    7MOL   H390 3762   2.476   1.169   3.161 -1.0613  0.3575  0.1058
    7MOL   H391 3763   2.561   0.957   3.282 -3.0951  1.5071  3.7569
    7MOL   H392 3764   2.228   0.746   3.113 -0.6173 -0.2356  0.8422
    7MOL   H393 3765   2.140   0.963   3.022  1.5890 -4.0179 -2.8373
    7MOL   O394 3766   2.413   0.613   3.219  0.5068 -0.0488  0.0304
    7MOL   C395 3767   2.456   0.482   3.242  0.3983  0.0805 -0.1128
    7MOL   C396 3768   2.344   0.384   3.207  0.2157  0.1702 -0.0997
    7MOL   C397 3769   2.313   0.392   3.053  0.2713  0.2364 -0.5901
    7MOL   C398 3770   2.429   0.365   2.956  0.3928  0.3932  0.1659
    7MOL   O399 3771   2.488   0.491   2.938  0.1948 -0.1324 -0.2654
    7MOL   C400 3772   2.540   0.527   2.820  0.4177  0.3371 -0.1886
    7MOL   O401 3773   2.508   0.470   2.718  0.0387  0.0143  0.1888
    7MOL   C402 3774   2.648   0.629   2.829  0.2359  0.4006 -0.0771
    7MOL   C403 3775   2.642   0.722   2.934  0.3927 -0.5705 -0.1536
    7MOL   C404 3776   2.739   0.826   2.948 -0.2616  0.7956 -0.5340
    7MOL   C405 3777   2.835   0.850   2.844  0.2485 -0.5507  0.5572
    7MOL   C406 3778   2.927   0.967   2.856 -0.5746 -0.2213  0.0949
    7MOL   O407 3779   3.017   0.987   2.774 -0.2413  1.1482 -1.0197
    7MOL   C408 3780   2.831   0.763   2.731  0.1956  0.5704  0.8325
    7MOL   C409 3781   2.740   0.654   2.727 -0.8761  0.3162 -0.3072
    7MOL   H410 3782   2.554   0.460   3.200  0.7425  2.8280 -0.8514
    7MOL   H411 3783   2.478   0.462   3.347  1.1825  1.5415  0.0195
    7MOL   H412 3784   2.253   0.404   3.264 -0.7612  0.2818 -1.6841
    7MOL   H413 3785   2.363   0.281   3.240  0.9543  1.0576  2.3713
    7MOL   H414 3786   2.235   0.325   3.015  1.3142 -1.2101 -0.2328
    7MOL   H415 3787   2.280   0.491   3.021  2.5048  1.0416 -0.4264
    7MOL   H416 3788   2.489   0.286   3.000 -1.0326 -2.2623 -2.4553
    7MOL   H417 3789   2.398   0.322   2.860 -0.3386 -1.6364  1.2934
    7MOL   H418 3790   2.574   0.709   3.017  3.9481 -3.5774  2.4855
    7MOL   H419 3791   2.731   0.896   3.030 -0.4897  0.6212 -0.4071
    7MOL   H420 3792   2.891   0.780   2.643 -0.2819 -1.9777 -0.0352
    7MOL   H421 3793   2.733   0.594   2.637 -0.5125 -0.5358  0.2252
    7MOL   O422 3794   2.906   1.044   2.954  0.1428  0.4608 -0.2133
    7MOL   C423 3795   2.997   1.152   2.990  0.1846 -0.7685  0.1481
    7MOL   C424 3796   2.942   1.225   3.115  0.1206  0.4630 -0.6858
    7MOL   C425 3797   2.943   1.129   3.238  0.6512  0.0307 -0.0431
    7MOL   C426 3798   2.939   1.209   3.375 -0.2057  0.5980 -0.5331
    7MOL   O427 3799   2.827   1.294   3.399 -0.2729  0.0423  0.5563
    7MOL   C428 3800   2.822   1.374   3.509  0.8128 -0.2089  0.4992
    7MOL   O429 3801   2.914   1.375   3.592  0.3344  0.0833  0.6891
    7MOL   C430 3802   2.711   1.473   3.501 -0.3011 -0.0397 -0.4686
    7MOL   C431 3803   2.624   1.472   3.393 -0.5838 -1.0213 -0.1671
    7MOL   C432 3804   2.533   1.577   3.374 -0.0343  0.0702  0.6943
    7MOL   C433 3805   2.516   1.674   3.478  0.3107 -0.8363 -0.1547
    7MOL   C434 3806   2.424   1.791   3.463  0.7773  0.4372  0.1086
    7MOL   O435 3807   2.409   1.882   3.548 -0.3525  0.1513  0.0030
    7MOL   C436 3808   2.598   1.674   3.597 -0.3662 -1.0641  0.5318
    7MOL   C437 3809   2.696   1.573   3.604  0.0287 -0.3181  0.1539
    7MOL   H438 3810   3.091   1.098   3.003  0.1512 -1.0198 -0.5957
    7MOL   H439 3811   3.009   1.228   2.913  1.2798 -0.0939  0.9794
    7MOL   H440 3812   2.850   1.268   3.076 -0.7569 -0.5475  0.2682
    7MOL   H441 3813   3.011   1.307   3.137  1.6535 -0.2418 -2.6213
    7MOL   H442 3814   2.860   1.061   3.221 -0.1605  1.0775 -0.3215
    7MOL   H443 3815   3.039   1.077   3.244  1.2978  1.0299 -1.3891
    7MOL   H444 3816   2.946   1.133   3.453  0.8840  0.8132 -0.4226
    7MOL   H445 3817   3.024   1.277   3.372  0.0812  0.2518 -0.3065
    7MOL   H446 3818   2.634   1.401   3.312 -0.6862 -1.9223  0.5996
    7MOL   H447 3819   2.471   1.584   3.286 -0.6740  0.5064  1.1717
    7MOL   H448 3820   2.579   1.744   3.677 -0.3237  0.7304 -0.9893
    7MOL   H449 3821   2.762   1.576   3.689  0.5852  5.1219 -0.3292
    7MOL   O450 3822   2.339   1.785   3.356  0.6437  0.1912 -0.2198
    7MOL   C451 3823   2.225   1.868   3.348 -0.1459 -0.1018  0.9426
    7MOL   C452 3824   2.114   1.788   3.407 -0.1349 -0.0260 -0.0476
    7MOL   C453 3825   2.044   1.679   3.326  0.6103  0.1110 -0.9613
    7MOL   C454 3826   1.914   1.639   3.401  0.1455 -0.2781 -0.1564
    7MOL   O455 3827   1.823   1.751   3.384 -0.3201 -0.0125  0.0417
    7MOL   C456 3828   1.764   1.815   3.483 -0.2018 -0.5751  0.4548
    7MOL   O457 3829   1.774   1.786   3.604  0.3485  0.0480 -0.1099
    7MOL   C458 3830   1.696   1.940   3.445 -0.3426  0.1138 -0.2834
    7MOL   C459 3831   1.711   1.993   3.318 -0.0127  0.0108 -0.1990
    7MOL   C460 3832   1.657   2.123   3.289  0.3545 -0.6659 -0.2798
    7MOL   C461 3833   1.569   2.184   3.384  0.1624  0.3613 -0.0202
    7MOL   C462 3834   1.503   2.312   3.357 -0.2562 -0.1748  0.3759
    7MOL   O463 3835   1.426   2.365   3.438  0.1774  0.8132 -0.1570
    7MOL   C464 3836   1.566   2.134   3.522 -0.6631 -0.3824  0.3943
    7MOL   C465 3837   1.640   2.017   3.553  0.1695  0.0931 -0.0249
    7MOL   H466 3838   2.232   1.965   3.398 -1.6152 -0.1366  1.2366
    7MOL   H467 3839   2.195   1.899   3.248 -2.4918 -2.5760  0.8297
    7MOL   H468 3840   2.037   1.857   3.441  2.3111  2.9055 -0.3035
    7MOL   H469 3841   2.148   1.744   3.501  2.8867 -1.0320 -1.5465
    7MOL   H470 3842   2.022   1.716   3.226  0.3574 -1.3210 -1.4513
    7MOL   H471 3843   2.110   1.591   3.328 -1.3404 -1.3303  1.5541
    7MOL   H472 3844   1.862   1.552   3.361 -0.1617 -1.1804  2.1248
    7MOL   H473 3845   1.931   1.622   3.507 -0.9172  3.3249  0.6301
    7MOL   H474 3846   1.781   1.953   3.246 -0.6155 -0.4543 -0.5273
    7MOL   H475 3847   1.674   2.160   3.189  0.7873 -0.8118 -0.2633
    7MOL   H476 3848   1.534   2.200   3.601  1.3360  1.6530 -0.4523
    7MOL   H477 3849   1.634   1.983   3.655  0.3161  1.4648  0.4471
    7MOL   O478 3850   1.538   2.365   3.236 -0.8833  0.2123 -0.4573
    7MOL   C479 3851   1.509   2.499   3.206  0.0881  0.9987 -0.6948
    7MOL   C480 3852   1.558   2.547   3.070  0.0442  0.2565  0.2300
    7MOL   C481 3853   1.512   2.690   3.039 -0.6611  0.2543  0.0086
    7MOL   C482 3854   1.539   2.788   3.153 -0.0397 -0.2724 -0.4907
    7MOL   O483 3855   1.509   2.908   3.097  0.7440  0.4509 -0.1718
    7MOL   C484 3856   1.564   3.023   3.145  0.3198  1.0421  0.4593
    7MOL   O485 3857   1.645   3.026   3.242 -0.5592 -0.1599  0.4348
    7MOL   C486 3858   1.536   3.136   3.058  0.8563  0.2750  0.2924
    7MOL   C487 3859   1.568   3.263   3.109  0.8977  0.6269 -0.2081
    7MOL   C488 3860   1.521   3.377   3.046 -0.2810 -1.3948  0.0701
    7MOL   C489 3861   1.453   3.370   2.928  0.7544 -0.1937 -0.4134
    7MOL   C490 3862   1.418   3.496   2.856  0.2017 -0.1323 -0.7166
    7MOL   O491 3863   1.446   3.610   2.890 -0.2044 -0.4623 -0.1694
    7MOL   C492 3864   1.405   3.245   2.882  0.0620  0.2539 -0.2611
    7MOL   C493 3865   1.454   3.127   2.940 -0.4059  0.4482 -0.1465
    7MOL   H494 3866   1.401   2.507   3.199 -0.2809 -1.6351  1.2427
    7MOL   H495 3867   1.541   2.562   3.289 -0.2207  0.4029 -0.1178
    7MOL   H496 3868   1.524   2.485   2.987 -0.9057  2.4847 -1.0976
    7MOL   H497 3869   1.667   2.540   3.068  0.2303  2.0736  1.8392
    7MOL   H498 3870   1.555   2.709   2.941  0.3740  0.1667  0.4451
    7MOL   H499 3871   1.407   2.672   3.014 -0.4013  0.2764 -1.1319
    7MOL   H500 3872   1.479   2.768   3.242 -0.8095  0.3334 -0.8655
    7MOL   H501 3873   1.645   2.777   3.175  0.0764  0.5544 -0.6301
    7MOL   H502 3874   1.630   3.283   3.195  0.5459  0.6142  0.0496
    7MOL   H503 3875   1.543   3.472   3.094 -0.6533 -1.2228 -0.0989
    7MOL   H504 3876   1.334   3.239   2.800 -0.6494  0.4074  0.3355
    7MOL   H505 3877   1.434   3.026   2.906  1.2606  0.7099 -1.9550
    7MOL   O506 3878   1.330   3.474   2.750 -0.2030  0.1432  0.2413
    7MOL   C507 3879   1.272   3.583   2.678 -0.0706 -0.5693 -0.2355
    7MOL   C508 3880   1.130   3.537   2.641 -0.1918  0.7517 -0.2536
    7MOL   C509 3881   1.017   3.564   2.738  0.3104 -0.0787 -0.3985
    7MOL   C510 3882   1.036   3.499   2.871  0.6885  0.3396 -0.0137
    7MOL   O511 3883   0.936   3.544   2.968 -0.8394 -0.1845 -0.0072
    7MOL   C512 3884   0.948   3.501   3.091 -0.4934 -0.3617 -0.8292
    7MOL   O513 3885   1.035   3.425   3.128  0.1107 -0.1139  0.0876
    7MOL   C514 3886   0.830   3.534   3.175  0.0035  0.1854  0.1491
    7MOL   C515 3887   0.832   3.489   3.312  0.2021  0.7750 -0.4364
    7MOL   C516 3888   0.717   3.518   3.396 -1.1834  0.4637 -0.3750
    7MOL   C517 3889   0.597   3.569   3.337 -0.7404  0.0367 -0.1781
    7MOL   C518 3890   0.469   3.558   3.407  0.6560 -0.5808  0.0495
    7MOL   O519 3891   0.358   3.606   3.369 -0.8503 -0.2770 -0.0347
    7MOL   C520 3892   0.601   3.628   3.207 -0.0940  0.0655  0.1737
    7MOL   C521 3893   0.718   3.611   3.130 -0.0371  0.3815  0.1968
    7MOL   H522 3894   1.270   3.681   2.725  2.7849 -0.7942  0.3874
    7MOL   H523 3895   1.337   3.604   2.593  2.0258  2.2025  1.9822
    7MOL   H524 3896   1.137   3.430   2.622  0.9600  0.7571  0.1269
    7MOL   H525 3897   1.102   3.584   2.547 -0.4275 -0.7319 -0.9433
    7MOL   H526 3898   1.017   3.672   2.743  1.1467 -0.0194 -1.3986
    7MOL   H527 3899   0.929   3.522   2.687 -0.4076 -0.6114  1.2569
    7MOL   H528 3900   1.047   3.391   2.871  1.7579  0.4395  1.5447
    7MOL   H529 3901   1.130   3.533   2.914  1.0072 -1.2117  0.5346
    7MOL   H530 3902   0.920   3.440   3.350  0.1203 -0.2841 -1.5610
    7MOL   H531 3903   0.715   3.481   3.497 -0.0414 -2.8215 -1.4902
    7MOL   H532 3904   0.512   3.674   3.167 -1.2190 -1.8404  0.3879
    7MOL   H533 3905   0.721   3.657   3.032  1.3481  3.4757  1.6355
    7MOL   O534 3906   0.481   3.482   3.517 -0.0606  0.0305 -0.0026
    7MOL   C535 3907   0.388   3.490   3.626  0.5650  0.4771 -0.4659
    7MOL   C536 3908   0.417   3.575   3.748 -0.2208  0.1329 -0.2794
    7MOL   C537 3909   0.296   3.563   3.845 -0.1377  0.0018 -0.1567
    7MOL   C538 3910   0.318   3.622   3.986  0.3598 -1.0295  0.1287
    7MOL   O539 3911   0.427   3.547   4.052  0.1178 -0.0854 -0.0598
    7MOL   C540 3912   0.406   3.477   4.168 -0.6989 -0.8717 -0.0162
    7MOL   O541 3913   0.309   3.475   4.239  0.3172 -0.9255  0.5963
    7MOL   C542 3914   0.535   3.405   4.202  0.0269  0.1229  0.3509
    7MOL   C543 3915   0.653   3.416   4.120  0.3517  0.5049 -0.1747
    7MOL   C544 3916   0.776   3.357   4.168 -0.0261 -0.5035  0.6368
    7MOL   C545 3917   0.782   3.280   4.289 -0.5507  0.0722  0.0631
    7MOL   C546 3918   0.905   3.213   4.325 -0.1003 -0.0920 -0.6168
    7MOL   O547 3919   0.911   3.147   4.426  0.4886  0.0600 -0.2242
    7MOL   C548 3920   0.660   3.266   4.362  0.6492  0.3817  0.2943
    7MOL   C549 3921   0.544   3.337   4.324 -1.0897  0.6262 -0.5803
    7MOL   H550 3922   0.288   3.513   3.587  1.3800  1.1760 -2.1947
    7MOL   H551 3923   0.386   3.394   3.678 -0.2989  0.4825 -0.4785
    7MOL   H552 3924   0.429   3.680   3.719 -1.0905  0.0937 -0.8136
    7MOL   H553 3925   0.507   3.534   3.793  0.4661  0.6611 -1.1560
    7MOL   H554 3926   0.201   3.607   3.817  0.3684 -0.0011 -1.9518
    7MOL   H555 3927   0.274   3.459   3.868 -0.9567  0.1729 -0.1650
    7MOL   H556 3928   0.342   3.728   3.976  1.5855 -1.1492  1.6000
    7MOL   H557 3929   0.228   3.616   4.047 -0.2246 -0.6721 -0.6955
    7MOL   H558 3930   0.655   3.476   4.030 -1.4234 -0.7367 -1.0570
    7MOL   H559 3931   0.865   3.359   4.107 -0.0302  1.8401  0.6444
    7MOL   H560 3932   0.649   3.211   4.454 -0.2982 -0.2306 -0.1825
    7MOL   H561 3933   0.455   3.321   4.384 -0.3954  0.1592  0.3400
    7MOL   H562 3934   0.983   3.223   4.250  0.7745 -0.1066  0.2779
    8MOL     O1 3935   2.824   2.709   4.401  0.4771  0.0203  0.4756
    8MOL     C2 3936   2.749   2.594   4.361 -0.3030  0.5531 -0.5080
    8MOL     C3 3937   2.806   2.541   4.224 -0.5505 -0.5285 -0.1876
    8MOL     C4 3938   2.738   2.413   4.170  0.0150 -0.2033  0.6625
    8MOL     C5 3939   2.794   2.360   4.039  0.4930  0.1091  0.2451
    8MOL     O6 3940   2.710   2.263   3.977  0.2461 -0.2901 -0.3643
    8MOL     C7 3941   2.715   2.133   4.017 -0.0941  0.0611  0.5330
    8MOL     O8 3942   2.791   2.089   4.102 -0.1032  0.2272 -0.5080
    8MOL     C9 3943   2.608   2.045   3.970 -0.5005 -0.0820  0.3548
    8MOL    C10 3944   2.502   2.112   3.898 -0.0026  0.6359  0.4673
    8MOL    C11 3945   2.392   2.034   3.860  0.5152 -0.1909  0.2884
    8MOL    C12 3946   2.382   1.897   3.879  0.2168  0.7854 -0.9268
    8MOL    C13 3947   2.258   1.825   3.843 -0.1117 -0.0886 -0.7032
    8MOL    O14 3948   2.163   1.885   3.785 -0.0485  0.0051  1.2066
    8MOL    C15 3949   2.490   1.834   3.951  0.1910 -0.4449 -0.2422
    8MOL    C16 3950   2.601   1.906   3.990  0.5922 -0.8321  0.0674
    8MOL    H17 3951   2.748   2.521   4.441 -2.9925 -0.0225 -1.0224
    8MOL    H18 3952   2.646   2.628   4.356 -0.5570 -0.2683 -1.0348
    8MOL    H19 3953   2.912   2.521   4.240 -0.5672 -0.5007 -0.0460
    8MOL    H20 3954   2.802   2.620   4.149  2.3351  0.6563  0.8649
    8MOL    H21 3955   2.740   2.333   4.244 -2.7546 -2.9629 -2.1260
    8MOL    H22 3956   2.632   2.431   4.152 -0.4289 -2.8639  0.4829
    8MOL    H23 3957   2.804   2.449   3.978  2.3196 -1.5357 -1.9421
    8MOL    H24 3958   2.891   2.310   4.041  0.5616 -0.0280 -3.2043
    8MOL    H25 3959   2.498   2.219   3.882  0.1794  0.6876  0.7660
    8MOL    H26 3960   2.309   2.083   3.809  2.7509  1.8301 -1.5463
    8MOL    H27 3961   2.480   1.727   3.963 -1.0364 -0.2222  0.7888
    8MOL    H28 3962   2.685   1.862   4.041  0.6327  0.0229  0.7466
    8MOL    H29 3963   2.823   2.767   4.326  2.9259  0.2233  0.5782
    8MOL    O30 3964   2.240   1.705   3.897 -0.0444 -0.3671 -0.2164
    8MOL    C31 3965   2.126   1.626   3.865 -0.2204 -0.1158  0.2114
    8MOL    C32 3966   2.154   1.518   3.771  0.5225  0.4660 -0.1585
    8MOL    C33 3967   2.035   1.417   3.746 -0.4127 -0.9068 -0.4350
    8MOL    C34 3968   2.071   1.320   3.635 -0.3746  0.0344  0.1844
    8MOL    O35 3969   1.983   1.210   3.624 -0.1123 -0.2988  0.0911
    8MOL    C36 3970   1.860   1.226   3.579 -0.3962  0.0411 -0.6602
    8MOL    O37 3971   1.814   1.336   3.544 -0.2399  0.1136 -0.0228
    8MOL    C38 3972   1.777   1.101   3.570  0.6998 -0.6010 -0.3271
    8MOL    C39 3973   1.651   1.097   3.509  0.1244 -0.3167  0.2937
    8MOL    C40 3974   1.565   0.983   3.514 -0.4634  0.0659 -0.3994
    8MOL    C41 3975   1.609   0.864   3.576  0.1312 -0.1266  0.3360
    8MOL    C42 3976   1.529   0.737   3.563 -0.7432 -0.8686  0.0228
    8MOL    O43 3977   1.566   0.639   3.629  0.0635  0.3222 -0.3742
    8MOL    C44 3978   1.739   0.868   3.632 -0.8048  0.3469  0.0522
    8MOL    C45 3979   1.821   0.985   3.640 -0.5959  0.3789  0.0336
    8MOL    H46 3980   2.106   1.570   3.956 -0.8950 -1.2721 -0.6271
    8MOL    H47 3981   2.040   1.687   3.836  0.8574  1.8402  1.0732
    8MOL    H48 3982   2.244   1.462   3.799  1.7528  2.1086 -0.7556
    8MOL    H49 3983   2.174   1.570   3.678 -0.8387  0.4207 -0.4863
    8MOL    H50 3984   2.009   1.368   3.840  0.5075  2.8654  1.9336
    8MOL    H51 3985   1.946   1.473   3.719 -0.1220  0.5253  1.4507
    8MOL    H52 3986   2.074   1.371   3.539 -0.6669  0.5633  0.4566
    8MOL    H53 3987   2.171   1.285   3.659  0.1075  1.1315 -0.2068
    8MOL    H54 3988   1.604   1.187   3.473  0.4600  0.0969  0.8811
    8MOL    H55 3989   1.470   0.972   3.463 -0.4338  0.6896 -0.5940
    8MOL    H56 3990   1.771   0.767   3.657 -1.1430 -0.5429 -2.8884
    8MOL    H57 3991   1.915   0.978   3.693 -0.7115  1.3116  0.3685
    8MOL    O58 3992   1.408   0.756   3.504 -0.1967 -0.0692  0.5705
    8MOL    C59 3993   1.309   0.647   3.497 -0.4454 -1.1453 -0.5870
    8MOL    C60 3994   1.165   0.705   3.539  0.0154 -0.4030 -0.1735
    8MOL    C61 3995   1.161   0.784   3.668 -0.0453  0.2069  0.1915
    8MOL    C62 3996   1.182   0.711   3.800 -0.3827 -0.9033  0.1059
    8MOL    O63 3997   1.059   0.645   3.832  0.0720  0.5685 -0.1418
    8MOL    C64 3998   1.034   0.524   3.783  0.1242 -0.1821 -0.5301
    8MOL    O65 3999   1.113   0.448   3.728 -0.1221  0.7888 -0.3022
    8MOL    C66 4000   0.889   0.495   3.794  0.1789  0.0041 -0.1658
    8MOL    C67 4001   0.802   0.568   3.881 -0.9601  0.2799  0.1236
    8MOL    C68 4002   0.668   0.551   3.881 -0.0725 -0.0964 -0.2873
    8MOL    C69 4003   0.602   0.467   3.788 -0.0727 -0.7279 -0.0305
    8MOL    C70 4004   0.455   0.458   3.784 -0.0816  0.1275 -0.3946
    8MOL    O71 4005   0.371   0.487   3.873 -0.7260 -0.0824 -0.3461
    8MOL    C72 4006   0.684   0.393   3.699 -0.0627  0.0892  0.3119
    8MOL    C73 4007   0.826   0.397   3.708  0.6904 -1.0744 -0.3772
    8MOL    H74 4008   1.299   0.622   3.392 -1.0473 -2.9545 -0.1125
    8MOL    H75 4009   1.336   0.563   3.561  1.6147 -0.0073  0.1163
    8MOL    H76 4010   1.089   0.627   3.541 -1.3256  0.8573 -1.4582
    8MOL    H77 4011   1.134   0.778   3.464  1.5648  1.2642  0.7439
    8MOL    H78 4012   1.232   0.866   3.655  0.7789 -0.0404  2.7611
    8MOL    H79 4013   1.062   0.831   3.675 -0.7952 -1.3700  0.3844
    8MOL    H80 4014   1.267   0.642   3.800  0.4274  0.0537 -2.4173
    8MOL    H81 4015   1.199   0.776   3.887 -0.1168 -1.3199  0.3690
    8MOL    H82 4016   0.850   0.641   3.943 -0.8273 -1.1569  1.7629
    8MOL    H83 4017   0.608   0.613   3.946  1.3350  0.3129  0.6439
    8MOL    H84 4018   0.643   0.325   3.626 -0.3342 -3.0544  3.2558
    8MOL    H85 4019   0.887   0.339   3.640 -0.8227 -1.3164 -1.5591
    8MOL    O86 4020   0.415   0.417   3.667  0.1483 -0.3759 -0.0262
    8MOL    C87 4021   0.283   0.451   3.623 -0.0606  0.3596 -0.3327
    8MOL    C88 4022   0.267   0.411   3.472 -0.5581 -0.1864 -0.4905
    8MOL    C89 4023   0.124   0.444   3.414 -0.6103  0.2565  0.3523
    8MOL    C90 4024   0.115   0.450   3.261 -0.0337  0.3195 -0.2354
    8MOL    O91 4025   8.085   0.494   3.203 -0.8703  0.5789  0.0334
    8MOL    C92 4026   7.976   0.415   3.203 -0.5527 -0.2714  0.9286
    8MOL    O93 4027   7.973   0.298   3.232 -0.3006  0.1720 -0.1819
    8MOL    C94 4028   7.855   0.490   3.161  0.3808  0.0748 -0.6660
    8MOL    C95 4029   7.733   0.433   3.213  0.5609 -0.1179  0.2873
    8MOL    C96 4030   7.618   0.499   3.181  0.2318  0.9250  0.3090
    8MOL    C97 4031   7.616   0.621   3.105  0.1657 -0.5143  0.1285
    8MOL    C98 4032   7.483   0.684   3.070  0.6101 -0.4560  0.2098
    8MOL    O99 4033   7.376   0.652   3.121  0.0966  0.2383 -0.0186
    8MOL   C100 4034   7.736   0.681   3.065  0.2476 -0.3987 -0.1471
    8MOL   C101 4035   7.857   0.616   3.093 -0.1132  0.0864 -0.8808
    8MOL   H102 4036   0.208   0.408   3.690 -0.8355  1.0808 -0.7233
    8MOL   H103 4037   0.262   0.556   3.643 -0.2344  0.4480 -0.9791
    8MOL   H104 4038   0.282   0.304   3.457  2.6722  0.3080 -0.9975
    8MOL   H105 4039   0.341   0.464   3.412  1.2369 -0.5656  1.3371
    8MOL   H106 4040   0.063   0.356   3.431 -0.5837  0.2936  0.6495
    8MOL   H107 4041   0.078   0.535   3.454  1.0584  1.7440 -1.0114
    8MOL   H108 4042   0.189   0.517   3.216 -0.1109 -0.7602 -2.0090
    8MOL   H109 4043   0.142   0.354   3.216  2.6394  0.3382  1.2385
    8MOL   H110 4044   7.727   0.343   3.271 -1.2909  0.0373  0.3597
    8MOL   H111 4045   7.526   0.459   3.219  0.1091  1.5465  0.6758
    8MOL   H112 4046   7.735   0.774   3.008 -0.1435  0.6989  1.6156
    8MOL   H113 4047   7.952   0.665   3.079 -0.0815  0.0528 -0.7853
    8MOL   O114 4048   7.500   0.780   2.975  0.0114  0.3710 -0.2872
    8MOL   C115 4049   7.394   0.856   2.919  0.6586 -0.2015  0.2490
    8MOL   C116 4050   7.371   0.815   2.771 -0.1671 -0.3926 -0.0037
    8MOL   C117 4051   7.240   0.875   2.720 -0.3728 -0.1184  0.2736
    8MOL   C118 4052   7.189   0.817   2.592 -0.1536  0.4810  0.4331
    8MOL   O119 4053   7.269   0.863   2.489 -0.0936 -0.6546 -0.0111
    8MOL   C120 4054   7.282   0.782   2.383  0.2021  0.0962 -0.0983
    8MOL   O121 4055   7.234   0.671   2.371 -0.2281  0.5255  0.5800
    8MOL   C122 4056   7.382   0.835   2.286  0.4813 -0.2273  0.6181
    8MOL   C123 4057   7.419   0.746   2.181 -0.0926 -0.3015  0.0649
    8MOL   C124 4058   7.495   0.795   2.070 -0.4295  0.6514 -0.3505
    8MOL   C125 4059   7.562   0.921   2.079  0.7350 -0.5872  0.2886
    8MOL   C126 4060   7.663   0.972   1.977  0.1506  0.9425 -0.1970
    8MOL   O127 4061   7.745   1.059   1.994 -0.0360 -0.2833 -0.3251
    8MOL   C128 4062   7.535   0.997   2.191 -0.5431 -0.3208 -1.0755
    8MOL   C129 4063   7.446   0.959   2.299  0.0811  0.3676  0.6045
    8MOL   H130 4064   7.306   0.833   2.979  2.7990 -2.3613  2.6996
    8MOL   H131 4065   7.410   0.963   2.932  0.2518 -0.2390  1.1605
    8MOL   H132 4066   7.371   0.706   2.765 -0.0729 -0.4792  1.4194
    8MOL   H133 4067   7.451   0.859   2.711 -0.5260  1.8317  1.0736
    8MOL   H134 4068   7.163   0.850   2.793  0.6043 -3.9499  0.1124
    8MOL   H135 4069   7.246   0.983   2.712 -1.1485 -0.1851 -1.3981
    8MOL   H136 4070   7.192   0.709   2.599  0.5109  0.4806  0.1581
    8MOL   H137 4071   7.081   0.832   2.581 -0.4820 -1.0578  1.4211
    8MOL   H138 4072   7.367   0.653   2.162  0.1394 -0.2323 -0.9404
    8MOL   H139 4073   7.506   0.732   1.983  2.7065 -1.0008  1.1243
    8MOL   H140 4074   7.588   1.091   2.186 -0.1014 -0.5821 -1.2751
    8MOL   H141 4075   7.419   1.022   2.382  0.5351  1.4036 -0.0341
    8MOL   O142 4076   7.665   0.897   1.867 -0.3887 -0.2465  0.0327
    8MOL   C143 4077   7.732   0.940   1.756  0.4612  0.0105  0.4745
    8MOL   C144 4078   7.713   0.828   1.653  0.5262 -0.2639 -0.8391
    8MOL   C145 4079   7.776   0.834   1.517 -0.3839 -0.1529  0.0893
    8MOL   C146 4080   7.758   0.699   1.440  0.7186  0.2768 -0.3925
    8MOL   O147 4081   7.841   0.693   1.322 -0.4389 -0.1211  0.1849
    8MOL   C148 4082   7.898   0.580   1.276  0.2801  1.1309 -0.1717
    8MOL   O149 4083   7.855   0.470   1.309  0.4410 -0.1378 -0.0980
    8MOL   C150 4084   8.013   0.609   1.184  0.1753 -0.3471  0.5819
    8MOL   C151 4085   8.054   0.742   1.158  0.3267  0.2577  0.0878
    8MOL   C152 4086   0.061   0.759   1.078  0.0719 -0.5235 -0.1433
    8MOL   C153 4087   0.132   0.657   1.015 -0.5635  0.3034  0.0225
    8MOL   C154 4088   0.247   0.683   0.933 -0.4416  0.0471  0.8716
    8MOL   O155 4089   0.287   0.597   0.857 -0.1626 -0.1265  0.0985
    8MOL   C156 4090   0.088   0.524   1.039  0.4546  0.1724  0.2380
    8MOL   C157 4091   8.084   0.502   1.132  0.4488  0.0385  0.5613
    8MOL   H158 4092   7.692   1.036   1.726  0.6541 -0.5380 -1.6611
    8MOL   H159 4093   7.837   0.951   1.783  0.7349 -1.6382  0.1546
    8MOL   H160 4094   7.605   0.839   1.645  0.3854 -0.8859  0.1319
    8MOL   H161 4095   7.734   0.735   1.706  3.5285  0.1350 -1.2447
    8MOL   H162 4096   7.741   0.924   1.467 -0.1962  0.6938  1.4551
    8MOL   H163 4097   7.883   0.846   1.531 -0.8962  1.0783  3.5690
    8MOL   H164 4098   7.784   0.622   1.512  0.4117  0.7468  0.2307
    8MOL   H165 4099   7.654   0.688   1.408  0.5540 -3.1087  1.1280
    8MOL   H166 4100   7.992   0.824   1.194 -1.5520 -0.9775 -0.2576
    8MOL   H167 4101   0.079   0.865   1.066  0.0097 -0.1953  2.4914
    8MOL   H168 4102   0.128   0.442   0.980 -1.1736 -1.0269  0.7839
    8MOL   H169 4103   8.040   0.404   1.143  1.5324 -0.7730 -2.0236
    8MOL   O170 4104   0.291   0.804   0.938 -0.0650 -0.2862 -0.5072
    8MOL   C171 4105   0.408   0.836   0.863  0.5367  0.1142 -0.2998
    8MOL   C172 4106   0.526   0.880   0.949 -0.0550 -0.1107 -0.3660
    8MOL   C173 4107   0.491   1.006   1.034  0.3781 -0.6570 -0.0557
    8MOL   C174 4108   0.433   1.121   0.953 -0.2748 -0.4785  0.1866
    8MOL   O175 4109   0.297   1.120   0.932  0.8552 -0.0349 -0.1285
    8MOL   C176 4110   0.235   1.226   0.867  0.3365  0.0529 -0.0480
    8MOL   O177 4111   0.290   1.326   0.826  0.6180  0.2298  0.0105
    8MOL   C178 4112   0.088   1.209   0.869  0.1584 -0.3364  0.4576
    8MOL   C179 4113   0.015   1.334   0.862  0.5332 -0.2732  0.3240
    8MOL   C180 4114   7.978   1.326   0.864  0.2138 -0.5440 -0.0496
    8MOL   C181 4115   7.912   1.203   0.865 -0.2550  1.0117 -0.6477
    8MOL   C182 4116   7.765   1.199   0.865 -0.2058  0.1887 -0.1902
    8MOL   O183 4117   7.694   1.295   0.903  0.0807  0.9802  0.0600
    8MOL   C184 4118   7.984   1.081   0.871 -0.2003  0.2280  0.2552
    8MOL   C185 4119   0.022   1.084   0.876  0.0062 -0.4535 -0.3732
    8MOL   H186 4120   0.453   0.751   0.812 -0.8128 -1.1360  0.5487
    8MOL   H187 4121   0.373   0.908   0.789  1.9290  0.6431 -0.4570
    8MOL   H188 4122   0.608   0.887   0.878 -1.9173 -0.2313 -2.5710
    8MOL   H189 4123   0.557   0.798   1.014  0.5532  0.0711 -0.4276
    8MOL   H190 4124   0.417   0.985   1.111 -0.0953 -3.1059 -1.1218
    8MOL   H191 4125   0.584   1.037   1.081  0.4207 -3.0766  1.5309
    8MOL   H192 4126   0.456   1.202   1.023 -0.3120 -0.4731  0.1928
    8MOL   H193 4127   0.484   1.141   0.859 -1.0689 -0.5227 -0.2561
    8MOL   H194 4128   0.062   1.431   0.864 -0.1872  0.0740  0.7262
    8MOL   H195 4129   7.924   1.418   0.874  1.1335 -0.2479  2.3272
    8MOL   H196 4130   7.942   0.982   0.874  0.2708  0.0033 -0.4461
    8MOL   H197 4131   0.081   0.994   0.864  0.7365  0.3552 -3.1968
    8MOL   O198 4132   7.710   1.089   0.818  0.0454  0.4792  0.5056
    8MOL   C199 4133   7.573   1.075   0.787  0.5333  0.4338  0.4581
    8MOL   C200 4134   7.539   0.995   0.660 -0.3787 -0.2299  0.3279
    8MOL   C201 4135   7.556   0.835   0.689  0.1901 -0.0512 -0.6416
    8MOL   C202 4136   7.463   0.755   0.594  0.2111  0.1333  0.1732
    8MOL   O203 4137   7.436   0.622   0.637 -0.2002 -0.6136  0.2333
    8MOL   C204 4138   7.323   0.557   0.602  0.1585 -0.3185 -0.4402
    8MOL   O205 4139   7.237   0.606   0.535 -0.8058 -0.0406  0.4616
    8MOL   C206 4140   7.315   0.416   0.651  0.0567  0.3317 -0.5395
    8MOL   C207 4141   7.203   0.334   0.615 -0.1987  1.0456  0.1871
    8MOL   C208 4142   7.191   0.200   0.665  0.2558  0.6923 -0.2486
    8MOL   C209 4143   7.301   0.152   0.737 -0.2528  0.3567 -0.6584
    8MOL   C210 4144   7.303   0.011   0.779  0.0964  0.2691 -0.3244
    8MOL   O211 4145   7.386   8.067   0.857 -0.6983  0.0510  0.3276
    8MOL   C212 4146   7.418   0.229   0.768 -0.2302 -0.7363 -0.0154
    8MOL   C213 4147   7.418   0.363   0.731  0.2855 -0.2437 -0.2931
    8MOL   H214 4148   7.532   1.011   0.865  0.4052  0.4196  0.3786
    8MOL   H215 4149   7.522   1.170   0.798  0.1002  0.2644 -0.0612
    8MOL   H216 4150   7.605   1.035   0.583  0.0738 -1.8455 -0.1371
    8MOL   H217 4151   7.440   1.025   0.625  0.2219  0.2106 -0.9993
    8MOL   H218 4152   7.656   0.801   0.662  0.5350 -0.4774  1.1019
    8MOL   H219 4153   7.537   0.812   0.794  3.4235  1.5083  0.3277
    8MOL   H220 4154   7.372   0.816   0.592 -1.6045 -2.5409 -1.8951
    8MOL   H221 4155   7.481   0.771   0.487  0.6401  0.5495  0.3041
    8MOL   H222 4156   7.119   0.374   0.561 -1.5800 -2.1127 -0.1029
    8MOL   H223 4157   7.094   0.154   0.650 -0.8620  2.0846  2.3814
    8MOL   H224 4158   7.497   0.189   0.831  0.9303  0.4846 -0.6784
    8MOL   H225 4159   7.499   0.418   0.777 -1.4236  0.3459  2.0812
    8MOL   O226 4160   7.212   8.025   0.708 -0.5167 -0.4698 -0.2586
    8MOL   C227 4161   7.224   7.885   0.725  0.8743 -0.7976 -0.3951
    8MOL   C228 4162   7.343   7.842   0.631  0.1898 -0.0567 -0.4959
    8MOL   C229 4163   7.394   7.700   0.654  0.1482 -0.0726  0.4273
    8MOL   C230 4164   7.493   7.691   0.771 -0.1217 -0.6544  0.3408
    8MOL   O231 4165   7.431   7.713   0.900  0.4403  0.1311  0.1017
    8MOL   C232 4166   7.509   7.745   1.011 -0.9949  0.4810 -0.2796
    8MOL   O233 4167   7.634   7.734   1.001 -0.6998 -0.1818 -0.9441
    8MOL   C234 4168   7.440   7.778   1.142 -0.0828  0.1289  0.0815
    8MOL   C235 4169   7.298   7.792   1.143  0.4821  0.2188 -0.6742
    8MOL   C236 4170   7.236   7.836   1.260 -0.7368 -0.3875  0.8086
    8MOL   C237 4171   7.303   7.854   1.382 -0.3995 -0.6664 -0.3243
    8MOL   C238 4172   7.240   7.907   1.510 -0.3408  0.0334 -0.4047
    8MOL   O239 4173   7.289   7.880   1.622  0.5696 -0.1349  0.2987
    8MOL   C240 4174   7.443   7.837   1.378  0.1646 -0.7341 -0.0245
    8MOL   C241 4175   7.509   7.798   1.266 -0.2505 -0.1099 -0.0606
    8MOL   H242 4176   7.247   7.866   0.830  1.7467  0.3253 -0.3767
    8MOL   H243 4177   7.132   7.841   0.686 -1.6571  1.9669  2.2151
    8MOL   H244 4178   7.432   7.901   0.652 -1.7112  2.0215  2.0386
    8MOL   H245 4179   7.322   7.856   0.525 -1.1305  2.1435  0.0117
    8MOL   H246 4180   7.307   7.634   0.660 -1.0185  1.3775 -0.0678
    8MOL   H247 4181   7.456   7.660   0.574 -0.7215 -0.7461  0.0704
    8MOL   H248 4182   7.542   7.594   0.772 -0.1790 -0.6796  1.4728
    8MOL   H249 4183   7.579   7.756   0.760  0.3967 -1.0520  1.9400
    8MOL   H250 4184   7.244   7.772   1.051  1.2367 -3.3367 -0.4308
    8MOL   H251 4185   7.129   7.854   1.265 -0.8138  0.1161 -1.9576
    8MOL   H252 4186   7.506   7.839   1.466 -0.4840 -1.3454  0.4562
    8MOL   H253 4187   7.617   7.802   1.261 -0.2901 -1.5017 -3.1497
    8MOL   O254 4188   7.122   7.966   1.495  0.2867  0.1626  0.1662
    8MOL   C255 4189   7.048   8.006   1.609 -0.1078  0.4133  0.0722
    8MOL   C256 4190   7.070   0.048   1.655  0.1642 -0.0112 -0.1205
    8MOL   C257 4191   7.205   0.080   1.730 -1.0713  0.0697 -0.0978
    8MOL   C258 4192   7.233   0.228   1.752  0.5373 -0.0096  0.3560
    8MOL   O259 4193   7.138   0.271   1.849  0.0575  0.4692 -0.5557
    8MOL   C260 4194   7.184   0.351   1.948  0.1052  0.2915  0.0876
    8MOL   O261 4195   7.296   0.403   1.944 -0.5009  0.9807  0.0940
    8MOL   C262 4196   7.094   0.360   2.064  0.2176 -0.8342  0.3649
    8MOL   C263 4197   6.965   0.294   2.055  0.6221  0.2577  0.0594
    8MOL   C264 4198   6.888   0.286   2.172 -0.5633 -0.4710  0.3216
    8MOL   C265 4199   6.941   0.317   2.295  0.5177 -0.2350  1.3122
    8MOL   C266 4200   6.864   0.290   2.414  0.1066 -0.6382  0.1970
    8MOL   O267 4201   6.751   0.244   2.406 -0.3595  0.2616  0.0281
    8MOL   C268 4202   7.071   0.374   2.305  0.6201  0.4191  0.2421
    8MOL   C269 4203   7.144   0.403   2.188  0.5003  0.9755 -0.1267
    8MOL   H270 4204   6.941   8.000   1.587 -0.7856  2.6846  2.4807
    8MOL   H271 4205   7.062   7.932   1.687  0.3762 -0.5725 -0.9316
    8MOL   H272 4206   6.992   0.067   1.728 -2.2763  0.3496 -2.7321
    8MOL   H273 4207   7.044   0.111   1.570  2.7797 -0.3541 -1.2329
    8MOL   H274 4208   7.205   0.022   1.823  0.8752  1.6189  0.9150
    8MOL   H275 4209   7.288   0.050   1.666 -0.5701  0.4166  0.3854
    8MOL   H276 4210   7.336   0.239   1.785  0.3480  1.2543  0.5308
    8MOL   H277 4211   7.218   0.281   1.658  1.7304  1.1106  0.7799
    8MOL   H278 4212   6.935   0.255   1.959  0.1546 -3.2154  1.5314
    8MOL   H279 4213   6.784   0.259   2.168 -1.0021  0.8815  2.0787
    8MOL   H280 4214   7.111   0.400   2.401  1.6553  1.8654 -0.5564
    8MOL   H281 4215   7.235   0.461   2.194  1.6890 -0.7872 -0.6703
    8MOL   O282 4216   6.937   0.313   2.534 -0.3080 -0.0133 -0.0255
    8MOL   C283 4217   6.874   0.276   2.650  0.2521 -1.1812  0.1265
    8MOL   C284 4218   6.951   0.163   2.730  0.0175 -0.6024  0.2447
    8MOL   C285 4219   7.000   0.051   2.640  0.6232  0.1424 -0.2981
    8MOL   C286 4220   7.049   8.028   2.715  0.3606 -0.2100 -0.5451
    8MOL   O287 4221   7.082   7.919   2.628  0.3027 -0.3773 -0.1727
    8MOL   C288 4222   7.018   7.799   2.619  0.6560 -0.4172 -0.0161
    8MOL   O289 4223   6.925   7.771   2.703  0.2649 -0.2820  0.3805
    8MOL   C290 4224   7.058   7.724   2.499 -0.4143 -0.6885 -0.4872
    8MOL   C291 4225   7.152   7.784   2.408  0.3827 -0.5997 -1.1929
    8MOL   C292 4226   7.195   7.715   2.291  0.2265  0.2348  0.5491
    8MOL   C293 4227   7.133   7.597   2.255 -0.3118 -0.4956  0.6776
    8MOL   C294 4228   7.169   7.523   2.132 -0.2642  0.1891  0.0038
    8MOL   O295 4229   7.094   7.449   2.071  0.6220  0.1733 -0.0983
    8MOL   C296 4230   7.042   7.540   2.344 -0.5884  0.1329 -0.0053
    8MOL   C297 4231   6.999   7.602   2.462  0.0341  0.3415  0.4124
    8MOL   H298 4232   6.858   0.365   2.712  0.0911 -0.0100 -1.5745
    8MOL   H299 4233   6.770   0.248   2.639 -0.1955  0.0020  1.0924
    8MOL   H300 4234   6.891   0.133   2.816 -1.0462  2.3425  0.6071
    8MOL   H301 4235   7.041   0.213   2.767  1.7513 -2.6675 -1.1126
    8MOL   H302 4236   6.935   0.010   2.562 -1.5080 -4.0189  3.4538
    8MOL   H303 4237   7.083   0.088   2.580  0.0550  0.3114 -0.9919
    8MOL   H304 4238   7.132   8.041   2.784  0.3905  1.5077 -0.8661
    8MOL   H305 4239   6.962   7.997   2.773  1.2361 -0.1129  0.8447
    8MOL   H306 4240   7.188   7.885   2.409 -0.4398 -0.2906  0.9470
    8MOL   H307 4241   7.258   7.770   2.223 -1.4239  0.2511 -0.9970
    8MOL   H308 4242   7.006   7.443   2.314  2.1571 -0.7677 -0.5027
    8MOL   H309 4243   6.917   7.562   2.520 -0.4410  0.8268  0.0755
    8MOL   O310 4244   7.300   7.549   2.095 -0.0055 -0.1824  0.8299
    8MOL   C311 4245   7.353   7.482   1.981  0.9847 -0.4653 -0.7326
    8MOL   C312 4246   7.495   7.523   1.951 -0.0515 -0.6723  0.5083
    8MOL   C313 4247   7.519   7.674   1.929  0.8147 -0.8138 -0.1188
    8MOL   C314 4248   7.646   7.697   1.843  0.3727 -0.2172  0.3571
    8MOL   O315 4249   7.649   7.836   1.810 -0.3525  0.6532 -0.0104
    8MOL   C316 4250   7.688   7.885   1.689  0.1558 -0.6141  0.2472
    8MOL   O317 4251   7.761   7.816   1.604  0.0151 -0.4079 -0.1138
    8MOL   C318 4252   7.649   8.031   1.674  0.1300  0.1488  0.2673
    8MOL   C319 4253   7.605   0.012   1.785  0.4206  0.0147 -0.1273
    8MOL   C320 4254   7.579   0.150   1.767 -0.3852  1.1636 -0.6615
    8MOL   C321 4255   7.607   0.216   1.644  0.0397 -0.6442 -0.3973
    8MOL   C322 4256   7.581   0.362   1.617  0.8054 -0.2957 -0.7465
    8MOL   O323 4257   7.612   0.428   1.518 -0.1513 -0.1750 -0.4811
    8MOL   C324 4258   7.650   0.135   1.536 -0.0211  0.0952 -0.6678
    8MOL   C325 4259   7.680   0.001   1.557  0.0954 -0.1784  0.4448
    8MOL   H326 4260   7.347   7.375   2.002  0.2621 -0.2365  0.2537
    8MOL   H327 4261   7.285   7.508   1.900  0.4133  1.1754  0.2554
    8MOL   H328 4262   7.525   7.476   1.857  1.2417  1.0922  0.0169
    8MOL   H329 4263   7.553   7.484   2.034 -1.7345 -0.0350  2.0218
    8MOL   H330 4264   7.443   7.706   1.857  0.3155  1.9581  1.5833
    8MOL   H331 4265   7.509   7.739   2.016 -1.7057  0.1035 -1.0448
    8MOL   H332 4266   7.738   7.668   1.895  1.3344  0.5066 -0.9186
    8MOL   H333 4267   7.640   7.641   1.750  0.3114 -2.4081  1.6416
    8MOL   H334 4268   7.591   8.067   1.882  1.3468 -0.5027 -0.2244
    8MOL   H335 4269   7.541   0.209   1.849  1.4499 -0.0707  1.1220
    8MOL   H336 4270   7.671   0.171   1.437  1.2408 -1.1865 -0.8984
    8MOL   H337 4271   7.707   8.036   1.474 -0.6382 -0.6575  0.5577
    8MOL   O338 4272   7.516   0.413   1.718 -0.5844  0.0416 -0.0368
    8MOL   C339 4273   7.507   0.559   1.730 -0.0599  0.6507  0.8236
    8MOL   C340 4274   7.373   0.597   1.663 -0.4951 -0.0305  0.2265
    8MOL   C341 4275   7.345   0.565   1.512 -0.3341 -0.0201 -0.5099
    8MOL   C342 4276   7.221   0.629   1.445  0.7897 -0.0288 -0.1471
    8MOL   O343 4277   7.102   0.581   1.500  0.5689  0.1404  0.9739
    8MOL   C344 4278   6.989   0.646   1.474 -0.0078  0.2355 -0.3054
    8MOL   O345 4279   6.970   0.750   1.404 -0.4538  0.3790 -0.3331
    8MOL   C346 4280   6.872   0.573   1.543  0.4620 -0.1278  0.6673
    8MOL   C347 4281   6.735   0.614   1.539  0.1206 -0.2954  0.0224
    8MOL   C348 4282   6.634   0.550   1.615 -0.0897 -0.1392 -0.8652
    8MOL   C349 4283   6.662   0.431   1.676 -0.6135 -0.5677  0.2793
    8MOL   C350 4284   6.559   0.344   1.738  0.3290  0.4195 -0.6720
    8MOL   O351 4285   6.441   0.373   1.749 -0.9408 -0.5677 -0.4685
    8MOL   C352 4286   6.798   0.384   1.685  0.1200  0.8300  0.2555
    8MOL   C353 4287   6.897   0.453   1.616 -0.7494 -0.0302 -0.4202
    8MOL   H354 4288   7.519   0.587   1.835 -1.5490  2.2139  0.5957
    8MOL   H355 4289   7.592   0.601   1.675  0.2370  0.2333  0.9681
    8MOL   H356 4290   7.372   0.706   1.666 -2.0479  0.0435 -2.0771
    8MOL   H357 4291   7.286   0.573   1.725 -0.0939 -0.3602  0.6610
    8MOL   H358 4292   7.426   0.592   1.445 -0.8311  1.0215 -0.7054
    8MOL   H359 4293   7.335   0.457   1.500 -0.5023  0.0676 -1.1902
    8MOL   H360 4294   7.215   0.738   1.451 -1.8234 -0.0952 -0.7074
    8MOL   H361 4295   7.217   0.609   1.338  1.3814  1.3724 -0.4460
    8MOL   H362 4296   6.714   0.705   1.484 -0.1256 -0.6269 -0.4293
    8MOL   H363 4297   6.531   0.583   1.619  0.4261  1.1909  3.2122
    8MOL   H364 4298   6.822   0.292   1.736 -1.5033 -0.8604 -1.9852
    8MOL   H365 4299   6.996   0.409   1.624 -1.9885 -2.6895  0.8253
    8MOL   O366 4300   6.609   0.228   1.773  0.3614  0.1062  0.2580
    8MOL   C367 4301   6.518   0.123   1.808 -0.1882 -0.5453  0.6384
    8MOL   C368 4302   6.611   8.090   1.800  0.2745 -0.1932 -0.5106
    8MOL   C369 4303   6.708   8.088   1.919 -0.5503 -0.4420  0.0785
    8MOL   C370 4304   6.813   7.980   1.908  0.2080 -0.3782  0.3533
    8MOL   O371 4305   6.919   8.001   2.000  0.1375  0.3128  0.5481
    8MOL   C372 4306   7.031   7.933   1.983 -0.1888 -0.5618 -0.2988
    8MOL   O373 4307   7.038   7.831   1.920  0.2852  0.2473 -0.2001
    8MOL   C374 4308   7.150   7.986   2.057 -0.4699  0.2687  0.3528
    8MOL   C375 4309   7.282   7.966   2.008 -1.0200 -0.0475  0.5130
    8MOL   C376 4310   7.395   8.004   2.077 -0.0314  0.0687  0.3426
    8MOL   C377 4311   7.382   8.084   2.193  1.2178 -0.0669  0.2100
    8MOL   C378 4312   7.502   0.038   2.262  0.8881  0.4281  0.3731
    8MOL   O379 4313   7.498   0.073   2.379  0.5467 -0.0514 -0.0472
    8MOL   C380 4314   7.257   0.006   2.247  0.2836  0.1700 -0.2824
    8MOL   C381 4315   7.141   8.060   2.179 -0.6591  0.2223  0.1151
    8MOL   H382 4316   6.485   0.136   1.911 -0.4973 -0.2059  0.4965
    8MOL   H383 4317   6.426   0.118   1.750 -0.1635 -1.3333  0.6613
    8MOL   H384 4318   6.659   0.003   1.703  2.9006  3.2890  1.0986
    8MOL   H385 4319   6.546   8.002   1.798 -2.1410  1.5837 -1.6866
    8MOL   H386 4320   6.761   0.083   1.936 -2.7188  0.5416  1.5112
    8MOL   H387 4321   6.649   8.076   2.010 -1.2119  0.6706 -0.2037
    8MOL   H388 4322   6.759   7.890   1.935 -3.0198  1.3079 -0.1993
    8MOL   H389 4323   6.848   7.973   1.805  1.1706  0.6678  0.5898
    8MOL   H390 4324   7.296   7.902   1.922 -1.3302  2.1669 -1.2142
    8MOL   H391 4325   7.487   7.958   2.041 -1.1240 -1.5373 -0.4853
    8MOL   H392 4326   7.245   0.059   2.341 -0.3340  0.1647 -0.3559
    8MOL   H393 4327   7.043   8.081   2.220 -0.4452  0.4406  0.5128
    8MOL   O394 4328   7.610   0.053   2.187 -0.8272  0.1961 -0.3329
    8MOL   C395 4329   7.725   0.130   2.225  0.3585 -0.3460 -0.3689
    8MOL   C396 4330   7.733   0.229   2.116 -0.0455  0.2352 -0.1978
    8MOL   C397 4331   7.630   0.342   2.117 -0.2816 -0.0265 -0.4494
    8MOL   C398 4332   7.698   0.483   2.088  0.2970  0.5272 -0.1598
    8MOL   O399 4333   7.762   0.478   1.965  0.0811  0.5560 -0.4742
    8MOL   C400 4334   7.845   0.586   1.932  1.0489  0.1480 -0.7220
    8MOL   O401 4335   7.866   0.686   2.005  0.2849 -0.2678  0.9060
    8MOL   C402 4336   7.911   0.567   1.801 -0.1580  0.1087 -0.0409
    8MOL   C403 4337   7.916   0.441   1.739  0.5085 -0.2414 -0.0391
    8MOL   C404 4338   7.990   0.428   1.620  0.0777  0.9531  0.1311
    8MOL   C405 4339   8.076   0.530   1.573 -0.3296 -0.5848  0.2213
    8MOL   C406 4340   0.080   0.503   1.462 -0.4139 -0.5646  0.1562
    8MOL   O407 4341   0.091   0.395   1.410  0.3380 -0.0672  0.3924
    8MOL   C408 4342   8.074   0.654   1.641 -0.8867 -0.1969  0.0635
    8MOL   C409 4343   7.988   0.676   1.754 -0.2518 -0.1363 -0.4728
    8MOL   H410 4344   7.710   0.181   2.321  1.1696  1.4948 -1.2070
    8MOL   H411 4345   7.814   0.069   2.238  0.1926 -0.5288 -0.0685
    8MOL   H412 4346   7.720   0.184   2.017 -0.9310  0.2072 -0.0746
    8MOL   H413 4347   7.832   0.271   2.102  0.1844 -0.0172  0.6692
    8MOL   H414 4348   7.548   0.326   2.046 -0.9056  1.8109 -0.1599
    8MOL   H415 4349   7.576   0.351   2.212 -2.1278  0.0981 -1.4807
    8MOL   H416 4350   7.630   0.567   2.102  0.7470  1.1324 -1.5596
    8MOL   H417 4351   7.776   0.504   2.161  0.3864 -1.7825  0.4646
    8MOL   H418 4352   7.854   0.362   1.780 -0.9048  0.2131 -1.2563
    8MOL   H419 4353   7.984   0.336   1.564  1.5215  1.6058 -1.1590
    8MOL   H420 4354   0.050   0.729   1.616  1.4905 -2.2278  0.7657
    8MOL   H421 4355   7.991   0.769   1.809  0.4943 -0.9730  0.9395
    8MOL   O422 4356   0.154   0.611   1.430  0.4315 -0.4121 -0.2314
    8MOL   C423 4357   0.276   0.605   1.353  0.4842  0.2710 -0.2287
    8MOL   C424 4358   0.328   0.751   1.320  0.4955 -0.2574 -0.9542
    8MOL   C425 4359   0.462   0.781   1.380 -0.2185  0.8749 -0.4207
    8MOL   C426 4360   0.460   0.839   1.519  0.3121 -0.5447 -0.4966
    8MOL   O427 4361   0.382   0.761   1.617 -0.6965  0.4420  0.0164
    8MOL   C428 4362   0.394   0.784   1.745 -0.1604  0.4505 -0.0764
    8MOL   O429 4363   0.455   0.879   1.793 -0.3820 -0.3789  0.0089
    8MOL   C430 4364   0.323   0.679   1.827 -0.1084 -0.3287 -0.4789
    8MOL   C431 4365   0.310   0.705   1.967  0.0925 -0.1738 -0.1413
    8MOL   C432 4366   0.253   0.612   2.047 -0.5322 -0.7702  0.0160
    8MOL   C433 4367   0.200   0.492   1.995  0.3823  0.6993 -0.1092
    8MOL   C434 4368   0.113   0.401   2.073 -0.4646 -0.1381  0.0938
    8MOL   O435 4369   0.079   0.289   2.034  0.2191  0.0089  0.0398
    8MOL   C436 4370   0.234   0.454   1.862 -0.9368  0.3547  0.1246
    8MOL   C437 4371   0.305   0.549   1.779  0.4583 -0.3122  0.1750
    8MOL   H438 4372   0.354   0.553   1.408  0.7573  1.1812  0.2512
    8MOL   H439 4373   0.258   0.547   1.262  0.4071  0.5361 -0.3841
    8MOL   H440 4374   0.254   0.830   1.338 -1.4271 -2.4439  1.2679
    8MOL   H441 4375   0.329   0.743   1.212  1.3952 -1.6213 -0.8467
    8MOL   H442 4376   0.519   0.689   1.364  0.7341  1.2911  0.5071
    8MOL   H443 4377   0.524   0.843   1.315 -0.6203 -0.6286 -2.2724
    8MOL   H444 4378   0.559   0.849   1.563  0.4600  0.7834 -1.1034
    8MOL   H445 4379   0.416   0.939   1.528  1.1307 -0.3741  1.8745
    8MOL   H446 4380   0.338   0.801   2.007 -0.3120 -0.1618  0.1225
    8MOL   H447 4381   0.233   0.630   2.151 -1.3387 -0.4655 -0.1876
    8MOL   H448 4382   0.207   0.362   1.812  2.3692 -0.2398 -0.7280
    8MOL   H449 4383   0.319   0.520   1.675  2.7313  0.1098  0.3360
    8MOL   O450 4384   0.078   0.447   2.190 -0.5054  0.0838  0.4888
    8MOL   C451 4385   8.082   0.366   2.253 -0.8220 -0.0414 -0.5889
    8MOL   C452 4386   8.054   0.424   2.391 -0.1684  0.5727 -0.1718
    8MOL   C453 4387   0.065   0.395   2.493  0.1406 -0.3354  0.3057
    8MOL   C454 4388   0.021   0.433   2.633 -0.2000 -0.2538 -0.5923
    8MOL   O455 4389   8.022   0.337   2.672  0.0350 -0.2760  0.0229
    8MOL   C456 4390   7.939   0.369   2.765 -0.1844  0.1704  0.1527
    8MOL   O457 4391   7.951   0.466   2.843 -0.0162 -0.2030  0.6239
    8MOL   C458 4392   7.826   0.269   2.766 -0.3826 -0.2754  0.2830
    8MOL   C459 4393   7.804   0.178   2.661  0.1815  0.7874 -0.3480
    8MOL   C460 4394   7.693   0.091   2.655 -0.2926  0.2713  0.2240
    8MOL   C461 4395   7.597   0.095   2.754  0.3875  0.4120 -0.4265
    8MOL   C462 4396   7.489   0.003   2.768 -0.7052  0.1684 -0.2065
    8MOL   O463 4397   7.378   0.038   2.801 -0.8779 -0.4601 -0.1469
    8MOL   C464 4398   7.606   0.191   2.857  0.2267  0.4343 -0.4071
    8MOL   C465 4399   7.721   0.276   2.859  0.7482 -0.8701  0.0638
    8MOL   H466 4400   7.994   0.367   2.188  0.0120 -0.0827 -1.7444
    8MOL   H467 4401   0.022   0.265   2.264 -0.5629 -0.0745 -1.6970
    8MOL   H468 4402   7.956   0.387   2.421 -0.7208  1.0609 -1.3446
    8MOL   H469 4403   8.041   0.532   2.388  0.9110  0.6737 -2.0115
    8MOL   H470 4404   0.093   0.290   2.492 -0.9549 -0.6809 -3.6422
    8MOL   H471 4405   0.158   0.446   2.471 -0.4050  0.7108  0.3774
    8MOL   H472 4406   0.108   0.437   2.698 -0.4082 -0.8817 -0.2684
    8MOL   H473 4407   8.074   0.531   2.620  0.5942  0.2594  0.4690
    8MOL   H474 4408   7.870   0.164   2.577  1.8522  0.2032  1.0147
    8MOL   H475 4409   7.697   0.016   2.577  0.0466  0.7518 -0.2269
    8MOL   H476 4410   7.536   0.192   2.940 -0.5287 -1.5758 -0.9736
    8MOL   H477 4411   7.721   0.354   2.935 -1.9702 -0.9158  0.1476
    8MOL   O478 4412   7.517   7.980   2.719  0.0550 -0.1758  0.4756
    8MOL   C479 4413   7.409   7.892   2.695  0.0720 -0.1862 -0.6626
    8MOL   C480 4414   7.462   7.767   2.615  0.1081  0.5766  0.1468
    8MOL   C481 4415   7.565   7.683   2.684 -0.6323  0.6386 -0.7056
    8MOL   C482 4416   7.520   7.570   2.773 -0.3197 -0.4238 -0.8629
    8MOL   O483 4417   7.623   7.487   2.819 -0.6262  0.5424 -0.4280
    8MOL   C484 4418   7.698   7.519   2.926 -0.3544 -0.9868  0.0030
    8MOL   O485 4419   7.668   7.609   3.001 -0.2970 -0.8203  0.3199
    8MOL   C486 4420   7.796   7.413   2.971 -0.2651  0.1335  0.0838
    8MOL   C487 4421   7.799   7.281   2.914 -0.3741 -0.6848  0.1227
    8MOL   C488 4422   7.888   7.187   2.970 -0.0993  0.2863 -0.9329
    8MOL   C489 4423   7.974   7.218   3.077  0.4760 -0.2467 -0.2576
    8MOL   C490 4424   8.084   7.124   3.123  0.3073 -0.5937  0.0701
    8MOL   O491 4425   0.070   7.161   3.203 -0.2078 -0.2857  0.5085
    8MOL   C492 4426   7.966   7.343   3.133 -0.3431 -0.3438 -0.3986
    8MOL   C493 4427   7.882   7.438   3.080  0.5083  0.4515  0.3207
    8MOL   H494 4428   7.371   7.851   2.789 -1.8432  0.1453 -1.2753
    8MOL   H495 4429   7.324   7.939   2.645 -1.4761 -0.8224  1.3081
    8MOL   H496 4430   7.499   7.802   2.519 -0.3849  0.8228  0.0421
    8MOL   H497 4431   7.383   7.698   2.583  0.6482  0.4292 -0.9105
    8MOL   H498 4432   7.633   7.648   2.606  0.5448  2.2670 -0.4346
    8MOL   H499 4433   7.634   7.749   2.737  2.6735 -3.2195  0.0025
    8MOL   H500 4434   7.454   7.597   2.856  0.0871 -0.2621 -0.5896
    8MOL   H501 4435   7.458   7.506   2.709  0.1171 -1.0493 -0.6580
    8MOL   H502 4436   7.724   7.250   2.843 -1.9861  2.7470  0.2220
    8MOL   H503 4437   7.880   7.086   2.931  0.2273 -0.9076  1.9999
    8MOL   H504 4438   8.031   7.373   3.214  0.7085 -0.4628 -1.1912
    8MOL   H505 4439   7.866   7.533   3.128 -0.8823 -0.2801  1.3601
    8MOL   O506 4440   8.068   7.002   3.082  0.0707  0.2102  0.1925
    8MOL   C507 4441   0.068   6.901   3.099 -0.2249  0.2752  0.2367
    8MOL   C508 4442   0.056   6.803   2.982 -0.2490 -0.0212  0.3767
    8MOL   C509 4443   0.069   6.874   2.842 -0.4752 -0.3594  0.5100
    8MOL   C510 4444   8.089   6.793   2.739 -0.4083  0.1291 -0.1282
    8MOL   O511 4445   0.030   6.652   2.755  0.7284 -0.7604  0.2644
    8MOL   C512 4446   0.081   6.587   2.648  0.4548 -0.0982  0.4397
    8MOL   O513 4447   0.108   6.645   2.542 -0.0476 -0.4795  0.0064
    8MOL   C514 4448   0.099   6.438   2.662 -0.0943 -0.2064 -0.2045
    8MOL   C515 4449   0.167   6.356   2.567 -0.1803 -0.3716 -0.1126
    8MOL   C516 4450   0.168   6.212   2.580 -0.2631  0.4034 -0.3802
    8MOL   C517 4451   0.103   6.153   2.687 -1.0199  0.9919 -0.1741
    8MOL   C518 4452   0.095   6.004   2.698 -0.2140  0.4196 -0.5156
    8MOL   O519 4453   0.042   5.954   2.795 -1.2517  0.1723  0.2286
    8MOL   C520 4454   0.048   6.231   2.793  0.5799  0.0195  1.1885
    8MOL   C521 4455   0.041   6.370   2.774 -0.7995  0.3558 -0.0621
    8MOL   H522 4456   0.169   6.941   3.092  0.3473 -1.5869 -2.6358
    8MOL   H523 4457   0.050   6.861   3.200  0.9177  1.5532  0.9574
    8MOL   H524 4458   8.065   6.740   2.982 -1.7012  1.9787 -0.5395
    8MOL   H525 4459   0.133   6.728   2.998  1.2857  1.6319  0.7946
    8MOL   H526 4460   0.026   6.974   2.850  0.4920  0.1081 -0.0454
    8MOL   H527 4461   0.173   6.879   2.811 -0.4466 -0.4242  0.5955
    8MOL   H528 4462   7.980   6.798   2.748 -0.1459  1.9393  2.8371
    8MOL   H529 4463   0.006   6.839   2.642 -0.0710  3.3393  1.4019
    8MOL   H530 4464   0.200   6.402   2.475  1.6643 -0.8407  0.2861
    8MOL   H531 4465   0.220   6.156   2.503 -0.2040 -1.7011  1.1282
    8MOL   H532 4466   0.006   6.185   2.881  0.2874 -1.3536  0.3481
    8MOL   H533 4467   8.089   6.432   2.846 -0.0244  1.8425 -0.7797
    8MOL   O534 4468   0.155   5.941   2.602 -0.2468  0.2548 -0.1922
    8MOL   C535 4469   0.149   5.804   2.583 -0.3768  0.3667 -0.1297
    8MOL   C536 4470   0.249   5.770   2.469 -0.2602 -0.2743 -0.0421
    8MOL   C537 4471   0.252   5.628   2.412  0.0759 -0.3559  0.5662
    8MOL   C538 4472   0.281   5.523   2.519 -0.0204 -0.4868 -0.1265
    8MOL   O539 4473   0.312   5.403   2.452  0.3395  0.0407  0.7965
    8MOL   C540 4474   0.240   5.295   2.486  0.2051 -0.3876 -0.5171
    8MOL   O541 4475   0.140   5.306   2.553 -0.1793 -0.2317 -0.2376
    8MOL   C542 4476   0.287   5.168   2.428  0.4561 -0.4318 -0.0168
    8MOL   C543 4477   0.400   5.170   2.342  0.2498  0.2774 -0.0466
    8MOL   C544 4478   0.453   5.050   2.284  0.4626  0.2493  0.3495
    8MOL   C545 4479   0.394   4.925   2.322  0.0454  0.2186 -0.2063
    8MOL   C546 4480   0.414   4.804   2.240  0.1189  0.3482  0.0795
    8MOL   O547 4481   0.356   4.693   2.260  1.0806  0.4924  0.2227
    8MOL   C548 4482   0.289   4.923   2.415  0.2289  0.1824 -0.3382
    8MOL   C549 4483   0.232   5.043   2.470  0.6586 -0.8681 -0.5672
    8MOL   H550 4484   0.168   5.736   2.666  0.8051  1.3625  0.4137
    8MOL   H551 4485   0.044   5.785   2.559 -0.9472 -0.9652  3.1863
    8MOL   H552 4486   0.352   5.798   2.489  0.1994 -0.7258 -1.7502
    8MOL   H553 4487   0.221   5.832   2.385  2.1816  0.0373 -0.6622
    8MOL   H554 4488   0.160   5.615   2.355  1.4530  3.9604 -2.9803
    8MOL   H555 4489   0.332   5.626   2.339 -0.1406  0.8990  0.2851
    8MOL   H556 4490   0.374   5.552   2.569 -0.4470  0.0629  0.3632
    8MOL   H557 4491   0.199   5.519   2.591  0.9886 -1.5982  0.9912
    8MOL   H558 4492   0.459   5.257   2.319 -1.5951  1.6747  0.3415
    8MOL   H559 4493   0.534   5.046   2.214 -0.4511 -0.6607 -0.6805
    8MOL   H560 4494   0.241   4.830   2.443 -1.5852  1.4737  1.0025
    8MOL   H561 4495   0.140   5.036   2.526 -0.1630 -0.9215 -1.9153
    8MOL   H562 4496   0.489   4.822   2.163  0.9401  3.1369  1.4614
    9MOL     O1 4497   6.167   6.586   1.941  0.0499 -0.7464  0.1197
    9MOL     C2 4498   6.125   6.457   1.996  0.2219 -0.1657  0.4974
    9MOL     C3 4499   6.164   6.359   1.888 -0.2686  0.0222 -0.0643
    9MOL     C4 4500   6.145   6.212   1.919 -0.1953  0.6397 -0.5339
    9MOL     C5 4501   6.008   6.155   1.928  0.3887  0.5864  0.3467
    9MOL     O6 4502   5.957   6.111   1.803  0.3175 -0.3289 -0.0212
    9MOL     C7 4503   5.830   6.072   1.790 -0.1695  0.1719  0.5225
    9MOL     O8 4504   5.755   6.039   1.886  0.2951  0.2765  0.8061
    9MOL     C9 4505   5.795   6.058   1.651  0.6135 -0.3497  0.0436
    9MOL    C10 4506   5.895   6.029   1.556 -0.0004  0.8224 -0.6585
    9MOL    C11 4507   5.859   6.027   1.418 -0.0703 -0.2592  0.4649
    9MOL    C12 4508   5.728   6.060   1.374 -0.0981  0.7824 -0.6911
    9MOL    C13 4509   5.689   6.088   1.233  0.1162  0.1023 -0.2413
    9MOL    O14 4510   5.584   6.147   1.199 -0.0877  0.8482  0.0163
    9MOL    C15 4511   5.631   6.095   1.473  0.3586  0.4783 -0.5657
    9MOL    C16 4512   5.664   6.092   1.612 -0.0355 -0.7729  0.8031
    9MOL    H17 4513   6.181   6.436   2.088  1.2130 -0.6737 -0.2167
    9MOL    H18 4514   6.022   6.450   2.030  0.3894  1.1820  1.3289
    9MOL    H19 4515   6.270   6.368   1.864  0.1234  1.2808  2.0060
    9MOL    H20 4516   6.108   6.381   1.796  1.5066 -4.0275 -2.2201
    9MOL    H21 4517   6.199   6.152   1.846  1.5263 -1.2155  2.1653
    9MOL    H22 4518   6.200   6.199   2.012  2.2649 -0.9094 -2.1557
    9MOL    H23 4519   6.001   6.071   1.996  1.0545 -0.0558 -0.3704
    9MOL    H24 4520   5.936   6.228   1.966 -1.4888 -1.2767  0.4331
    9MOL    H25 4521   5.998   6.012   1.587  0.2253  0.2453 -1.7058
    9MOL    H26 4522   5.939   6.000   1.349 -0.3381  0.1373 -0.0018
    9MOL    H27 4523   5.529   6.125   1.454 -1.3195 -3.1314  2.0639
    9MOL    H28 4524   5.586   6.122   1.681  0.5468  1.8153  0.4049
    9MOL    H29 4525   6.094   6.644   1.927  0.6830  0.0798  0.2187
    9MOL    O30 4526   5.772   6.030   1.153 -0.1879  0.4470 -0.0327
    9MOL    C31 4527   5.765   6.057   1.012  0.2717  0.5437  0.0797
    9MOL    C32 4528   5.900   6.023   0.955 -0.1992 -0.4021 -0.1511
    9MOL    C33 4529   5.929   5.875   0.918  0.5919 -0.4399 -0.2315
    9MOL    C34 4530   5.961   5.791   1.039 -0.5940 -0.2169  0.0043
    9MOL    O35 4531   6.063   5.842   1.117 -0.1838 -0.4810  0.0973
    9MOL    C36 4532   6.094   5.788   1.234 -0.3710  0.2001 -0.6504
    9MOL    O37 4533   6.053   5.678   1.278  0.3638  0.5951  0.3512
    9MOL    C38 4534   6.185   5.887   1.313 -0.3523  0.1667 -0.6441
    9MOL    C39 4535   6.225   6.011   1.257  0.1279  0.5329 -0.2891
    9MOL    C40 4536   6.293   6.095   1.336 -0.3828 -0.1267  0.2247
    9MOL    C41 4537   6.324   6.063   1.469 -0.1794 -0.0128  0.5043
    9MOL    C42 4538   6.378   6.166   1.555  0.6485 -0.7987 -0.2381
    9MOL    O43 4539   6.429   6.145   1.664  0.1344  0.3968  0.6702
    9MOL    C44 4540   6.295   5.934   1.520 -0.2719  0.3068  1.0158
    9MOL    C45 4541   6.231   5.843   1.437  0.3925 -0.2700 -0.6566
    9MOL    H46 4542   5.683   5.997   0.972  0.2277  0.0474  0.9035
    9MOL    H47 4543   5.734   6.160   0.993  2.3990  0.7047 -2.9623
    9MOL    H48 4544   5.975   6.070   1.019 -2.0491  0.9493  1.0754
    9MOL    H49 4545   5.911   6.088   0.868 -0.4527  1.4428  1.1605
    9MOL    H50 4546   5.841   5.846   0.860 -1.0055  0.8031  1.4749
    9MOL    H51 4547   6.012   5.867   0.848 -1.7988  0.2262 -3.2864
    9MOL    H52 4548   5.870   5.785   1.099  0.4959  0.1300  1.7279
    9MOL    H53 4549   5.969   5.684   1.019 -0.6871  0.0748 -1.5943
    9MOL    H54 4550   6.203   6.042   1.156  0.8250  1.9494 -0.0263
    9MOL    H55 4551   6.336   6.185   1.293 -1.1288 -0.2317 -0.7390
    9MOL    H56 4552   6.344   5.917   1.615  1.7874  1.6316  0.2405
    9MOL    H57 4553   6.219   5.740   1.467 -1.5546 -0.2341 -1.2902
    9MOL    O58 4554   6.355   6.295   1.514  0.1590  0.0573 -0.4137
    9MOL    C59 4555   6.395   6.405   1.592 -0.0755 -0.8415  0.3729
    9MOL    C60 4556   6.316   6.534   1.565  0.3800  0.5548  0.6826
    9MOL    C61 4557   6.382   6.658   1.629 -0.4885 -0.6142  0.1732
    9MOL    C62 4558   6.364   6.792   1.559 -0.0669  1.6091 -0.1183
    9MOL    O63 4559   6.232   6.825   1.544 -0.1269 -0.1223 -0.1946
    9MOL    C64 4560   6.186   6.893   1.440  1.2953 -0.3431  0.5755
    9MOL    O65 4561   6.246   6.934   1.343  1.0635  0.1569  0.7561
    9MOL    C66 4562   6.041   6.930   1.461  0.5239  0.0789  0.0913
    9MOL    C67 4563   5.968   6.994   1.358  0.6123  0.0827 -0.2390
    9MOL    C68 4564   5.834   7.029   1.370  0.1806 -0.3185 -0.4516
    9MOL    C69 4565   5.765   7.006   1.491  0.4914 -0.2663 -0.0016
    9MOL    C70 4566   5.626   7.059   1.521  0.3029 -0.6468  0.1064
    9MOL    O71 4567   5.582   7.053   1.635  0.3566  0.3429 -0.0605
    9MOL    C72 4568   5.828   6.924   1.589  0.1154  0.2768 -0.8621
    9MOL    C73 4569   5.969   6.895   1.579 -0.0595 -0.2938 -0.4162
    9MOL    H74 4570   6.393   6.368   1.695 -0.8702  0.0146  0.6694
    9MOL    H75 4571   6.501   6.429   1.589 -0.1605 -0.4332  0.6574
    9MOL    H76 4572   6.210   6.536   1.587  0.3738  3.0980  0.5934
    9MOL    H77 4573   6.315   6.546   1.457  0.2211 -0.9350  0.5126
    9MOL    H78 4574   6.357   6.672   1.735  1.6037 -0.1218  0.6226
    9MOL    H79 4575   6.491   6.651   1.633 -0.2972  1.0894 -1.5607
    9MOL    H80 4576   6.414   6.865   1.621  1.4695 -0.0484  0.6314
    9MOL    H81 4577   6.410   6.792   1.460  2.5268  1.0620  1.0408
    9MOL    H82 4578   6.015   7.030   1.268 -0.7047  1.5053 -0.3736
    9MOL    H83 4579   5.786   7.088   1.294 -0.1585  0.6065  0.4748
    9MOL    H84 4580   5.778   6.895   1.681  0.3333 -2.6217 -1.6216
    9MOL    H85 4581   6.015   6.845   1.662 -2.2235 -3.1255 -0.8526
    9MOL    O86 4582   5.558   7.123   1.421 -0.5213  0.1368  0.2425
    9MOL    C87 4583   5.429   7.177   1.457 -0.1851 -0.5272  0.1071
    9MOL    C88 4584   5.370   7.250   1.332 -0.4458  0.2583  0.0562
    9MOL    C89 4585   5.459   7.366   1.282  0.7150  0.2049  0.6276
    9MOL    C90 4586   5.487   7.487   1.382 -0.5353 -0.0822 -0.1171
    9MOL    O91 4587   5.578   7.570   1.308 -0.0310  0.1345 -0.0628
    9MOL    C92 4588   5.669   7.640   1.373 -0.2521 -0.3287 -0.3628
    9MOL    O93 4589   5.673   7.653   1.493  0.5857  0.4655  0.1525
    9MOL    C94 4590   5.760   7.708   1.276  0.7725 -0.8566  0.3365
    9MOL    C95 4591   5.751   7.684   1.135 -1.0738 -0.0664 -0.2060
    9MOL    C96 4592   5.836   7.742   1.040 -0.3390 -0.1295 -0.1406
    9MOL    C97 4593   5.942   7.824   1.085  0.2682 -0.3337 -0.2520
    9MOL    C98 4594   6.029   7.880   0.980 -0.1920  1.1170  0.0489
    9MOL    O99 4595   6.022   7.847   0.861  0.7236 -0.3765 -0.2102
    9MOL   C100 4596   5.946   7.860   1.220  0.0343  0.1210  0.1022
    9MOL   C101 4597   5.856   7.804   1.317 -0.1778  0.2144  0.4483
    9MOL   H102 4598   5.371   7.095   1.502 -0.6031 -2.4617 -3.7705
    9MOL   H103 4599   5.452   7.258   1.526  2.2899 -0.9097 -0.2446
    9MOL   H104 4600   5.270   7.275   1.369 -0.4081  1.4805 -0.6384
    9MOL   H105 4601   5.356   7.180   1.249  1.4354 -0.8472  0.6448
    9MOL   H106 4602   5.557   7.325   1.260 -0.1386 -0.7392 -1.5379
    9MOL   H107 4603   5.417   7.395   1.186 -1.6858 -0.3102  1.4654
    9MOL   H108 4604   5.397   7.546   1.395 -0.6372 -0.4340  0.7949
    9MOL   H109 4605   5.532   7.466   1.479  0.2178 -2.2711 -0.9034
    9MOL   H110 4606   5.684   7.605   1.104 -0.4788 -0.8567  0.4932
    9MOL   H111 4607   5.824   7.709   0.939  1.4277 -2.3024  0.3131
    9MOL   H112 4608   6.018   7.932   1.254 -0.3155  1.0443 -1.0824
    9MOL   H113 4609   5.853   7.827   1.422 -1.2059  0.9399  0.2713
    9MOL   O114 4610   6.098   7.986   1.030  0.4581  0.2263  0.2405
    9MOL   C115 4611   6.183   8.057   0.936 -0.3744  0.5815  0.0846
    9MOL   C116 4612   6.264   0.069   1.011 -0.7918  0.3215  0.1421
    9MOL   C117 4613   6.414   0.045   1.017 -0.0665 -0.2437  0.2956
    9MOL   C118 4614   6.489   0.184   1.024  0.5959 -0.1374 -0.2017
    9MOL   O119 4615   6.619   0.176   1.075  0.0285  0.1172 -0.1600
    9MOL   C120 4616   6.725   0.137   0.999 -0.5044  0.0785  0.9339
    9MOL   O121 4617   6.713   0.096   0.882 -0.3755 -0.7122  0.2497
    9MOL   C122 4618   6.851   0.141   1.077  0.5241  0.6304 -0.3178
    9MOL   C123 4619   6.960   0.057   1.044  0.1812 -0.3938  0.5063
    9MOL   C124 4620   7.082   0.063   1.113 -0.1415  0.2347 -0.1897
    9MOL   C125 4621   7.094   0.155   1.224  0.3127 -0.7266  0.7389
    9MOL   C126 4622   7.229   0.170   1.293  0.2969  0.6330 -0.3132
    9MOL   O127 4623   7.250   0.250   1.386  0.3151 -0.1795 -0.3734
    9MOL   C128 4624   6.990   0.243   1.252  0.4618  0.4891  0.4553
    9MOL   C129 4625   6.872   0.239   1.177  0.3905  0.2921 -0.8077
    9MOL   H130 4626   6.248   7.978   0.899  1.6223  1.7146  1.0709
    9MOL   H131 4627   6.117   0.009   0.864 -1.6735 -2.4653 -0.9403
    9MOL   H132 4628   6.240   0.069   1.117 -1.1809 -0.9939  0.0621
    9MOL   H133 4629   6.245   0.160   0.955  0.1369  0.7467  0.4962
    9MOL   H134 4630   6.437   8.082   1.105 -0.5909  0.8591  1.2090
    9MOL   H135 4631   6.446   8.081   0.934 -2.1062  0.1575 -0.8219
    9MOL   H136 4632   6.482   0.227   0.925 -3.0781 -0.2265 -0.0434
    9MOL   H137 4633   6.421   0.238   1.090 -0.2221 -1.3830 -0.0108
    9MOL   H138 4634   6.942   8.087   0.962 -0.0543 -1.7713  1.6935
    9MOL   H139 4635   7.169   0.009   1.079 -0.3980 -0.7685  0.6923
    9MOL   H140 4636   6.997   0.305   1.341 -2.1700  1.0313  0.3290
    9MOL   H141 4637   6.787   0.302   1.199 -0.0142  0.2188 -2.1267
    9MOL   O142 4638   7.322   0.100   1.229 -0.8994  0.7912 -0.4471
    9MOL   C143 4639   7.458   0.120   1.266 -0.4701  0.2966 -0.6623
    9MOL   C144 4640   7.523   0.193   1.150  0.3426 -0.0450 -0.1360
    9MOL   C145 4641   7.476   0.339   1.165  0.1389 -0.0930  0.2897
    9MOL   C146 4642   7.571   0.440   1.104 -0.0097 -0.4791 -0.1565
    9MOL   O147 4643   7.541   0.574   1.144  0.5811  0.6442  0.0507
    9MOL   C148 4644   7.611   0.671   1.088  0.5618 -0.1042 -0.2693
    9MOL   O149 4645   7.703   0.656   1.003  0.7096  0.9311 -0.0355
    9MOL   C150 4646   7.564   0.803   1.138 -0.5550  0.4241  0.1148
    9MOL   C151 4647   7.614   0.917   1.085 -0.1882 -0.2026 -0.1946
    9MOL   C152 4648   7.576   1.047   1.132 -0.0853 -0.5908  0.5906
    9MOL   C153 4649   7.483   1.061   1.235  0.5889  0.0639  0.1367
    9MOL   C154 4650   7.441   1.188   1.284  0.2199 -0.5028  0.7158
    9MOL   O155 4651   7.326   1.209   1.332  0.0853  0.2434 -0.0273
    9MOL   C156 4652   7.418   0.944   1.284 -0.1138  0.5317 -0.1138
    9MOL   C157 4653   7.463   0.819   1.239  0.5705  0.4741 -0.4143
    9MOL   H158 4654   7.470   0.167   1.363 -3.3858 -0.1910 -0.0427
    9MOL   H159 4655   7.502   0.023   1.290 -2.3546 -0.5230 -0.4239
    9MOL   H160 4656   7.502   0.141   1.057 -3.5944  2.8479 -1.0273
    9MOL   H161 4657   7.630   0.191   1.169  0.4368 -0.6265 -0.7414
    9MOL   H162 4658   7.376   0.361   1.128  0.5715  0.3242 -0.6380
    9MOL   H163 4659   7.478   0.365   1.271 -1.0343 -0.7430  0.4814
    9MOL   H164 4660   7.671   0.408   1.135 -0.2070 -0.5002  0.4741
    9MOL   H165 4661   7.575   0.434   0.996 -1.3794 -2.7315 -0.1095
    9MOL   H166 4662   7.688   0.903   1.008  0.9506 -0.2863  0.9007
    9MOL   H167 4663   7.624   1.135   1.091 -0.7082  0.2993  1.7476
    9MOL   H168 4664   7.342   0.956   1.360 -0.1867  2.2636 -0.4501
    9MOL   H169 4665   7.414   0.728   1.269  1.0954 -0.2275 -1.6719
    9MOL   O170 4666   7.539   1.276   1.271 -0.3212  0.3401 -0.1380
    9MOL   C171 4667   7.513   1.411   1.305  0.1628 -0.0319  0.0051
    9MOL   C172 4668   7.643   1.491   1.343 -0.2128  0.5516 -0.1283
    9MOL   C173 4669   7.730   1.510   1.220  0.9140  0.5764  0.0472
    9MOL   C174 4670   7.801   1.384   1.184 -0.4448  0.4312 -0.6409
    9MOL   O175 4671   7.876   1.333   1.291 -0.5631  0.1175 -0.4100
    9MOL   C176 4672   7.900   1.205   1.293  0.4279  0.0209  0.9501
    9MOL   O177 4673   7.879   1.126   1.200  0.6070  0.2624 -0.2481
    9MOL   C178 4674   7.975   1.177   1.418 -0.6660  0.2380 -0.4941
    9MOL   C179 4675   7.938   1.241   1.543  0.7140  0.6773 -0.4212
    9MOL   C180 4676   7.984   1.195   1.664 -0.9773  0.4742  0.4337
    9MOL   C181 4677   8.083   1.091   1.661 -0.1942 -0.0838  0.8915
    9MOL   C182 4678   0.055   1.047   1.786  0.2320  0.2086  0.6245
    9MOL   O183 4679   0.152   0.977   1.786  0.0481  0.9154  0.0910
    9MOL   C184 4680   0.028   1.039   1.539  0.1013 -0.1007  0.0309
    9MOL   C185 4681   8.075   1.075   1.416 -0.0403  0.0712  0.5559
    9MOL   H186 4682   7.451   1.460   1.230  2.3741  2.1547 -0.4856
    9MOL   H187 4683   7.464   1.427   1.401  1.2279  1.7033  0.2968
    9MOL   H188 4684   7.699   1.451   1.427  0.8107  0.6754 -0.7383
    9MOL   H189 4685   7.623   1.596   1.366 -1.0267  0.6400 -1.2064
    9MOL   H190 4686   7.664   1.535   1.137  0.0733 -0.8969  0.2457
    9MOL   H191 4687   7.816   1.574   1.241  2.8942 -1.4515 -1.6167
    9MOL   H192 4688   7.730   1.312   1.146 -1.2963  0.3682  1.0031
    9MOL   H193 4689   7.873   1.411   1.107  0.4099 -0.7289 -0.2616
    9MOL   H194 4690   7.859   1.314   1.547 -0.2315 -0.2958 -1.0283
    9MOL   H195 4691   7.949   1.243   1.754 -1.1881  0.3619  0.4119
    9MOL   H196 4692   0.098   0.957   1.534 -0.2215 -0.2415 -2.8342
    9MOL   H197 4693   0.005   1.022   1.327  1.2922 -0.8487  1.4991
    9MOL   O198 4694   0.005   1.092   1.899 -0.3479 -0.2099 -0.4929
    9MOL   C199 4695   0.067   1.056   2.019 -0.8181 -0.7999 -0.3310
    9MOL   C200 4696   0.014   0.922   2.076 -0.2959 -0.1588 -0.1739
    9MOL   C201 4697   0.057   0.909   2.220  0.4668  0.1176  0.1995
    9MOL   C202 4698   0.016   0.776   2.285  0.4357 -0.9161  0.1509
    9MOL   O203 4699   0.015   0.778   2.426 -0.2119  0.4405 -0.0617
    9MOL   C204 4700   0.134   0.761   2.491  0.1261  0.2494 -0.1417
    9MOL   O205 4701   0.235   0.723   2.427 -0.6463 -0.0505 -0.2609
    9MOL   C206 4702   0.131   0.761   2.644 -0.4082 -0.2785  0.3889
    9MOL   C207 4703   0.249   0.737   2.711  0.2055  1.0926 -0.2226
    9MOL   C208 4704   0.254   0.741   2.849  0.4322 -0.6022 -0.4047
    9MOL   C209 4705   0.143   0.788   2.926  0.0098  0.3754 -0.1532
    9MOL   C210 4706   0.150   0.788   3.073  0.2082  0.3805 -0.5442
    9MOL   O211 4707   0.240   0.735   3.146 -0.7500 -0.3167  0.1879
    9MOL   C212 4708   0.021   0.814   2.854 -0.0215 -0.5829 -0.8926
    9MOL   C213 4709   0.012   0.800   2.713  0.2054  0.2438  0.1859
    9MOL   H214 4710   0.176   1.048   2.014 -0.6959  0.3367  0.3716
    9MOL   H215 4711   0.058   1.137   2.092  0.8708 -0.6817 -0.2374
    9MOL   H216 4712   0.056   0.846   2.010  2.1078  0.8920  0.1069
    9MOL   H217 4713   8.004   0.915   2.066 -0.2147 -0.4386 -0.9216
    9MOL   H218 4714   0.163   0.929   2.236  0.9057  0.3079 -2.7155
    9MOL   H219 4715   0.011   0.994   2.270  2.0926  0.5276  1.0682
    9MOL   H220 4716   8.012   0.753   2.254  0.8132 -1.3514 -0.7804
    9MOL   H221 4717   0.075   0.695   2.243  1.3353 -0.1471 -0.0884
    9MOL   H222 4718   0.347   0.722   2.668 -0.4941 -1.1564 -1.0974
    9MOL   H223 4719   0.354   0.730   2.890  1.1020 -0.4887 -1.9777
    9MOL   H224 4720   8.035   0.840   2.916  0.4559 -0.5794 -0.2444
    9MOL   H225 4721   8.020   0.833   2.663 -0.5240 -1.0759  0.6234
    9MOL   O226 4722   0.052   0.859   3.135 -0.7930 -0.5588  0.2110
    9MOL   C227 4723   0.039   0.853   3.277 -0.1170 -0.1446  0.0484
    9MOL   C228 4724   8.007   0.933   3.324  0.5097  0.1906 -0.1384
    9MOL   C229 4725   8.014   0.944   3.477 -0.3862 -0.2167 -0.0144
    9MOL   C230 4726   7.900   1.033   3.530 -0.4838 -0.5300 -0.0609
    9MOL   O231 4727   7.771   1.000   3.481  0.4850 -0.4339 -0.2492
    9MOL   C232 4728   7.666   1.050   3.550 -0.7995  0.1482  0.1504
    9MOL   O233 4729   7.665   1.112   3.655  0.1389  0.6044  0.1005
    9MOL   C234 4730   7.538   1.030   3.471 -0.2826  0.3231  0.2362
    9MOL   C235 4731   7.538   1.008   3.334  0.1941 -0.3056  0.7104
    9MOL   C236 4732   7.414   0.995   3.268 -0.5100  0.3556 -0.0824
    9MOL   C237 4733   7.295   1.007   3.341 -0.3091  0.3118  1.3032
    9MOL   C238 4734   7.166   0.980   3.272 -0.2705 -0.4455 -0.3883
    9MOL   O239 4735   7.160   0.973   3.148 -0.1920 -0.2377  0.0051
    9MOL   C240 4736   7.301   1.027   3.480  0.0959 -0.0846 -0.1045
    9MOL   C241 4737   7.425   1.046   3.549 -0.5157  0.4248  0.4204
    9MOL   H242 4738   0.052   0.753   3.318 -0.1801 -0.4308 -0.6322
    9MOL   H243 4739   0.121   0.910   3.320 -0.9395  0.3728  0.9477
    9MOL   H244 4740   7.914   0.887   3.291 -0.3815  1.2908  0.8090
    9MOL   H245 4741   8.017   1.030   3.274  2.2845 -0.4633 -1.1125
    9MOL   H246 4742   8.003   0.842   3.515 -0.2669 -1.0416 -2.0876
    9MOL   H247 4743   0.008   0.994   3.504  0.3487 -1.0293 -0.9672
    9MOL   H248 4744   7.903   1.016   3.638 -2.6593  3.8846  0.8006
    9MOL   H249 4745   7.921   1.138   3.512  0.2254 -0.5648  0.5003
    9MOL   H250 4746   7.631   1.003   3.279  0.0755  1.2701  0.3457
    9MOL   H251 4747   7.407   0.970   3.163 -1.2764 -1.2045  0.3309
    9MOL   H252 4748   7.211   1.027   3.539  0.9195 -1.7010  1.2282
    9MOL   H253 4749   7.433   1.074   3.653  3.0528  1.3585 -0.0261
    9MOL   O254 4750   7.074   0.934   3.361  0.3375 -0.1258  0.3487
    9MOL   C255 4751   6.954   0.870   3.323 -0.4906  0.1646 -0.4596
    9MOL   C256 4752   6.830   0.967   3.329  0.3329 -0.4040 -0.5095
    9MOL   C257 4753   6.840   1.095   3.246  0.1783  0.3988 -0.2910
    9MOL   C258 4754   6.712   1.184   3.249  0.9214  0.2440 -0.2564
    9MOL   O259 4755   6.596   1.111   3.215  0.5219  0.2544  0.2751
    9MOL   C260 4756   6.481   1.188   3.218  0.8976  0.1379 -0.9976
    9MOL   O261 4757   6.477   1.310   3.212  0.2189  0.5796 -0.2344
    9MOL   C262 4758   6.355   1.102   3.230 -0.4679 -0.5707  0.1274
    9MOL   C263 4759   6.363   0.964   3.211  0.1161 -0.6742  0.1486
    9MOL   C264 4760   6.250   0.887   3.228  0.4611  0.2125 -0.0986
    9MOL   C265 4761   6.130   0.947   3.258  0.6818  0.5637  0.2599
    9MOL   C266 4762   6.016   0.857   3.286  0.2644  0.1242  0.4088
    9MOL   O267 4763   6.029   0.735   3.283 -0.2649  0.1654  0.2649
    9MOL   C268 4764   6.127   1.085   3.276  0.3312  0.4628 -0.2952
    9MOL   C269 4765   6.233   1.165   3.263 -0.0364  0.1115  0.3211
    9MOL   H270 4766   6.950   0.824   3.224 -1.3661  3.7970 -2.2158
    9MOL   H271 4767   6.944   0.789   3.395 -1.7190  1.1818  0.5429
    9MOL   H272 4768   6.820   0.985   3.436 -0.5639  1.4299 -0.8745
    9MOL   H273 4769   6.740   0.913   3.300 -0.7108  0.8457  0.3598
    9MOL   H274 4770   6.921   1.158   3.285 -1.6444  3.0611 -0.6378
    9MOL   H275 4771   6.869   1.080   3.142 -1.2157  1.1179 -0.7923
    9MOL   H276 4772   6.696   1.237   3.342  1.2031 -1.0197  0.5218
    9MOL   H277 4773   6.720   1.263   3.174 -0.6406  1.1425  0.5077
    9MOL   H278 4774   6.455   0.922   3.172  0.9992  0.5133  0.9119
    9MOL   H279 4775   6.264   0.780   3.219 -2.1940 -0.1167 -0.7954
    9MOL   H280 4776   6.035   1.133   3.309 -0.7858 -1.2120 -0.9355
    9MOL   H281 4777   6.237   1.273   3.267 -0.1894  0.0805  1.8090
    9MOL   O282 4778   5.894   0.921   3.291 -0.3299 -0.1825  0.0914
    9MOL   C283 4779   5.774   0.846   3.264  0.4312  0.3895 -0.0852
    9MOL   C284 4780   5.653   0.946   3.259  0.2469 -0.0364  0.0992
    9MOL   C285 4781   5.631   1.042   3.376  0.1676 -0.0082  0.1052
    9MOL   C286 4782   5.501   1.124   3.358 -0.4378 -0.1033  0.4273
    9MOL   O287 4783   5.520   1.207   3.244 -0.6736 -0.3039 -0.0555
    9MOL   C288 4784   5.446   1.320   3.227 -0.2464 -0.8256  0.9661
    9MOL   O289 4785   5.352   1.348   3.302  0.1775 -0.1497 -0.4224
    9MOL   C290 4786   5.483   1.399   3.105  0.3457  0.0389  0.2343
    9MOL   C291 4787   5.395   1.494   3.050 -0.4907  0.3274  0.0041
    9MOL   C292 4788   5.428   1.554   2.926  0.0287  0.3872 -0.7263
    9MOL   C293 4789   5.545   1.532   2.857  0.1306 -0.7690  0.2481
    9MOL   C294 4790   5.583   1.601   2.729  0.6317 -0.2880  0.2529
    9MOL   O295 4791   5.697   1.608   2.685 -0.0766 -0.1870 -0.3042
    9MOL   C296 4792   5.637   1.436   2.910  0.4571 -0.8540  0.0678
    9MOL   C297 4793   5.607   1.378   3.034  0.0762 -0.0477 -0.2505
    9MOL   H298 4794   5.788   0.794   3.169  3.1259 -1.4411  1.2643
    9MOL   H299 4795   5.759   0.771   3.342  1.6291 -0.3744 -0.5803
    9MOL   H300 4796   5.563   0.885   3.253  1.9869 -2.9766  2.5349
    9MOL   H301 4797   5.664   1.001   3.165 -0.3389 -0.2586 -0.1069
    9MOL   H302 4798   5.620   0.997   3.475  0.0776  0.2581  0.2163
    9MOL   H303 4799   5.720   1.104   3.386 -0.7714  1.3686  0.0693
    9MOL   H304 4800   5.417   1.058   3.338  0.5003 -0.3711 -3.0144
    9MOL   H305 4801   5.475   1.173   3.452  1.3137  2.2152 -0.2325
    9MOL   H306 4802   5.301   1.502   3.104 -3.4070 -0.8374 -4.5520
    9MOL   H307 4803   5.347   1.617   2.892  0.2090  0.2130 -1.4992
    9MOL   H308 4804   5.736   1.426   2.866  0.8631 -0.6893  0.9411
    9MOL   H309 4805   5.680   1.319   3.087 -1.9569 -0.7934  1.7965
    9MOL   O310 4806   5.478   1.662   2.669  0.5729  0.3023 -0.7398
    9MOL   C311 4807   5.496   1.751   2.564  0.2125 -0.0081  0.7254
    9MOL   C312 4808   5.355   1.784   2.508  0.0468  0.1035  0.2809
    9MOL   C313 4809   5.351   1.856   2.381 -0.5545 -0.3206 -0.0894
    9MOL   C314 4810   5.209   1.893   2.324 -0.0788  0.1728  0.0258
    9MOL   O315 4811   5.152   1.983   2.413 -0.7216 -0.2692  0.1373
    9MOL   C316 4812   5.181   2.116   2.407 -0.1909  0.1675  0.0141
    9MOL   O317 4813   5.260   2.171   2.328  0.1629  0.3615  0.2689
    9MOL   C318 4814   5.117   2.189   2.516 -0.2867 -0.5712 -0.4229
    9MOL   C319 4815   4.989   2.144   2.564 -0.9881  0.3865 -0.0209
    9MOL   C320 4816   4.929   2.207   2.672  0.2859 -0.3254  0.0380
    9MOL   C321 4817   4.988   2.318   2.731 -0.3458  0.3823  0.6799
    9MOL   C322 4818   4.930   2.380   2.848 -0.0126 -0.4088  0.4455
    9MOL   O323 4819   4.817   2.356   2.885  0.4085 -0.4086 -0.8900
    9MOL   C324 4820   5.115   2.360   2.687  0.3437  0.8468  0.2210
    9MOL   C325 4821   5.177   2.296   2.580 -0.5756 -0.1724  0.0961
    9MOL   H326 4822   5.548   1.842   2.597 -2.7729  1.5206  1.4768
    9MOL   H327 4823   5.556   1.705   2.486 -2.0791 -3.3107  0.8425
    9MOL   H328 4824   5.313   1.850   2.584 -0.9021  1.6565 -1.5356
    9MOL   H329 4825   5.303   1.691   2.487 -1.9106  1.3959 -0.7685
    9MOL   H330 4826   5.409   1.948   2.377  0.8902 -1.0196  2.7720
    9MOL   H331 4827   5.404   1.796   2.307  1.0723  0.8207  0.1139
    9MOL   H332 4828   5.206   1.937   2.224 -2.4390 -2.0547 -0.9261
    9MOL   H333 4829   5.144   1.807   2.312 -1.4462  1.2911 -0.8534
    9MOL   H334 4830   4.931   2.077   2.502  1.1444 -0.1316 -1.5133
    9MOL   H335 4831   4.830   2.182   2.707 -0.2830  1.2258 -0.4282
    9MOL   H336 4832   5.168   2.439   2.738  0.5939 -0.0173  1.2998
    9MOL   H337 4833   5.271   2.336   2.544 -0.4725 -2.8604 -2.7574
    9MOL   O338 4834   5.015   2.462   2.919 -0.2536  0.4265  0.1767
    9MOL   C339 4835   4.964   2.504   3.043 -0.3712 -0.4201  0.1409
    9MOL   C340 4836   5.072   2.597   3.106  0.0240  0.2139 -0.1120
    9MOL   C341 4837   5.042   2.601   3.261 -0.2683 -0.1547  0.7649
    9MOL   C342 4838   5.125   2.703   3.339  0.5940  0.0531  0.1665
    9MOL   O343 4839   5.079   2.680   3.474 -0.3319 -0.2752 -0.0935
    9MOL   C344 4840   5.117   2.763   3.573 -0.0815  0.4549  0.4369
    9MOL   O345 4841   5.187   2.862   3.556 -0.6335 -0.2275 -0.1895
    9MOL   C346 4842   5.071   2.722   3.706 -0.1837  0.3257  0.3468
    9MOL   C347 4843   5.010   2.598   3.713  0.1485  0.3706  0.6374
    9MOL   C348 4844   4.963   2.549   3.839 -0.0043 -0.3973 -0.1743
    9MOL   C349 4845   4.980   2.626   3.956 -0.3689 -0.6844  1.1541
    9MOL   C350 4846   4.940   2.564   4.083  0.2156  0.3037 -0.2747
    9MOL   O351 4847   4.852   2.472   4.090 -0.4011 -0.2562  0.0164
    9MOL   C352 4848   5.036   2.754   3.947  0.6060 -0.3892  0.3059
    9MOL   C353 4849   5.082   2.802   3.821 -0.1509  0.4529 -0.6605
    9MOL   H354 4850   4.866   2.549   3.029 -0.8045 -1.8907 -1.6692
    9MOL   H355 4851   4.953   2.411   3.098  1.4344 -1.0292 -0.4950
    9MOL   H356 4852   5.076   2.698   3.065 -0.7242 -0.0383 -0.8277
    9MOL   H357 4853   5.165   2.544   3.085  0.1517  0.9111 -1.3965
    9MOL   H358 4854   4.939   2.635   3.261 -0.7850 -1.7350  0.6986
    9MOL   H359 4855   5.043   2.499   3.297  0.7307 -0.6055 -0.5012
    9MOL   H360 4856   5.230   2.675   3.331  0.0235 -1.5669 -2.4317
    9MOL   H361 4857   5.119   2.807   3.306  4.3678 -0.1936 -1.5378
    9MOL   H362 4858   4.991   2.540   3.624  1.4546 -1.2280  1.3613
    9MOL   H363 4859   4.913   2.454   3.850 -2.0104  0.8456  1.9108
    9MOL   H364 4860   5.062   2.819   4.029  1.7057 -0.7059  0.2056
    9MOL   H365 4861   5.132   2.895   3.804 -1.4226  1.4049  0.7044
    9MOL   O366 4862   5.011   2.608   4.185  0.0223 -0.5938  0.5851
    9MOL   C367 4863   4.990   2.548   4.314 -0.0221 -0.8397 -0.2424
    9MOL   C368 4864   4.948   2.660   4.413  0.5374  0.1225  0.1334
    9MOL   C369 4865   4.800   2.674   4.446 -0.0423 -0.5786  0.0513
    9MOL   C370 4866   4.705   2.705   4.328  0.9637  0.3218  0.1991
    9MOL   O371 4867   4.741   2.819   4.242  0.6999  0.6756 -0.0376
    9MOL   C372 4868   4.681   2.928   4.258  0.7039  0.2329  0.5154
    9MOL   O373 4869   4.588   2.951   4.340 -0.7125  0.1966 -0.4273
    9MOL   C374 4870   4.738   3.046   4.183 -0.4119  0.4619  0.1871
    9MOL   C375 4871   4.699   3.174   4.212 -0.1412 -0.4750  0.2728
    9MOL   C376 4872   4.761   3.288   4.156  0.0496 -0.4484  0.1507
    9MOL   C377 4873   4.866   3.271   4.065 -0.1245  0.0723  0.3483
    9MOL   C378 4874   4.962   3.374   4.025 -0.1235  0.5366  0.3233
    9MOL   O379 4875   4.973   3.480   4.092 -0.0757  0.1226 -0.0625
    9MOL   C380 4876   4.892   3.138   4.023 -0.3576  0.4180 -0.1338
    9MOL   C381 4877   4.834   3.025   4.088  0.6305  0.1116  0.6131
    9MOL   H382 4878   4.921   2.465   4.329  0.3071 -0.9943  0.4337
    9MOL   H383 4879   5.085   2.511   4.352  1.0685  2.5371  0.5264
    9MOL   H384 4880   4.995   2.750   4.375 -1.4046  1.5394  1.0151
    9MOL   H385 4881   4.997   2.629   4.506  0.2096 -0.9851 -0.0485
    9MOL   H386 4882   4.767   2.582   4.494 -1.4388 -0.4915 -0.7195
    9MOL   H387 4883   4.792   2.751   4.523 -1.0380 -1.0203  0.4015
    9MOL   H388 4884   4.715   2.623   4.257  0.1484 -0.8630  1.4276
    9MOL   H389 4885   4.598   2.698   4.351  1.0041  1.2970  0.6986
    9MOL   H390 4886   4.622   3.181   4.288  0.5815 -0.1276  0.9796
    9MOL   H391 4887   4.728   3.388   4.179 -0.6954 -0.1088 -2.2932
    9MOL   H392 4888   4.973   3.116   3.955 -0.9962 -0.6189 -0.5636
    9MOL   H393 4889   4.863   2.926   4.055  0.3605 -0.1330  1.1036
    9MOL   O394 4890   5.029   3.350   3.912  0.3307  0.2441  0.2534
    9MOL   C395 4891   5.121   3.452   3.858  0.0684  0.6755 -0.4123
    9MOL   C396 4892   5.268   3.416   3.883 -0.4940 -0.3215  0.2824
    9MOL   C397 4893   5.323   3.300   3.793  0.1209  0.0910 -0.2086
    9MOL   C398 4894   5.288   3.158   3.847  0.3123  0.5168 -0.5307
    9MOL   O399 4895   5.373   3.114   3.949  0.6493  0.4580 -0.2391
    9MOL   C400 4896   5.330   3.056   4.061  0.1546 -0.3596  0.0727
    9MOL   O401 4897   5.217   3.013   4.075  0.3731  0.2872  0.1994
    9MOL   C402 4898   5.432   3.046   4.171 -0.8417 -0.3365 -0.4499
    9MOL   C403 4899   5.404   2.981   4.292  0.2375  0.1819 -0.2712
    9MOL   C404 4900   5.492   2.964   4.399 -0.5283  0.2948 -0.3430
    9MOL   C405 4901   5.625   3.007   4.386  0.4984 -0.9255  0.0994
    9MOL   C406 4902   5.725   2.978   4.497 -0.2366 -0.6180 -0.1093
    9MOL   O407 4903   5.686   2.920   4.602 -0.2656 -0.4355  0.2758
    9MOL   C408 4904   5.659   3.064   4.262  0.2352  0.1071  0.1733
    9MOL   C409 4905   5.568   3.090   4.157  0.0705 -0.5609 -0.5433
    9MOL   H410 4906   5.113   3.461   3.750 -0.5248 -1.1396 -0.5472
    9MOL   H411 4907   5.107   3.553   3.896 -0.3028  0.4409  0.0819
    9MOL   H412 4908   5.290   3.406   3.989 -0.8349  1.1199  0.5020
    9MOL   H413 4909   5.334   3.498   3.852  2.2683 -2.6215 -0.1272
    9MOL   H414 4910   5.278   3.310   3.694 -1.4059 -0.4054  0.4106
    9MOL   H415 4911   5.431   3.303   3.779  0.1358 -2.6059 -1.1421
    9MOL   H416 4912   5.183   3.142   3.875  0.2212  0.6084 -0.8205
    9MOL   H417 4913   5.298   3.084   3.768 -0.7191  1.2855 -1.3921
    9MOL   H418 4914   5.301   2.950   4.299  0.0666  0.4600 -1.5233
    9MOL   H419 4915   5.455   2.915   4.488  4.3551  0.5593  1.9946
    9MOL   H420 4916   5.760   3.096   4.241  0.1938 -0.0722 -0.3038
    9MOL   H421 4917   5.606   3.142   4.070  0.6858 -0.2081 -0.0654
    9MOL   O422 4918   5.854   3.012   4.478 -0.1129  0.5015  0.1807
    9MOL   C423 4919   5.949   2.987   4.568  0.1345  0.4502 -0.3330
    9MOL   C424 4920   6.004   2.848   4.551  0.3180 -0.1208  0.5551
    9MOL   C425 4921   6.088   2.794   4.657 -0.2355  0.1634  0.0365
    9MOL   C426 4922   6.034   2.780   4.802 -0.0717 -0.2886 -0.0070
    9MOL   O427 4923   6.139   2.733   4.878 -0.5814 -0.6407 -0.1616
    9MOL   C428 4924   6.220   2.823   4.934  0.0188 -0.9756  0.9044
    9MOL   O429 4925   6.194   2.944   4.941 -0.2899  0.8017 -0.1176
    9MOL   C430 4926   6.341   2.772   4.999 -0.4519 -0.3668  0.0374
    9MOL   C431 4927   6.413   2.854   5.087  0.3373 -0.5535  0.4378
    9MOL   C432 4928   6.526   2.805   5.151 -0.0158 -0.5859 -0.3426
    9MOL   C433 4929   6.565   2.673   5.135 -1.1801  0.0418 -0.2810
    9MOL   C434 4930   6.680   2.624   5.220  0.2109  0.3527 -0.2189
    9MOL   O435 4931   6.749   2.698   5.284  0.2182 -0.2006 -0.2481
    9MOL   C436 4932   6.491   2.585   5.049  0.3300 -0.4785  0.5653
    9MOL   C437 4933   6.378   2.633   4.976  0.2150 -0.0983 -0.7454
    9MOL   H438 4934   6.015   3.072   4.552  1.4771 -0.2218  1.4383
    9MOL   H439 4935   5.913   3.004   4.670 -1.8733  0.0925 -0.9638
    9MOL   H440 4936   6.059   2.845   4.457  0.4959  2.8808  0.5174
    9MOL   H441 4937   5.926   2.775   4.528  2.2681 -2.0018 -0.2591
    9MOL   H442 4938   6.114   2.693   4.627  3.3798  0.6235  1.3681
    9MOL   H443 4939   6.182   2.850   4.659 -1.1755  1.8692 -1.5010
    9MOL   H444 4940   5.984   2.864   4.849 -0.7221 -0.6516 -0.0509
    9MOL   H445 4941   5.958   2.703   4.816 -0.4304 -0.1387 -1.1785
    9MOL   H446 4942   6.378   2.955   5.099  0.4654 -0.2686 -1.3461
    9MOL   H447 4943   6.569   2.869   5.227 -0.8945  1.6383 -1.6778
    9MOL   H448 4944   6.518   2.481   5.057  0.7623 -0.4091  0.0806
    9MOL   H449 4945   6.320   2.570   4.911 -1.6554  1.6761 -0.8376
    9MOL   O450 4946   6.690   2.487   5.232 -0.6675 -0.0941 -0.4406
    9MOL   C451 4947   6.785   2.426   5.317  0.6208 -0.2910  0.4090
    9MOL   C452 4948   6.924   2.410   5.238 -0.0477  0.1063 -0.8895
    9MOL   C453 4949   6.920   2.306   5.127  0.0031  0.4166 -0.0356
    9MOL   C454 4950   7.057   2.289   5.055 -0.8785  0.4525  0.5881
    9MOL   O455 4951   7.056   2.151   5.020 -0.5518  0.3163  0.6793
    9MOL   C456 4952   7.039   2.104   4.893 -0.1640  0.1270 -0.8263
    9MOL   O457 4953   7.043   2.181   4.798  0.5860  0.6481 -0.0291
    9MOL   C458 4954   7.028   1.960   4.890  0.9800 -0.7007  0.3929
    9MOL   C459 4955   6.986   1.890   4.769  0.1108 -0.6218 -0.1096
    9MOL   C460 4956   6.995   1.751   4.763 -0.7488 -0.6730 -0.5928
    9MOL   C461 4957   7.054   1.674   4.865  1.1077  0.0363 -0.1070
    9MOL   C462 4958   7.057   1.527   4.842  0.6192  1.2545  0.2857
    9MOL   O463 4959   7.022   1.467   4.733  0.2883  0.5182 -0.1681
    9MOL   C464 4960   7.099   1.741   4.982  0.3985  0.6330 -0.1942
    9MOL   C465 4961   7.074   1.882   5.000 -0.3541  0.9127  0.1086
    9MOL   H466 4962   6.799   2.483   5.409 -0.6093 -1.0598  1.0907
    9MOL   H467 4963   6.744   2.334   5.357 -0.7987  0.6954  1.2731
    9MOL   H468 4964   7.000   2.385   5.312 -0.7811  0.6675  0.0556
    9MOL   H469 4965   6.949   2.510   5.200 -0.8558  0.3833 -0.6908
    9MOL   H470 4966   6.874   2.215   5.164  1.9987  0.3974  2.5583
    9MOL   H471 4967   6.850   2.338   5.049 -0.0814  0.6599  0.1386
    9MOL   H472 4968   7.077   2.351   4.967  1.0021 -0.2973  0.4690
    9MOL   H473 4969   7.135   2.309   5.128  1.4191 -2.2050 -1.0329
    9MOL   H474 4970   6.932   1.945   4.693 -0.2132 -1.4114 -0.4472
    9MOL   H475 4971   6.959   1.710   4.670 -0.6748  0.7642 -1.2823
    9MOL   H476 4972   7.149   1.683   5.059 -0.7829 -0.1658 -0.0113
    9MOL   H477 4973   7.114   1.929   5.089  1.2150 -1.4678  0.7232
    9MOL   O478 4974   7.090   1.459   4.957 -0.2348  0.4913 -0.7709
    9MOL   C479 4975   7.114   1.320   4.944 -0.0642  0.4036  0.3908
    9MOL   C480 4976   7.175   1.259   5.072  0.3280 -0.4077  0.0828
    9MOL   C481 4977   7.169   1.108   5.070 -0.2528 -1.0074  0.5058
    9MOL   C482 4978   7.249   1.041   5.172  0.1252  0.1405  0.3518
    9MOL   O483 4979   7.260   0.899   5.144  0.7070  0.0494 -0.6541
    9MOL   C484 4980   7.323   0.824   5.235 -0.6764 -0.5765  0.9184
    9MOL   O485 4981   7.386   0.870   5.330 -0.6281  0.5046 -0.4963
    9MOL   C486 4982   7.306   0.678   5.220  0.7174 -0.0758  0.2041
    9MOL   C487 4983   7.286   0.630   5.085  0.5331 -0.9889 -0.2720
    9MOL   C488 4984   7.286   0.492   5.056  0.2204 -0.0712 -0.4377
    9MOL   C489 4985   7.310   0.400   5.167 -0.0328 -0.6809  0.4257
    9MOL   C490 4986   7.317   0.252   5.142 -0.3044  0.0859  0.1211
    9MOL   O491 4987   7.314   0.212   5.024  0.0422 -0.0046 -0.4813
    9MOL   C492 4988   7.317   0.454   5.298  0.4579  0.3931  0.4214
    9MOL   C493 4989   7.307   0.589   5.325  0.2981  0.2573  0.1975
    9MOL   H494 4990   7.020   1.273   4.914  1.6722 -2.1759 -1.3040
    9MOL   H495 4991   7.172   1.299   4.854 -1.3881 -0.3900 -0.2852
    9MOL   H496 4992   7.120   1.297   5.158  0.6159  0.8253 -0.2670
    9MOL   H497 4993   7.280   1.291   5.077 -0.0844  0.7880  1.7358
    9MOL   H498 4994   7.064   1.084   5.089 -0.6488  0.7807  0.6782
    9MOL   H499 4995   7.188   1.060   4.974 -1.1067  2.1292 -1.3027
    9MOL   H500 4996   7.353   1.072   5.163  0.2488 -0.7724 -1.4681
    9MOL   H501 4997   7.213   1.063   5.273  1.4779 -0.1552  0.9200
    9MOL   H502 4998   7.273   0.700   5.005  1.0530  0.4072  0.8512
    9MOL   H503 4999   7.259   0.448   4.961 -0.9901  1.3787 -0.7730
    9MOL   H504 5000   7.340   0.382   5.376 -0.0452  0.7392  0.8919
    9MOL   H505 5001   7.315   0.621   5.428  1.9738  0.0677  0.1335
    9MOL   O506 5002   7.304   0.168   5.251  0.7114  0.1246  0.3412
    9MOL   C507 5003   7.280   0.023   5.239 -0.3085  0.9252  0.0154
    9MOL   C508 5004   7.182   8.079   5.351 -0.8141  0.4359  0.2036
    9MOL   C509 5005   7.041   0.020   5.314  0.3128  0.5629  0.0420
    9MOL   C510 5006   6.946   8.066   5.416 -0.0822 -0.2091  0.2110
    9MOL   O511 5007   6.816   0.007   5.375  0.1690  0.1298 -0.1881
    9MOL   C512 5008   6.699   8.037   5.418  0.8909  0.6464 -0.0212
    9MOL   O513 5009   6.701   7.942   5.501 -0.1133  0.2707  0.4255
    9MOL   C514 5010   6.565   8.095   5.378  0.3850 -0.7455  0.7578
    9MOL   C515 5011   6.445   8.053   5.442  0.3189 -0.4090  0.0278
    9MOL   C516 5012   6.320   0.018   5.414  0.7159 -0.2965  0.2401
    9MOL   C517 5013   6.315   0.100   5.299  0.0519  0.0002 -0.1382
    9MOL   C518 5014   6.192   0.165   5.260  0.2477 -0.3080 -0.3860
    9MOL   O519 5015   6.089   0.160   5.324  0.1813  0.1467  0.1391
    9MOL   C520 5016   6.434   0.133   5.226 -0.0949 -0.0215  0.4611
    9MOL   C521 5017   6.554   0.082   5.270 -0.4663 -0.0521 -0.0664
    9MOL   H522 5018   7.244   8.087   5.142  1.9330  1.3866 -1.0149
    9MOL   H523 5019   7.373   8.068   5.260 -0.8423 -0.1600 -0.3741
    9MOL   H524 5020   7.211   0.017   5.450 -1.2469 -0.7823  0.7903
    9MOL   H525 5021   7.186   7.970   5.347 -1.9616  0.4622 -2.5788
    9MOL   H526 5022   7.037   0.128   5.310  1.1004  0.5665 -0.5905
    9MOL   H527 5023   7.021   8.084   5.212  0.9097  1.8912 -0.5283
    9MOL   H528 5024   6.953   7.958   5.428 -2.5122 -0.6349 -1.8445
    9MOL   H529 5025   6.958   0.018   5.512  1.3129 -0.0817 -0.0232
    9MOL   H530 5026   6.449   7.987   5.527  1.3127  0.8593  0.9762
    9MOL   H531 5027   6.238   0.000   5.482  0.6140  2.1436  0.7943
    9MOL   H532 5028   6.432   0.187   5.132  2.5706 -1.8013 -0.6978
    9MOL   H533 5029   6.642   0.096   5.209 -1.4031 -0.0481 -1.4189
    9MOL   O534 5030   6.206   0.241   5.140 -0.3394 -0.0976 -0.2407
    9MOL   C535 5031   6.095   0.308   5.082 -0.8522 -0.0346 -0.4925
    9MOL   C536 5032   6.099   0.451   5.137  0.7984  0.2248 -0.2832
    9MOL   C537 5033   6.018   0.562   5.072 -0.3364 -0.0670 -0.5857
    9MOL   C538 5034   6.102   0.670   4.998 -0.3678 -0.0883 -0.8318
    9MOL   O539 5035   6.162   0.609   4.878 -0.3878 -0.5148 -0.5553
    9MOL   C540 5036   6.092   0.613   4.762 -0.6245 -0.0188 -0.1487
    9MOL   O541 5037   5.976   0.659   4.759 -0.2622 -0.2190  0.1168
    9MOL   C542 5038   6.172   0.580   4.636 -0.1847  0.3050 -0.0048
    9MOL   C543 5039   6.115   0.554   4.514  0.4535  0.1607  0.6307
    9MOL   C544 5040   6.195   0.519   4.403  0.6143 -0.1712  0.3109
    9MOL   C545 5041   6.338   0.521   4.414 -0.7056 -0.5427 -0.2252
    9MOL   C546 5042   6.418   0.498   4.297 -0.8221  0.2133  0.1606
    9MOL   O547 5043   6.369   0.472   4.190  0.0390  0.2495 -0.2347
    9MOL   C548 5044   6.400   0.544   4.540 -0.1689  0.6083  0.1063
    9MOL   C549 5045   6.312   0.567   4.649 -0.9237  0.1728 -0.1321
    9MOL   H550 5046   6.122   0.314   4.977 -2.2369 -0.8150 -0.9128
    9MOL   H551 5047   6.000   0.255   5.081 -1.0312  0.2394  0.9862
    9MOL   H552 5048   6.199   0.494   5.150  1.3041 -0.8234 -0.6496
    9MOL   H553 5049   6.069   0.437   5.241 -0.4521 -0.2546 -0.7055
    9MOL   H554 5050   5.939   0.525   5.007  0.4195 -2.4042 -0.2104
    9MOL   H555 5051   5.973   0.623   5.150  0.2293  0.0913 -0.3801
    9MOL   H556 5052   6.046   0.762   4.980  2.1235  1.9506  1.4520
    9MOL   H557 5053   6.182   0.699   5.065 -0.6659 -1.3158  0.0688
    9MOL   H558 5054   6.008   0.555   4.522  0.4294  0.4193  0.2966
    9MOL   H559 5055   6.152   0.487   4.309  2.2376 -1.2330 -0.0811
    9MOL   H560 5056   6.506   0.556   4.558  0.4137 -2.2206 -1.1072
    9MOL   H561 5057   6.353   0.580   4.748 -0.6233  0.5704 -0.3079
    9MOL   H562 5058   6.526   0.510   4.310 -0.9564  0.9040  0.6818
   10MOL     O1 5059   0.649   3.991   7.341  0.6615  0.0570 -0.3308
   10MOL     C2 5060   0.729   3.885   7.295 -0.0337  0.1954 -0.2531
   10MOL     C3 5061   0.666   3.752   7.319  0.1547  0.3475  0.3916
   10MOL     C4 5062   0.764   3.635   7.287 -0.0677 -0.6836 -0.0223
   10MOL     C5 5063   0.688   3.500   7.273  0.4807  0.0151  0.5614
   10MOL     O6 5064   0.604   3.472   7.383  0.1344  0.1720  0.0510
   10MOL     C7 5065   0.550   3.357   7.401 -0.1226  0.1419 -0.2034
   10MOL     O8 5066   0.579   3.255   7.339 -0.8910  0.5207 -0.2687
   10MOL     C9 5067   0.445   3.363   7.510 -0.1409 -0.0418  0.2925
   10MOL    C10 5068   0.412   3.241   7.581  0.1621 -0.0192  0.0379
   10MOL    C11 5069   0.308   3.243   7.681  0.2711 -0.2915  0.3630
   10MOL    C12 5070   0.239   3.362   7.708 -1.1895 -0.2265  0.3137
   10MOL    C13 5071   0.136   3.359   7.815  0.5851 -0.2246  0.0962
   10MOL    O14 5072   0.084   3.254   7.842 -0.4373  0.0527  0.2469
   10MOL    C15 5073   0.277   3.479   7.633  0.1190  0.1419 -1.3400
   10MOL    C16 5074   0.381   3.485   7.543  0.3454  0.1915 -0.3444
   10MOL    H17 5075   0.747   3.893   7.187 -0.1472 -0.6287 -0.3382
   10MOL    H18 5076   0.831   3.898   7.332 -0.1416 -2.9690  1.2700
   10MOL    H19 5077   0.583   3.729   7.253  2.5309  0.5139 -2.7558
   10MOL    H20 5078   0.632   3.757   7.423 -0.1809  0.9087  0.2572
   10MOL    H21 5079   0.803   3.653   7.186 -1.5453 -0.3062 -0.5354
   10MOL    H22 5080   0.847   3.632   7.357  1.5776  3.3912 -1.6678
   10MOL    H23 5081   0.618   3.515   7.191 -0.9649 -0.8588  1.6024
   10MOL    H24 5082   0.758   3.416   7.268 -0.3351 -0.5591 -2.0592
   10MOL    H25 5083   0.455   3.144   7.565 -1.1576 -0.5184 -0.5439
   10MOL    H26 5084   0.284   3.144   7.717  0.0263 -0.7238 -0.9356
   10MOL    H27 5085   0.227   3.571   7.658 -1.1419 -1.4504  2.2520
   10MOL    H28 5086   0.417   3.579   7.504 -1.2321  1.4336  1.0865
   10MOL    H29 5087   0.653   3.996   7.435  0.3433 -0.4992 -0.2838
   10MOL    O30 5088   0.123   3.478   7.883 -0.1791  0.4255 -0.2124
   10MOL    C31 5089   0.024   3.491   7.987 -0.3090  0.1935  1.0303
   10MOL    C32 5090   0.064   3.605   8.076 -0.2523  0.4614 -0.0205
   10MOL    C33 5091   0.172   3.567   0.082  0.1508  0.4777 -0.4281
   10MOL    C34 5092   0.256   3.683   0.138 -0.2312 -0.0160 -0.5578
   10MOL    O35 5093   0.353   3.729   0.044  0.6279 -0.0045  0.0709
   10MOL    C36 5094   0.419   3.846   0.064 -0.0539  0.3285 -0.0803
   10MOL    O37 5095   0.401   3.913   0.166 -0.2998 -0.0569 -0.6082
   10MOL    C38 5096   0.520   3.886   8.061  1.0826  0.3805 -0.1837
   10MOL    C39 5097   0.470   3.882   7.926 -0.0454 -1.0102 -0.6857
   10MOL    C40 5098   0.551   3.929   7.824  0.7610 -0.0137  0.1351
   10MOL    C41 5099   0.680   3.983   7.850  0.4445 -0.3695  0.2284
   10MOL    C42 5100   0.761   4.041   7.734  0.5137  0.2538  1.0513
   10MOL    O43 5101   0.729   4.016   7.618  0.3269  0.5075 -0.4255
   10MOL    C44 5102   0.731   3.982   7.983 -0.3563 -0.1266  0.1938
   10MOL    C45 5103   0.643   3.942   8.088 -0.5756  0.0593  0.3425
   10MOL    H46 5104   8.032   3.521   7.935 -0.1528  1.8025  1.6781
   10MOL    H47 5105   0.005   3.400   8.044 -1.9693 -0.8142 -1.0650
   10MOL    H48 5106   8.073   3.636   0.030  0.9448  0.6432  1.9805
   10MOL    H49 5107   0.100   3.679   8.005  0.8714 -0.7702 -0.7586
   10MOL    H50 5108   0.116   3.524   0.164 -0.2795  1.4677 -0.1905
   10MOL    H51 5109   0.236   3.485   0.049 -1.0852 -0.6564 -0.0460
   10MOL    H52 5110   0.192   3.768   0.160  0.1488 -0.3979  2.1685
   10MOL    H53 5111   0.297   3.652   0.233 -2.7263  0.8433  0.8462
   10MOL    H54 5112   0.365   3.866   7.906  0.1230  1.3938 -3.7557
   10MOL    H55 5113   0.514   3.929   7.722  0.7588  1.6976  0.1314
   10MOL    H56 5114   0.833   4.014   7.999  0.0326 -0.3993 -1.6694
   10MOL    H57 5115   0.690   3.949   0.086  0.6889  0.3489 -0.2742
   10MOL    O58 5116   0.869   4.127   7.774  0.1931  0.3922 -0.4690
   10MOL    C59 5117   0.968   4.172   7.684  0.0576 -0.4557  0.0959
   10MOL    C60 5118   1.093   4.214   7.753 -0.1385  0.3283  0.0741
   10MOL    C61 5119   1.181   4.091   7.792  0.2603 -0.0117 -0.4912
   10MOL    C62 5120   1.332   4.117   7.826  0.0355 -0.1095  0.1776
   10MOL    O63 5121   1.407   4.120   7.709  0.1530 -0.5055  0.1779
   10MOL    C64 5122   1.536   4.088   7.706  0.3246  0.3993 -0.4819
   10MOL    O65 5123   1.588   4.026   7.801 -0.0313  0.1448  0.2277
   10MOL    C66 5124   1.604   4.135   7.585 -0.5708 -0.2184 -0.6623
   10MOL    C67 5125   1.747   4.131   7.582  0.6616  0.5754 -0.3190
   10MOL    C68 5126   1.825   4.187   7.476  0.1909  0.2483 -0.0746
   10MOL    C69 5127   1.757   4.256   7.371  0.2373  0.2985  0.7787
   10MOL    C70 5128   1.838   4.316   7.267  0.7602 -0.0919 -0.0681
   10MOL    O71 5129   1.954   4.293   7.247 -0.3698  0.3437 -0.2739
   10MOL    C72 5130   1.615   4.256   7.373  0.1912  0.0348  0.4402
   10MOL    C73 5131   1.542   4.194   7.477  0.6976  0.2573  0.1669
   10MOL    H74 5132   0.998   4.094   7.615  1.0449  0.0285 -0.0313
   10MOL    H75 5133   0.924   4.258   7.634  2.4938  1.2314  0.7883
   10MOL    H76 5134   1.071   4.270   7.843 -1.0756 -0.1733  0.1613
   10MOL    H77 5135   1.147   4.274   7.679 -0.6348  3.1121  1.9422
   10MOL    H78 5136   1.132   4.034   7.871  1.2488  1.5757  1.3151
   10MOL    H79 5137   1.182   4.022   7.708  0.1911  0.6791 -1.0649
   10MOL    H80 5138   1.346   4.195   7.901  0.8227  0.5838 -0.6852
   10MOL    H81 5139   1.359   4.025   7.877  4.1177  0.3680 -0.9279
   10MOL    H82 5140   1.794   4.085   7.667 -0.9654 -2.4077 -0.9515
   10MOL    H83 5141   1.929   4.162   7.469 -0.2020 -1.7131  0.8281
   10MOL    H84 5142   1.546   4.296   7.301  0.4004 -0.2067  0.1058
   10MOL    H85 5143   1.435   4.205   7.483  0.5133 -1.0943 -0.5054
   10MOL    O86 5144   1.767   4.399   7.192  0.0755 -0.5553 -0.7958
   10MOL    C87 5145   1.832   4.502   7.114 -0.0506  0.0997 -0.5241
   10MOL    C88 5146   1.734   4.583   7.026  0.0959  0.1005  0.4230
   10MOL    C89 5147   1.611   4.632   7.103 -0.2140 -0.6401 -0.1168
   10MOL    C90 5148   1.529   4.740   7.026 -0.2265  0.3752  0.0926
   10MOL    O91 5149   1.587   4.869   7.046 -0.3096 -0.1745  0.2909
   10MOL    C92 5150   1.549   4.961   6.970 -0.0817  0.1102  0.4098
   10MOL    O93 5151   1.475   4.949   6.878  0.7788  0.3473  0.4073
   10MOL    C94 5152   1.604   5.095   7.003  0.6516 -0.4463 -0.3364
   10MOL    C95 5153   1.571   5.209   6.919  0.7687  0.0540 -0.6917
   10MOL    C96 5154   1.659   5.321   6.926  0.4527 -0.7308 -0.2276
   10MOL    C97 5155   1.757   5.329   7.029 -0.3857 -0.5504 -0.2093
   10MOL    C98 5156   1.837   5.462   7.036 -0.2091 -0.0626 -0.8058
   10MOL    O99 5157   1.800   5.573   6.985 -0.0198 -0.2343  0.1189
   10MOL   C100 5158   1.776   5.225   7.121  0.9185  0.0753  0.3928
   10MOL   C101 5159   1.703   5.110   7.106 -0.5931  0.0886  0.0259
   10MOL   H102 5160   1.865   4.575   7.189 -1.5228  2.2947 -1.9635
   10MOL   H103 5161   1.925   4.478   7.062 -0.5426  1.1761 -1.9202
   10MOL   H104 5162   1.686   4.507   6.965  1.3574  1.3750 -2.2437
   10MOL   H105 5163   1.788   4.659   6.969 -0.6094  1.2499  1.2537
   10MOL   H106 5164   1.556   4.541   7.127 -0.3922 -0.4779  0.1071
   10MOL   H107 5165   1.640   4.677   7.198  2.5918 -2.5741 -0.0302
   10MOL   H108 5166   1.533   4.718   6.920  0.4066  1.0533 -0.0234
   10MOL   H109 5167   1.427   4.729   7.061 -0.2480  0.3810  0.0325
   10MOL   H110 5168   1.494   5.207   6.843  1.2496 -0.7106 -1.1679
   10MOL   H111 5169   1.653   5.412   6.869  1.4049 -0.6939 -0.2789
   10MOL   H112 5170   1.840   5.225   7.208  2.1409 -2.2553 -0.4693
   10MOL   H113 5171   1.723   5.030   7.177  0.8400  0.5439  0.1482
   10MOL   O114 5172   1.959   5.442   7.094  0.2016  0.4211 -0.1316
   10MOL   C115 5173   2.039   5.553   7.130 -0.2297 -0.0420 -0.0276
   10MOL   C116 5174   2.138   5.511   7.240 -0.6271 -0.0581 -0.7155
   10MOL   C117 5175   2.272   5.444   7.194 -0.2003 -0.5058 -0.2178
   10MOL   C118 5176   2.358   5.428   7.321  0.1906  0.4153  0.5785
   10MOL   O119 5177   2.480   5.355   7.298  0.1655  0.5229  0.0143
   10MOL   C120 5178   2.548   5.316   7.408 -0.6748 -0.0944 -0.6794
   10MOL   O121 5179   2.513   5.341   7.523 -0.1174  0.5625  0.3850
   10MOL   C122 5180   2.672   5.241   7.364  0.1950 -0.1522 -0.1097
   10MOL   C123 5181   2.772   5.227   7.457 -0.1895  0.0055 -0.0271
   10MOL   C124 5182   2.891   5.167   7.417  0.2406 -0.3977 -1.0731
   10MOL   C125 5183   2.902   5.111   7.288  0.5994 -0.0268 -0.8761
   10MOL   C126 5184   3.029   5.038   7.254  0.2719  0.3145 -0.3806
   10MOL   O127 5185   3.110   4.995   7.343  0.0935 -0.2095 -0.6809
   10MOL   C128 5186   2.793   5.121   7.196  0.6060  0.6841 -0.5666
   10MOL   C129 5187   2.682   5.200   7.230 -0.0839 -0.1509  0.6910
   10MOL   H130 5188   2.107   5.584   7.051  0.2937 -0.4994  0.2428
   10MOL   H131 5189   1.981   5.641   7.159  0.5972  0.3307  0.5154
   10MOL   H132 5190   2.095   5.445   7.315 -0.3637  1.5056  0.8350
   10MOL   H133 5191   2.150   5.606   7.291  1.1044  0.2725 -1.6575
   10MOL   H134 5192   2.254   5.347   7.148 -0.8629 -0.4907 -0.0019
   10MOL   H135 5193   2.328   5.501   7.121  2.8683 -0.9308  1.7091
   10MOL   H136 5194   2.397   5.526   7.347  1.0254  0.7481 -1.8042
   10MOL   H137 5195   2.301   5.388   7.405 -0.3305  0.1517  0.1067
   10MOL   H138 5196   2.762   5.276   7.553  1.0103 -1.7167  1.0011
   10MOL   H139 5197   2.976   5.177   7.484 -1.3936 -0.1497  1.0103
   10MOL   H140 5198   2.803   5.070   7.101 -3.2930 -2.4381  0.5502
   10MOL   H141 5199   2.599   5.209   7.162  1.6299  0.3670 -1.3841
   10MOL   O142 5200   3.052   5.026   7.127  0.1754  0.1217  0.1856
   10MOL   C143 5201   3.158   4.940   7.077  1.0233  0.2445  0.6553
   10MOL   C144 5202   3.104   4.880   6.944  0.3456 -0.7331  1.4492
   10MOL   C145 5203   3.207   4.805   6.854 -0.1686  0.5302  0.4691
   10MOL   C146 5204   3.165   4.771   6.709  0.0960  0.2377 -0.2454
   10MOL   O147 5205   3.070   4.669   6.721  0.1831  0.5914 -0.4415
   10MOL   C148 5206   3.007   4.622   6.612 -0.3954 -0.6921 -0.0002
   10MOL   O149 5207   3.015   4.670   6.497 -0.3792 -0.1254 -0.0561
   10MOL   C150 5208   2.915   4.509   6.642 -1.0846  0.0181  0.4765
   10MOL   C151 5209   2.903   4.399   6.548 -0.2137 -0.0628 -0.3208
   10MOL   C152 5210   2.803   4.301   6.571  0.5432 -0.2908 -0.0345
   10MOL   C153 5211   2.707   4.323   6.670  0.4028 -0.7718  0.8676
   10MOL   C154 5212   2.590   4.232   6.687  0.7142  0.0779  0.8045
   10MOL   O155 5213   2.518   4.235   6.782  0.1200 -0.2579  0.0380
   10MOL   C156 5214   2.716   4.434   6.754  0.2017 -0.2318  0.6445
   10MOL   C157 5215   2.827   4.520   6.753 -0.8157 -0.9486  0.0868
   10MOL   H158 5216   3.244   5.005   7.057  1.5216 -1.3646 -2.8016
   10MOL   H159 5217   3.193   4.875   7.157 -1.2299 -0.7472  0.8676
   10MOL   H160 5218   3.053   4.960   6.890  0.7832 -0.7523  1.0002
   10MOL   H161 5219   3.027   4.807   6.968 -0.8417 -0.7257 -2.0054
   10MOL   H162 5220   3.297   4.866   6.845  1.3932 -1.6203  1.1267
   10MOL   H163 5221   3.255   4.717   6.895  0.9679  1.1754  0.5545
   10MOL   H164 5222   3.125   4.861   6.661  1.0617  1.4620  1.1956
   10MOL   H165 5223   3.248   4.726   6.655 -0.0987 -2.0990  1.3478
   10MOL   H166 5224   2.974   4.379   6.470  0.0737 -0.9268  0.1548
   10MOL   H167 5225   2.808   4.214   6.507  0.7070 -0.9495  0.8638
   10MOL   H168 5226   2.644   4.454   6.832  2.2031 -0.3247  2.5771
   10MOL   H169 5227   2.825   4.612   6.809  0.2205  0.3361 -1.9378
   10MOL   O170 5228   2.571   4.144   6.593  0.0608  0.5974  0.5140
   10MOL   C171 5229   2.467   4.048   6.599  0.7784  0.3590  0.1292
   10MOL   C172 5230   2.504   3.923   6.691 -0.0692 -0.3210 -0.3651
   10MOL   C173 5231   2.434   3.787   6.674  0.2700  0.4024 -0.1850
   10MOL   C174 5232   2.285   3.779   6.672  0.5172 -0.4543 -0.5049
   10MOL   O175 5233   2.227   3.838   6.558  0.4485  0.4068 -0.6711
   10MOL   C176 5234   2.095   3.835   6.534 -0.1766 -0.1583  0.2862
   10MOL   O177 5235   2.011   3.794   6.614 -0.0555 -0.3667 -0.0598
   10MOL   C178 5236   2.064   3.892   6.398  0.0492  0.6651  0.4453
   10MOL   C179 5237   2.153   3.977   6.332 -0.3491  0.1320 -0.7430
   10MOL   C180 5238   2.116   4.026   6.207  0.1455 -0.5120  0.2695
   10MOL   C181 5239   2.000   3.982   6.141  0.1912  0.3713  0.6757
   10MOL   C182 5240   1.970   4.027   6.002 -0.3448 -0.2451  0.0365
   10MOL   O183 5241   2.033   4.117   5.943  0.3308  0.1978  0.3177
   10MOL   C184 5242   1.908   3.899   6.206  0.3406 -0.7061 -0.4305
   10MOL   C185 5243   1.945   3.852   6.330  0.8578  0.4465 -0.3364
   10MOL   H186 5244   2.378   4.100   6.636  0.4940  0.1728 -0.2863
   10MOL   H187 5245   2.442   4.016   6.498  0.4471  2.5643 -0.5025
   10MOL   H188 5246   2.485   3.959   6.793 -0.7048  1.3564 -1.0601
   10MOL   H189 5247   2.610   3.904   6.679 -0.1689 -2.3259  1.4852
   10MOL   H190 5248   2.469   3.744   6.580 -0.0676  1.1091 -0.6326
   10MOL   H191 5249   2.463   3.713   6.749  1.5699  1.3428  0.2577
   10MOL   H192 5250   2.247   3.677   6.675 -3.1746  0.8819  1.1021
   10MOL   H193 5251   2.264   3.822   6.770  1.4568  0.4209 -0.6866
   10MOL   H194 5252   2.241   4.016   6.380  0.0876 -0.5092 -1.0064
   10MOL   H195 5253   2.182   4.096   6.159 -2.7943  0.9136 -1.8392
   10MOL   H196 5254   1.812   3.876   6.161  1.0067  0.7269 -2.6746
   10MOL   H197 5255   1.869   3.797   6.384  0.9572 -0.1028 -0.7615
   10MOL   O198 5256   1.875   3.961   5.944  0.0335 -0.2727 -0.2099
   10MOL   C199 5257   1.833   4.003   5.818  0.4429  0.1452 -0.7841
   10MOL   C200 5258   1.683   3.971   5.807 -0.1224 -0.1990  0.2798
   10MOL   C201 5259   1.658   3.823   5.787 -0.5336  0.6182 -0.5166
   10MOL   C202 5260   1.520   3.793   5.742  0.3186 -0.4204 -0.1013
   10MOL   O203 5261   1.422   3.877   5.797  0.3187 -0.5654  0.1852
   10MOL   C204 5262   1.338   3.841   5.897 -0.2875 -0.6313  0.3353
   10MOL   O205 5263   1.349   3.735   5.949  0.0670  0.7218  0.5871
   10MOL   C206 5264   1.232   3.945   5.929 -0.0719 -0.8233  0.2404
   10MOL   C207 5265   1.228   4.063   5.854 -0.8460 -0.3200  0.2537
   10MOL   C208 5266   1.117   4.150   5.867 -0.4179  0.3873 -0.3672
   10MOL   C209 5267   1.020   4.125   5.968 -0.3111  0.5582 -0.3447
   10MOL   C210 5268   0.907   4.224   5.989  0.4803 -0.4706 -0.1506
   10MOL   O211 5269   0.877   4.321   5.914 -0.1491 -0.3327 -0.4082
   10MOL   C212 5270   1.025   4.000   6.041 -0.7207  0.1380  0.3400
   10MOL   C213 5271   1.132   3.917   6.022  0.5188 -0.2319 -0.4749
   10MOL   H214 5272   1.844   4.109   5.799  1.0308  0.2010 -0.1108
   10MOL   H215 5273   1.891   3.955   5.739 -0.8465  0.5040 -1.9857
   10MOL   H216 5274   1.662   4.024   5.714  2.1261  0.5173  0.1479
   10MOL   H217 5275   1.629   4.013   5.892 -1.1302 -0.7089 -0.1027
   10MOL   H218 5276   1.733   3.775   5.725  0.7013  2.0477 -0.1557
   10MOL   H219 5277   1.678   3.790   5.889  2.4164  0.6727 -1.0464
   10MOL   H220 5278   1.517   3.833   5.640 -0.1641 -0.6029 -0.1619
   10MOL   H221 5279   1.499   3.687   5.753  0.8951 -0.8178 -2.5602
   10MOL   H222 5280   1.308   4.079   5.783 -0.2568 -1.3552  0.6737
   10MOL   H223 5281   1.109   4.229   5.794  3.3268  1.8063  0.6502
   10MOL   H224 5282   0.952   3.969   6.115 -1.2141  0.2988 -0.0727
   10MOL   H225 5283   1.126   3.829   6.084 -0.5248 -0.2397 -0.5634
   10MOL   O226 5284   0.832   4.192   6.097  0.7886  0.5066 -0.3924
   10MOL   C227 5285   0.729   4.285   6.139 -0.7950 -0.3069  0.1216
   10MOL   C228 5286   0.593   4.271   6.050 -0.3012  0.0728 -0.8857
   10MOL   C229 5287   0.488   4.367   6.095  0.3624 -1.2284 -0.0937
   10MOL   C230 5288   0.362   4.363   6.010  0.4055  0.6773  0.2750
   10MOL   O231 5289   0.273   4.470   6.029  0.4064 -0.2807  0.2395
   10MOL   C232 5290   0.232   4.555   5.924 -0.2146  0.9908 -0.2359
   10MOL   O233 5291   0.262   4.545   5.806 -0.1350  0.4854  0.2140
   10MOL   C234 5292   0.129   4.655   5.968 -0.7910 -0.5416  1.0051
   10MOL   C235 5293   0.054   4.717   5.868  0.3145  0.2372 -0.0884
   10MOL   C236 5294   8.056   4.817   5.902  0.1280  0.2366 -0.5716
   10MOL   C237 5295   8.033   4.840   6.037 -0.5826  0.0577  0.1565
   10MOL   C238 5296   7.928   4.940   6.066  0.1244  0.3273  0.3784
   10MOL   O239 5297   7.858   4.999   5.978  0.3479 -0.4930  0.9083
   10MOL   C240 5298   0.008   4.783   6.135 -0.7050 -0.0524 -0.2912
   10MOL   C241 5299   0.104   4.687   6.104  0.4107  0.6624 -0.7600
   10MOL   H242 5300   0.720   4.274   6.247  1.4289 -1.1932  0.2411
   10MOL   H243 5301   0.767   4.387   6.138 -0.2965 -0.4662  1.3757
   10MOL   H244 5302   0.550   4.171   6.053 -0.4727  0.0792 -2.5537
   10MOL   H245 5303   0.617   4.287   5.944  1.9724 -0.0608 -0.4239
   10MOL   H246 5304   0.470   4.350   6.201 -2.2874  0.8518 -0.1453
   10MOL   H247 5305   0.521   4.470   6.093  0.4229 -1.2664 -3.4553
   10MOL   H248 5306   0.382   4.353   5.904 -1.0402 -3.2250  0.2974
   10MOL   H249 5307   0.311   4.269   6.030 -2.1201  2.1627  1.1519
   10MOL   H250 5308   0.052   4.696   5.763  1.1039  2.4646 -0.5738
   10MOL   H251 5309   7.996   4.860   5.823  0.0248  0.7628 -0.2077
   10MOL   H252 5310   0.011   4.801   6.241  1.8688  0.0747 -0.3685
   10MOL   H253 5311   0.160   4.639   6.183 -0.9528 -1.1852 -0.8916
   10MOL   O254 5312   7.917   4.954   6.205 -0.2211 -0.3868 -0.3557
   10MOL   C255 5313   7.821   5.047   6.266 -0.0784  0.3384  0.0947
   10MOL   C256 5314   7.773   4.999   6.406  0.0429 -0.2062  0.1311
   10MOL   C257 5315   7.689   4.871   6.406 -0.7172 -0.2233  0.6474
   10MOL   C258 5316   7.553   4.908   6.332 -0.1920 -0.1923 -0.7131
   10MOL   O259 5317   7.571   4.871   6.197 -0.3988 -1.3185 -0.2826
   10MOL   C260 5318   7.500   4.934   6.095  0.7485  0.3461 -0.1510
   10MOL   O261 5319   7.421   5.029   6.123  0.1380  0.0852 -0.8296
   10MOL   C262 5320   7.524   4.879   5.960  0.0113  0.6352  0.5531
   10MOL   C263 5321   7.638   4.806   5.921 -0.0706 -0.4717 -1.1183
   10MOL   C264 5322   7.649   4.754   5.789 -0.3643  0.3141  0.1331
   10MOL   C265 5323   7.551   4.789   5.693 -0.0812  0.3399  0.6484
   10MOL   C266 5324   7.554   4.743   5.555  0.3511 -0.0018  0.2282
   10MOL   O267 5325   7.476   4.770   5.465  0.7074  0.1554 -0.2522
   10MOL   C268 5326   7.438   4.865   5.734 -0.5937 -0.4917  0.5410
   10MOL   C269 5327   7.425   4.907   5.867  0.0558  0.2397 -0.5162
   10MOL   H270 5328   7.881   5.138   6.271  1.4227 -0.6200 -0.1802
   10MOL   H271 5329   7.736   5.067   6.202  0.6728  1.7058 -0.4841
   10MOL   H272 5330   7.729   5.090   6.449  2.2004  1.8301 -1.8015
   10MOL   H273 5331   7.857   4.981   6.473  1.6626 -1.9142 -2.3044
   10MOL   H274 5332   7.742   4.800   6.342 -1.1794  0.5189 -0.5762
   10MOL   H275 5333   7.681   4.819   6.501 -1.9536 -0.0871  0.6289
   10MOL   H276 5334   7.471   4.847   6.372 -0.4015 -1.0309 -2.3542
   10MOL   H277 5335   7.517   5.010   6.345 -0.2371 -0.6741  3.8292
   10MOL   H278 5336   7.712   4.792   5.998 -0.4190  0.2672 -0.6409
   10MOL   H279 5337   7.716   4.673   5.764  0.6246  0.3559  2.4932
   10MOL   H280 5338   7.355   4.883   5.666  0.8236  0.4821 -0.9613
   10MOL   H281 5339   7.336   4.962   5.896  0.8165  0.7783  0.8253
   10MOL   O282 5340   7.666   4.675   5.526  0.0114 -0.1715  0.4522
   10MOL   C283 5341   7.715   4.651   5.390  0.2495  0.0478 -0.0121
   10MOL   C284 5342   7.658   4.525   5.329 -0.2053  0.0561  0.5583
   10MOL   C285 5343   7.694   4.400   5.416 -0.3743 -0.0065  0.0488
   10MOL   C286 5344   7.718   4.270   5.330 -0.3383  0.6765  0.2846
   10MOL   O287 5345   7.839   4.273   5.269 -0.0699 -0.0104  0.1432
   10MOL   C288 5346   7.855   4.237   5.138  0.0942  0.0341  0.8959
   10MOL   O289 5347   7.764   4.210   5.063  0.5489 -0.2934 -0.1561
   10MOL   C290 5348   7.994   4.248   5.080  0.2767  0.0380  0.3474
   10MOL   C291 5349   8.089   4.342   5.133 -0.0627 -0.4996  0.1075
   10MOL   C292 5350   0.111   4.359   5.063 -0.0757 -0.3955  0.1247
   10MOL   C293 5351   0.147   4.282   4.948  0.6837  0.0337  0.4354
   10MOL   C294 5352   0.277   4.302   4.884  0.0880  0.2487  0.0535
   10MOL   O295 5353   0.348   4.397   4.918 -0.0791  0.2487  0.6429
   10MOL   C296 5354   0.051   4.193   4.894  0.6410  0.6422  0.2750
   10MOL   C297 5355   8.026   4.173   4.960  0.2426 -0.2535 -0.1489
   10MOL   H298 5356   7.704   4.732   5.318  0.0043 -0.9472 -1.1128
   10MOL   H299 5357   7.824   4.655   5.394  0.2449 -0.0730  0.2490
   10MOL   H300 5358   7.689   4.510   5.226  2.0363 -1.2447  1.3675
   10MOL   H301 5359   7.550   4.534   5.334 -0.0663  1.7831  0.5958
   10MOL   H302 5360   7.779   4.409   5.483  1.3999 -1.7114 -1.9223
   10MOL   H303 5361   7.605   4.389   5.478 -0.4137 -0.1994 -0.0417
   10MOL   H304 5362   7.711   4.201   5.414 -0.1751 -0.3347 -0.5181
   10MOL   H305 5363   7.632   4.258   5.265  0.0708  1.1559 -0.3465
   10MOL   H306 5364   8.069   4.413   5.211  0.1338  0.8876 -1.0859
   10MOL   H307 5365   0.190   4.425   5.096 -0.4792  0.7788 -1.1761
   10MOL   H308 5366   0.081   4.134   4.809 -1.1118 -2.5822  1.7858
   10MOL   H309 5367   7.956   4.103   4.917  0.0309  0.4335 -0.9270
   10MOL   O310 5368   0.295   4.227   4.768  0.0505  0.3794  0.1179
   10MOL   C311 5369   0.405   4.252   4.681 -0.0163  0.5532  0.0185
   10MOL   C312 5370   0.370   4.350   4.575 -0.3653  0.0918  0.8405
   10MOL   C313 5371   0.299   4.300   4.452  0.1929  0.1082  0.1229
   10MOL   C314 5372   0.346   4.163   4.388  0.4586 -0.0589 -0.3046
   10MOL   O315 5373   0.284   4.131   4.268  0.0423 -0.0560  0.1518
   10MOL   C316 5374   0.332   4.035   4.188 -0.3662 -0.9346  0.8973
   10MOL   O317 5375   0.436   3.976   4.213  0.2742  0.5882 -0.1445
   10MOL   C318 5376   0.239   4.018   4.072  0.1051 -0.3652 -0.3157
   10MOL   C319 5377   0.109   4.073   4.082  0.3250  0.5488  0.2232
   10MOL   C320 5378   0.029   4.083   3.963 -1.0414 -0.2998  0.0831
   10MOL   C321 5379   0.072   4.016   3.841 -0.1064 -0.3552  0.2429
   10MOL   C322 5380   8.078   4.008   3.717  0.2660  0.4179 -0.4020
   10MOL   O323 5381   7.970   4.062   3.707 -0.7760 -0.1471 -0.7259
   10MOL   C324 5382   0.197   3.950   3.842  1.2794 -0.1026  0.6124
   10MOL   C325 5383   0.282   3.957   3.955 -0.0017  0.1323 -0.3148
   10MOL   H326 5384   0.486   4.292   4.742  0.5557  0.0845 -0.4241
   10MOL   H327 5385   0.451   4.162   4.639 -0.6489 -1.0232  2.6340
   10MOL   H328 5386   0.465   4.396   4.545 -1.2237  1.0733 -0.4470
   10MOL   H329 5387   0.306   4.429   4.615 -0.0377  0.7244  0.1449
   10MOL   H330 5388   0.195   4.283   4.478  0.2262  0.8572  0.7799
   10MOL   H331 5389   0.308   4.382   4.380 -0.4008 -0.0217 -0.0968
   10MOL   H332 5390   0.455   4.170   4.379  0.3786  1.6060 -0.1653
   10MOL   H333 5391   0.323   4.078   4.452 -0.2469 -0.7952 -1.5310
   10MOL   H334 5392   0.076   4.126   4.170 -1.7391 -2.5905  1.4311
   10MOL   H335 5393   8.031   4.132   3.967 -0.5692  0.6402  0.2136
   10MOL   H336 5394   0.220   3.890   3.755  2.3063  0.0229  0.7918
   10MOL   H337 5395   0.382   3.918   3.952 -0.4487 -1.0837  0.2989
   10MOL   O338 5396   0.030   3.935   3.621  0.0533 -0.3358 -0.2114
   10MOL   C339 5397   8.073   3.919   3.494 -0.2687  0.2109  0.2860
   10MOL   C340 5398   0.057   3.828   3.414 -0.4493  0.3020 -0.7255
   10MOL   C341 5399   0.027   3.845   3.262 -0.1303  0.5226  0.3023
   10MOL   C342 5400   0.107   3.742   3.177 -0.4983 -0.0893 -0.4630
   10MOL   O343 5401   0.119   3.773   3.036 -0.2540  0.2001 -0.3407
   10MOL   C344 5402   0.226   3.719   2.973 -0.5947  0.4047  0.6730
   10MOL   O345 5403   0.307   3.639   3.024 -0.5920  0.1616 -0.3501
   10MOL   C346 5404   0.238   3.773   2.836 -0.4598  0.4941  0.3400
   10MOL   C347 5405   0.139   3.853   2.774 -0.2590 -0.4313 -0.5316
   10MOL   C348 5406   0.162   3.904   2.644  0.0842 -0.6902  0.7796
   10MOL   C349 5407   0.276   3.881   2.575 -0.4036 -0.6088  1.1839
   10MOL   C350 5408   0.300   3.952   2.445 -0.0859  0.0843  0.2188
   10MOL   O351 5409   0.219   4.029   2.396 -0.2291  0.2192 -0.5897
   10MOL   C352 5410   0.374   3.796   2.629 -0.2856 -0.4652  0.1085
   10MOL   C353 5411   0.353   3.748   2.758  0.5556  0.0081  0.0059
   10MOL   H354 5412   7.975   3.875   3.510 -0.9932  2.1029  1.1483
   10MOL   H355 5413   8.054   4.008   3.434  0.6538 -0.0906 -0.4745
   10MOL   H356 5414   0.042   3.724   3.442 -1.2949 -0.1811 -2.8756
   10MOL   H357 5415   0.163   3.851   3.415 -0.0015 -1.7110 -0.8546
   10MOL   H358 5416   8.021   3.836   3.231  0.3235 -2.0991 -0.6415
   10MOL   H359 5417   0.062   3.943   3.231  0.0188  0.3119 -0.1964
   10MOL   H360 5418   0.205   3.727   3.222  0.7852  2.1232 -2.4237
   10MOL   H361 5419   0.069   3.640   3.180 -0.4587 -0.0722  0.7114
   10MOL   H362 5420   0.046   3.864   2.828 -0.1354  1.0449 -0.6084
   10MOL   H363 5421   0.085   3.959   2.592 -0.1085 -2.5888 -1.0006
   10MOL   H364 5422   0.465   3.766   2.580  0.6957  0.9334  1.0229
   10MOL   H365 5423   0.433   3.699   2.810  0.0598  0.5674  1.3217
   10MOL   O366 5424   0.415   3.914   2.378 -0.5557  0.0217  0.3338
   10MOL   C367 5425   0.437   3.955   2.245  0.2602 -0.7842 -0.2232
   10MOL   C368 5426   0.571   4.036   2.246 -0.0981 -0.4639 -0.3420
   10MOL   C369 5427   0.620   4.095   2.107 -0.1182  0.0399  0.0745
   10MOL   C370 5428   0.679   3.988   2.008  0.1181 -0.2736 -0.6569
   10MOL   O371 5429   0.567   3.910   1.955 -0.0881  1.1110  0.4370
   10MOL   C372 5430   0.594   3.813   1.871  0.0370 -0.9217 -0.5500
   10MOL   O373 5431   0.708   3.767   1.848  0.2872 -0.2745  0.2696
   10MOL   C374 5432   0.471   3.755   1.820  0.4072  0.7502  0.9383
   10MOL   C375 5433   0.475   3.634   1.748  0.1982  0.9685  0.1101
   10MOL   C376 5434   0.358   3.563   1.708  0.3302 -0.4323  0.0369
   10MOL   C377 5435   0.232   3.618   1.739  0.8364  0.2089  0.7238
   10MOL   C378 5436   0.103   3.551   1.695  0.4432 -1.1268 -0.0955
   10MOL   O379 5437   8.089   3.575   1.742  0.0975 -0.1072  0.1581
   10MOL   C380 5438   0.231   3.734   1.822 -0.0714  0.8567  0.2031
   10MOL   C381 5439   0.343   3.810   1.859  0.0650  1.0684  0.2762
   10MOL   H382 5440   0.447   3.865   2.184 -2.9686 -1.2052 -0.2065
   10MOL   H383 5441   0.352   4.003   2.197  0.7063  1.1601  0.8739
   10MOL   H384 5442   0.655   3.973   2.276  0.4665  1.3738  2.0381
   10MOL   H385 5443   0.562   4.117   2.318  0.5450 -0.7885  0.1098
   10MOL   H386 5444   0.549   4.159   2.054 -0.5388  0.3723  1.0303
   10MOL   H387 5445   0.704   4.159   2.132 -0.9038  1.7137 -1.4697
   10MOL   H388 5446   0.726   4.035   1.922  1.4872  1.5901  1.0799
   10MOL   H389 5447   0.751   3.924   2.060  0.6170  2.8381  2.7111
   10MOL   H390 5448   0.569   3.587   1.723 -0.9576 -1.5821  0.3404
   10MOL   H391 5449   0.370   3.472   1.651  1.0994  0.1917 -0.8246
   10MOL   H392 5450   0.132   3.764   1.854 -0.4741  0.6378 -0.8402
   10MOL   H393 5451   0.323   3.897   1.920 -0.4971  0.6169  0.7362
   10MOL   O394 5452   0.128   3.451   1.612 -0.0106 -0.3177 -0.1786
   10MOL   C395 5453   0.028   3.364   1.558 -0.0931 -0.3114 -0.2518
   10MOL   C396 5454   0.069   3.219   1.567 -0.2147  0.1217  0.1023
   10MOL   C397 5455   0.068   3.182   1.717 -0.0687 -0.1322  0.2493
   10MOL   C398 5456   0.105   3.035   1.747  0.8539  0.2848  0.0350
   10MOL   O399 5457   0.248   3.020   1.745  0.6312 -0.2704  0.3843
   10MOL   C400 5458   0.303   2.967   1.631  0.5733 -0.5736 -0.1730
   10MOL   O401 5459   0.237   2.934   1.533  0.1631  0.0260 -0.0583
   10MOL   C402 5460   0.452   2.955   1.651  0.6508 -0.3026  0.0327
   10MOL   C403 5461   0.508   2.974   1.780  0.4349  0.0458 -0.1177
   10MOL   C404 5462   0.633   2.919   1.807  0.0597  0.1862 -0.5324
   10MOL   C405 5463   0.701   2.856   1.700  0.2689 -0.0644  0.0630
   10MOL   C406 5464   0.825   2.784   1.737  0.4220 -0.3300 -0.2586
   10MOL   O407 5465   0.890   2.807   1.839  0.0409  0.0921 -0.5045
   10MOL   C408 5466   0.656   2.851   1.569  0.7411 -0.5154 -0.0238
   10MOL   C409 5467   0.525   2.900   1.546  0.7684  0.3863  0.2657
   10MOL   H410 5468   8.036   3.373   1.617 -0.0866 -1.2764 -0.0953
   10MOL   H411 5469   0.012   3.388   1.452  0.8285  1.4548 -0.0198
   10MOL   H412 5470   0.170   3.223   1.527  0.3869 -0.2553  1.5373
   10MOL   H413 5471   0.009   3.154   1.503  1.5739  0.0973 -1.5668
   10MOL   H414 5472   0.142   3.249   1.760  0.1748 -0.1949 -0.0731
   10MOL   H415 5473   8.065   3.191   1.757 -0.4506  1.2274 -0.9582
   10MOL   H416 5474   0.083   3.008   1.851  2.2455 -0.3955  0.1562
   10MOL   H417 5475   0.059   2.962   1.681 -0.2042 -0.1154  1.1832
   10MOL   H418 5476   0.446   3.009   1.861 -0.3803  0.7137 -1.0210
   10MOL   H419 5477   0.665   2.909   1.910  0.5998 -1.2887 -0.8417
   10MOL   H420 5478   0.711   2.804   1.488 -0.1194 -1.0223 -0.3228
   10MOL   H421 5479   0.471   2.877   1.455  2.9720 -0.6213 -0.8296
   10MOL   O422 5480   0.859   2.690   1.654 -0.1724  0.8454  0.1930
   10MOL   C423 5481   0.983   2.630   1.668  0.3243 -0.6482  0.1180
   10MOL   C424 5482   0.974   2.509   1.760  0.5193  0.8409 -0.5556
   10MOL   C425 5483   0.947   2.380   1.687  0.3989  0.5351 -0.6712
   10MOL   C426 5484   0.923   2.275   1.785 -0.3590 -0.0320  0.4246
   10MOL   O427 5485   0.928   2.143   1.726  0.0371 -0.1697  0.4724
   10MOL   C428 5486   0.859   2.046   1.777  0.0875 -0.3334 -0.2971
   10MOL   O429 5487   0.787   2.057   1.872  0.2951  0.0660  0.4680
   10MOL   C430 5488   0.888   1.921   1.705  0.0512 -0.1153  0.1207
   10MOL   C431 5489   0.961   1.923   1.579  0.4358  0.0951 -0.4978
   10MOL   C432 5490   0.997   1.806   1.514 -0.4898 -0.0581 -1.0575
   10MOL   C433 5491   0.977   1.684   1.579 -1.0063 -0.1549 -0.2599
   10MOL   C434 5492   1.027   1.557   1.519  0.2353  0.3687 -0.3708
   10MOL   O435 5493   0.997   1.446   1.561  0.4529 -0.0979  0.2086
   10MOL   C436 5494   0.906   1.684   1.703 -0.1665  0.8088 -0.4590
   10MOL   C437 5495   0.865   1.798   1.766  0.0568 -0.1473  0.3135
   10MOL   H438 5496   1.014   2.594   1.570 -1.6441  1.9477 -1.5197
   10MOL   H439 5497   1.054   2.703   1.706 -1.2223  0.5205  0.8344
   10MOL   H440 5498   0.892   2.532   1.828 -0.0379  0.8845 -1.2356
   10MOL   H441 5499   1.063   2.488   1.819  0.5567  0.8230 -0.6197
   10MOL   H442 5500   0.863   2.389   1.617 -1.6190 -2.2062  1.2882
   10MOL   H443 5501   1.037   2.355   1.632  0.3347 -1.8215  0.2279
   10MOL   H444 5502   0.998   2.290   1.863  0.4102  1.0077 -0.4912
   10MOL   H445 5503   0.827   2.300   1.829 -1.2106 -0.9020 -0.8951
   10MOL   H446 5504   0.981   2.019   1.534 -1.2327  0.5048 -0.4067
   10MOL   H447 5505   1.053   1.803   1.422  1.0114 -0.8053 -0.1411
   10MOL   H448 5506   0.879   1.585   1.734  3.2032  0.3341  1.2721
   10MOL   H449 5507   0.810   1.796   1.859 -1.5913 -0.8099 -0.6582
   10MOL   O450 5508   1.100   1.581   1.408  0.1671  0.4201 -0.4324
   10MOL   C451 5509   1.131   1.479   1.321  0.3107  0.2765  0.3695
   10MOL   C452 5510   1.199   1.532   1.196 -0.7282  0.1489 -0.2307
   10MOL   C453 5511   1.138   1.664   1.137  0.0256  0.2304 -0.2178
   10MOL   C454 5512   1.220   1.725   1.018  0.3460  0.4136  0.0086
   10MOL   O455 5513   1.185   1.668   0.890  0.0884 -0.5367 -0.4965
   10MOL   C456 5514   1.248   1.562   0.834 -0.3120 -0.1658 -0.2589
   10MOL   O457 5515   1.341   1.499   0.880  0.4042 -0.3200 -0.2156
   10MOL   C458 5516   1.194   1.541   0.697 -0.1847  0.4865  0.4853
   10MOL   C459 5517   1.063   1.583   0.677  1.3706  0.0469  0.8027
   10MOL   C460 5518   0.998   1.553   0.553 -0.4447  0.0084  0.3487
   10MOL   C461 5519   1.067   1.492   0.451  0.0439 -1.1515  0.1811
   10MOL   C462 5520   1.004   1.464   0.320  0.7181  0.6620  0.5279
   10MOL   O463 5521   1.049   1.386   0.237 -0.5223  0.0362  0.3201
   10MOL   C464 5522   1.189   1.433   0.477  0.1852  0.0184 -0.1187
   10MOL   C465 5523   1.259   1.462   0.597  0.7303  0.1695  0.1581
   10MOL   H466 5524   1.203   1.410   1.364  1.1685  1.9077  1.6043
   10MOL   H467 5525   1.040   1.424   1.296  0.5682 -1.1447  2.4371
   10MOL   H468 5526   1.206   1.452   1.122  0.4840  1.4387 -1.5432
   10MOL   H469 5527   1.297   1.568   1.227  0.1880  1.3364 -4.1526
   10MOL   H470 5528   1.036   1.646   1.105 -0.2256  3.0014 -1.1018
   10MOL   H471 5529   1.132   1.741   1.214  1.8448  1.6092 -1.4145
   10MOL   H472 5530   1.205   1.832   1.005  1.1545  0.1945 -3.2262
   10MOL   H473 5531   1.326   1.717   1.041  0.1132 -3.2697  0.0886
   10MOL   H474 5532   1.005   1.639   0.749  2.5504  0.3952  1.4903
   10MOL   H475 5533   0.899   1.589   0.526 -0.0999  1.8639  1.4536
   10MOL   H476 5534   1.241   1.368   0.408  0.8561  3.4952 -3.0653
   10MOL   H477 5535   1.352   1.412   0.615  0.3974 -0.5250 -0.0357
   10MOL   O478 5536   0.886   1.525   0.308  0.8087  0.2962 -0.3578
   10MOL   C479 5537   0.809   1.510   0.193  0.0936  0.0876 -0.2606
   10MOL   C480 5538   0.706   1.622   0.193  0.1623  0.0851 -0.0494
   10MOL   C481 5539   0.588   1.594   0.290 -0.4252 -0.1895  0.1690
   10MOL   C482 5540   0.472   1.696   0.280  0.1140 -0.3390 -0.3173
   10MOL   O483 5541   0.518   1.819   0.331 -0.0969  0.0563 -0.3948
   10MOL   C484 5542   0.429   1.924   0.344  0.3876 -0.2610 -0.1244
   10MOL   O485 5543   0.320   1.935   0.288 -0.4246 -1.0177 -0.4337
   10MOL   C486 5544   0.481   2.022   0.441  0.6458 -0.5052  0.7511
   10MOL   C487 5545   0.620   2.035   0.462  0.2479 -0.2947  0.4048
   10MOL   C488 5546   0.661   2.148   0.548  0.3879 -0.0790 -0.0494
   10MOL   C489 5547   0.571   2.232   0.616 -0.3169 -0.0313  0.2942
   10MOL   C490 5548   0.603   2.357   0.683  0.1708 -0.1233  0.3604
   10MOL   O491 5549   0.529   2.449   0.705  0.0079 -0.1184  0.6280
   10MOL   C492 5550   0.435   2.202   0.605  0.5355 -0.1655  0.4295
   10MOL   C493 5551   0.393   2.097   0.522  0.1289  0.5250 -0.4747
   10MOL   H494 5552   0.880   1.509   0.110  1.9517 -0.3477  1.2931
   10MOL   H495 5553   0.769   1.409   0.202  0.9596 -0.4861 -2.5311
   10MOL   H496 5554   0.675   1.616   0.088  2.9167 -1.7211 -0.8003
   10MOL   H497 5555   0.749   1.720   0.212  2.1040 -0.6449 -0.5770
   10MOL   H498 5556   0.548   1.494   0.273  1.1256 -0.5726 -1.3161
   10MOL   H499 5557   0.615   1.586   0.396 -3.2045 -0.3979  0.8949
   10MOL   H500 5558   0.448   1.711   0.175 -0.2983  0.1928 -0.1498
   10MOL   H501 5559   0.382   1.660   0.331 -0.8132 -0.0735 -1.7340
   10MOL   H502 5560   0.704   1.988   0.414  1.4001  1.6968  0.4396
   10MOL   H503 5561   0.766   2.160   0.571  0.1297  0.9002  0.6291
   10MOL   H504 5562   0.352   2.257   0.646 -0.6426 -0.9119 -0.8626
   10MOL   H505 5563   0.287   2.096   0.503 -0.1206 -0.0016  0.8963
   10MOL   O506 5564   0.735   2.356   0.704  0.0618 -0.1492  0.4553
   10MOL   C507 5565   0.793   2.467   0.771 -0.6112 -0.0487  0.2293
   10MOL   C508 5566   0.900   2.523   0.678 -0.2002  0.6223 -0.2816
   10MOL   C509 5567   0.853   2.630   0.579  0.0272  0.1448 -0.3228
   10MOL   C510 5568   0.814   2.766   0.636 -0.5335 -0.3421  0.0569
   10MOL   O511 5569   0.928   2.817   0.704 -0.0738 -0.4861 -0.1692
   10MOL   C512 5570   0.959   2.943   0.701  0.0423 -0.1343  0.0837
   10MOL   O513 5571   0.921   3.023   0.617 -0.1726  0.0281 -0.4317
   10MOL   C514 5572   1.065   2.976   0.795 -0.0903 -0.2551 -0.1841
   10MOL   C515 5573   1.154   2.880   0.855 -0.4420  0.3594  0.2699
   10MOL   C516 5574   1.252   2.920   0.952  0.2408  0.0608  0.1598
   10MOL   C517 5575   1.263   3.056   0.985  0.2308 -0.1147 -0.5895
   10MOL   C518 5576   1.360   3.095   1.095  0.3010  0.2947  0.4116
   10MOL   O519 5577   1.421   3.011   1.164  0.4752  0.1098 -0.2920
   10MOL   C520 5578   1.187   3.156   0.922  0.0141  0.1997 -0.0302
   10MOL   C521 5579   1.083   3.118   0.830  0.0192  0.5569  0.8948
   10MOL   H522 5580   0.723   2.540   0.811 -0.0768  0.9623 -0.6745
   10MOL   H523 5581   0.843   2.424   0.857  0.5313 -1.2992 -1.0289
   10MOL   H524 5582   0.947   2.445   0.618  0.3072  0.9184 -0.2757
   10MOL   H525 5583   0.982   2.568   0.734 -1.5544 -0.7317  2.8990
   10MOL   H526 5584   0.931   2.651   0.506 -1.9829  0.1098 -2.5440
   10MOL   H527 5585   0.769   2.589   0.522  0.3265 -2.1126  0.7898
   10MOL   H528 5586   0.795   2.835   0.554  1.4763 -0.5915 -0.6518
   10MOL   H529 5587   0.725   2.767   0.698 -1.8507  1.4702 -1.7876
   10MOL   H530 5588   1.157   2.780   0.816 -0.8435  0.4162  0.0945
   10MOL   H531 5589   1.317   2.847   0.998 -1.2117 -1.7906 -0.6475
   10MOL   H532 5590   1.209   3.260   0.943 -0.4555  0.0702  1.1206
   10MOL   H533 5591   1.024   3.193   0.780 -0.0017  0.1903  0.3622
   10MOL   O534 5592   1.387   3.224   1.090  0.0063  0.0242 -0.0521
   10MOL   C535 5593   1.485   3.272   1.185 -0.1801  0.0467  0.7340
   10MOL   C536 5594   1.453   3.414   1.214 -0.2466 -0.1232  0.2232
   10MOL   C537 5595   1.329   3.437   1.303  0.4763 -0.4262  0.6485
   10MOL   C538 5596   1.290   3.576   1.339 -0.1135  0.4472  0.0404
   10MOL   O539 5597   1.400   3.625   1.413  0.0075 -0.2449  0.2593
   10MOL   C540 5598   1.375   3.716   1.512 -0.2563  0.4857  1.4245
   10MOL   O541 5599   1.258   3.756   1.540 -0.1625  0.6027  0.1389
   10MOL   C542 5600   1.498   3.764   1.577 -0.5346 -0.1205 -0.6066
   10MOL   C543 5601   1.499   3.875   1.664 -0.3981 -0.8668 -0.1059
   10MOL   C544 5602   1.622   3.915   1.725 -0.1472 -0.2138  0.3269
   10MOL   C545 5603   1.737   3.837   1.706 -0.4622 -0.0107 -0.8602
   10MOL   C546 5604   1.866   3.895   1.760 -0.7694 -0.2770 -0.7632
   10MOL   O547 5605   1.976   3.854   1.721  0.4098  0.0361 -0.2027
   10MOL   C548 5606   1.741   3.731   1.614 -0.3990 -0.0753 -0.4342
   10MOL   C549 5607   1.616   3.689   1.556  0.0369  0.2830 -0.8746
   10MOL   H550 5608   1.489   3.213   1.277  0.6358 -1.1709 -0.0855
   10MOL   H551 5609   1.581   3.264   1.135 -0.6087  0.2097 -0.1143
   10MOL   H552 5610   1.451   3.474   1.123 -5.3396 -0.4699 -0.0247
   10MOL   H553 5611   1.537   3.459   1.268  0.7348 -0.4664 -0.9960
   10MOL   H554 5612   1.242   3.388   1.261  1.3057 -2.2803  1.0243
   10MOL   H555 5613   1.338   3.400   1.405 -1.2953 -0.6686  0.7254
   10MOL   H556 5614   1.271   3.646   1.256  2.1809 -0.6830 -1.4805
   10MOL   H557 5615   1.197   3.578   1.395  0.4593  1.9344  0.9642
   10MOL   H558 5616   1.412   3.931   1.695 -0.6211 -1.8867  1.1579
   10MOL   H559 5617   1.628   4.007   1.781 -0.8074  0.1450 -0.1933
   10MOL   H560 5618   1.828   3.673   1.589 -0.8149 -0.0187 -2.0540
   10MOL   H561 5619   1.618   3.606   1.487  0.4564 -0.4504  0.0078
   10MOL   H562 5620   1.855   3.994   1.803  1.4161 -0.2158 -0.2849
   11MOL     O1 5621   1.111   0.706   6.982  0.0701 -0.5953  0.3557
   11MOL     C2 5622   1.002   0.783   6.920 -0.5492 -0.0299 -0.5386
   11MOL     C3 5623   0.982   0.925   6.975 -0.5613 -0.4207 -0.5438
   11MOL     C4 5624   0.935   0.925   7.123 -0.9575  0.0524  0.0220
   11MOL     C5 5625   0.965   1.062   7.190 -0.0486  0.2343  0.3674
   11MOL     O6 5626   0.851   1.147   7.159  0.1385  0.1960 -0.0135
   11MOL     C7 5627   0.875   1.281   7.141 -0.7275 -0.2062  0.4181
   11MOL     O8 5628   0.988   1.332   7.146  0.0794  0.2741 -0.2579
   11MOL     C9 5629   0.751   1.354   7.127 -0.3445 -0.3365  0.2233
   11MOL    C10 5630   0.647   1.311   7.045  0.2822  0.8211  0.2591
   11MOL    C11 5631   0.538   1.398   7.016  0.8032 -0.4000  0.1190
   11MOL    C12 5632   0.522   1.519   7.094  0.2252  0.0868 -0.2661
   11MOL    C13 5633   0.399   1.597   7.071 -0.1191 -0.4436 -0.2069
   11MOL    O14 5634   0.388   1.719   7.106  0.2323 -0.5274  0.6157
   11MOL    C15 5635   0.626   1.556   7.181 -0.1360 -0.5927  0.4627
   11MOL    C16 5636   0.738   1.474   7.198  0.0951 -0.0756 -0.6326
   11MOL    H17 5637   1.036   0.787   6.817 -0.4961 -0.1649 -0.5272
   11MOL    H18 5638   0.910   0.725   6.929 -1.5145  1.7904  2.2731
   11MOL    H19 5639   0.895   0.965   6.923 -1.6387 -1.3228  0.5224
   11MOL    H20 5640   1.075   0.981   6.964 -0.2851 -0.8656 -0.5045
   11MOL    H21 5641   0.833   0.897   7.148 -1.2034  1.6061  0.8166
   11MOL    H22 5642   0.997   0.854   7.178 -0.7280  0.7941  0.7362
   11MOL    H23 5643   0.958   1.045   7.297 -0.6306  0.4203  0.3594
   11MOL    H24 5644   1.059   1.113   7.173 -0.1226 -0.3930 -2.1164
   11MOL    H25 5645   0.654   1.219   6.989  1.5858  1.1393 -0.1134
   11MOL    H26 5646   0.463   1.369   6.945  2.1391 -0.8074 -1.1590
   11MOL    H27 5647   0.613   1.643   7.243  0.3444  0.8108 -1.3443
   11MOL    H28 5648   0.815   1.504   7.267  0.3148 -0.0055 -0.9057
   11MOL    H29 5649   1.189   0.753   6.959 -1.4283  1.0687 -1.5114
   11MOL    O30 5650   0.298   1.536   7.021  0.0953 -0.1752  0.7288
   11MOL    C31 5651   0.181   1.599   6.983  0.7755  0.1887  0.2613
   11MOL    C32 5652   0.109   1.519   6.873  0.4015  0.2369  0.0952
   11MOL    C33 5653   0.003   1.588   6.788  0.2859  0.0148 -0.7587
   11MOL    C34 5654   7.974   1.635   6.870 -0.9783  0.2024  0.5307
   11MOL    O35 5655   7.877   1.672   6.778 -0.1810  0.1517  0.0054
   11MOL    C36 5656   7.773   1.746   6.816  0.7278  0.2582  0.4861
   11MOL    O37 5657   7.746   1.779   6.931  0.5604  0.2442 -0.2325
   11MOL    C38 5658   7.687   1.782   6.704 -0.0010 -0.1155  0.1115
   11MOL    C39 5659   7.549   1.794   6.725 -0.3636 -0.3132  0.3760
   11MOL    C40 5660   7.460   1.808   6.622 -0.1087 -0.9327 -1.0257
   11MOL    C41 5661   7.496   1.810   6.488 -0.3974  0.4721  0.1401
   11MOL    C42 5662   7.396   1.826   6.378  0.1568  0.1998 -0.6457
   11MOL    O43 5663   7.429   1.832   6.254  0.1756  0.6159  0.2511
   11MOL    C44 5664   7.636   1.811   6.463  0.1947  0.8187  0.9237
   11MOL    C45 5665   7.728   1.785   6.570  0.5071  0.1364 -0.2550
   11MOL    H46 5666   0.117   1.579   7.068  1.0661  1.9644  0.9173
   11MOL    H47 5667   0.200   1.703   6.955  0.2557  0.3363  0.4549
   11MOL    H48 5668   0.053   1.435   6.913 -2.0146  1.4439 -0.6588
   11MOL    H49 5669   0.180   1.474   6.804 -0.7847  0.1694 -1.1005
   11MOL    H50 5670   0.044   1.673   6.733 -0.1527  1.5694  1.2303
   11MOL    H51 5671   8.056   1.515   6.721 -0.4956  0.3082 -0.5537
   11MOL    H52 5672   7.945   1.551   6.934  0.4360 -1.8552 -1.4607
   11MOL    H53 5673   7.981   1.724   6.932 -1.8464 -0.0874  1.0547
   11MOL    H54 5674   7.506   1.790   6.824 -0.4802 -0.2618  0.3271
   11MOL    H55 5675   7.358   1.829   6.650  1.3274 -0.0022  4.0711
   11MOL    H56 5676   7.666   1.832   6.362  0.7197  2.5614  1.4261
   11MOL    H57 5677   7.831   1.775   6.540  0.6759 -1.9056  0.9590
   11MOL    O58 5678   7.275   1.815   6.424 -0.4386  0.3301  0.5709
   11MOL    C59 5679   7.163   1.814   6.338 -0.3430 -0.1290 -0.0113
   11MOL    C60 5680   7.031   1.811   6.423  0.0235  0.4403 -0.7248
   11MOL    C61 5681   7.023   1.675   6.486 -0.4095  0.1853 -0.6009
   11MOL    C62 5682   6.908   1.653   6.588  0.0111  0.0265  0.5097
   11MOL    O63 5683   6.945   1.536   6.666 -0.1985  0.2494  0.2974
   11MOL    C64 5684   6.866   1.423   6.685 -0.2464 -0.5095 -0.2036
   11MOL    O65 5685   6.742   1.434   6.660 -0.1413  0.0670 -0.0228
   11MOL    C66 5686   6.936   1.299   6.725  0.0847 -0.4625  0.2946
   11MOL    C67 5687   7.074   1.295   6.712 -0.6950  0.3552 -0.5302
   11MOL    C68 5688   7.146   1.177   6.745 -0.0822 -0.2052  0.2298
   11MOL    C69 5689   7.087   1.061   6.790 -0.3860  0.1209  0.7525
   11MOL    C70 5690   7.172   0.948   6.830 -0.0327  0.0195 -0.1226
   11MOL    O71 5691   7.289   0.941   6.801  0.4162  0.1790  0.2881
   11MOL    C72 5692   6.945   1.063   6.795  0.7566  0.5925  0.3107
   11MOL    C73 5693   6.869   1.178   6.771  0.6323 -0.4693  0.3695
   11MOL    H74 5694   7.147   1.905   6.280  0.8732 -0.5901 -1.1269
   11MOL    H75 5695   7.163   1.725   6.275 -0.4392 -0.7890  0.9251
   11MOL    H76 5696   6.940   1.835   6.369 -0.4558  2.5283  0.9300
   11MOL    H77 5697   7.037   1.881   6.507  1.5004 -0.9287  0.3585
   11MOL    H78 5698   6.999   1.599   6.411 -1.1765 -1.3198  1.1270
   11MOL    H79 5699   7.111   1.631   6.534 -0.6511 -1.3407 -1.5228
   11MOL    H80 5700   6.890   1.732   6.660  0.5183  0.6170 -0.0077
   11MOL    H81 5701   6.813   1.633   6.537  1.1259 -1.4150 -1.0376
   11MOL    H82 5702   7.127   1.382   6.677 -1.6363  1.1400 -0.0196
   11MOL    H83 5703   7.253   1.180   6.735 -0.2029  3.2345 -0.6697
   11MOL    H84 5704   6.898   0.974   6.834  1.3788  0.0150 -0.2442
   11MOL    H85 5705   6.763   1.170   6.789  0.5580  1.8953  1.2036
   11MOL    O86 5706   7.107   0.852   6.901  0.1000 -0.3239  0.7831
   11MOL    C87 5707   7.170   0.722   6.933 -0.0264 -0.3705  0.4246
   11MOL    C88 5708   7.080   0.603   6.884  0.1872 -0.1200 -0.1166
   11MOL    C89 5709   7.160   0.469   6.880  0.0760  0.2505  0.7758
   11MOL    C90 5710   7.209   0.432   7.020 -0.1076 -0.5700  0.4169
   11MOL    O91 5711   7.323   0.504   7.062  0.0464 -0.3030 -0.2923
   11MOL    C92 5712   7.429   0.454   7.136  0.1727 -0.1854 -0.4773
   11MOL    O93 5713   7.441   0.338   7.170 -0.1555 -0.2503  0.2445
   11MOL    C94 5714   7.535   0.561   7.159  0.2156 -0.2217  0.2351
   11MOL    C95 5715   7.516   0.696   7.126 -0.5273 -0.3148 -0.3845
   11MOL    C96 5716   7.615   0.787   7.165 -0.2146 -0.0744  0.2422
   11MOL    C97 5717   7.740   0.752   7.212 -0.0810  0.5074 -0.1864
   11MOL    C98 5718   7.838   0.862   7.245 -0.4210 -0.0893  0.0256
   11MOL    O99 5719   7.812   0.976   7.205  0.1783 -0.5270  0.0602
   11MOL   C100 5720   7.762   0.617   7.239 -0.0012 -0.3265  0.4188
   11MOL   C101 5721   7.660   0.520   7.202  0.2250 -0.0586 -0.5633
   11MOL   H102 5722   7.271   0.736   6.895  0.3578 -2.3349  0.6932
   11MOL   H103 5723   7.180   0.711   7.041  1.8405  1.1696  0.4424
   11MOL   H104 5724   7.045   0.637   6.787  0.6517  0.5530 -0.0541
   11MOL   H105 5725   6.990   0.604   6.946 -0.3826  0.6350 -0.9410
   11MOL   H106 5726   7.091   0.391   6.845 -0.1840  0.0673  1.6760
   11MOL   H107 5727   7.240   0.487   6.809 -0.7003  0.0776 -0.1697
   11MOL   H108 5728   7.127   0.441   7.091 -1.4618 -3.8436 -0.6334
   11MOL   H109 5729   7.240   0.327   7.024 -0.2407 -0.6116  0.3286
   11MOL   H110 5730   7.421   0.728   7.087 -0.0784  0.4465 -0.8469
   11MOL   H111 5731   7.585   0.890   7.150 -2.1872 -0.9012 -1.8785
   11MOL   H112 5732   7.864   0.586   7.258 -0.0567 -0.4633  0.4830
   11MOL   H113 5733   7.681   0.417   7.223  3.8668  0.9737  1.2508
   11MOL   O114 5734   7.945   0.819   7.310  0.2195  0.0257 -0.3609
   11MOL   C115 5735   8.057   0.904   7.337  0.1735  0.4432 -0.3734
   11MOL   C116 5736   0.088   0.846   7.284 -0.2739  0.3990 -0.3394
   11MOL   C117 5737   0.083   0.803   7.130  0.1549 -0.2421 -0.9511
   11MOL   C118 5738   0.198   0.711   7.087  0.0548 -0.0706  0.7381
   11MOL   O119 5739   0.180   0.582   7.146 -0.4200 -0.0443  0.2903
   11MOL   C120 5740   0.277   0.495   7.141  0.1522  0.5984 -0.2604
   11MOL   O121 5741   0.396   0.523   7.119  0.2867 -0.1015 -0.1282
   11MOL   C122 5742   0.228   0.357   7.185 -0.0604  0.4073 -0.6617
   11MOL   C123 5743   0.094   0.342   7.223  0.6580 -0.6297 -0.2622
   11MOL   C124 5744   0.038   0.221   7.267 -0.3281 -0.0846  0.4319
   11MOL   C125 5745   0.130   0.117   7.297 -0.0108  0.1872 -0.4859
   11MOL   C126 5746   0.086   8.089   7.360 -0.3967  0.6441  0.2492
   11MOL   O127 5747   0.159   8.007   7.408  0.0355 -0.6250  0.0643
   11MOL   C128 5748   0.267   0.134   7.286  0.3964 -0.2570 -0.3619
   11MOL   C129 5749   0.315   0.252   7.225  0.9254 -0.0776  0.1419
   11MOL   H130 5750   8.041   1.005   7.300 -0.2072  0.8111  0.7601
   11MOL   H131 5751   8.069   0.922   7.444  0.3646 -1.4966 -0.0499
   11MOL   H132 5752   0.106   0.755   7.341  3.6690  2.1734  1.4252
   11MOL   H133 5753   0.181   0.903   7.288  0.1463 -0.2306 -1.0210
   11MOL   H134 5754   8.088   0.750   7.112  0.1010 -1.4716  2.5090
   11MOL   H135 5755   0.101   0.892   7.070  2.2977 -1.7120 -2.5553
   11MOL   H136 5756   0.203   0.698   6.979  2.9725  0.1636  0.8109
   11MOL   H137 5757   0.298   0.747   7.113  0.1905  0.0023  0.1169
   11MOL   H138 5758   0.013   0.414   7.216  0.3680 -0.7468  1.6396
   11MOL   H139 5759   8.032   0.209   7.289  0.0904 -1.1821  1.9151
   11MOL   H140 5760   0.339   0.057   7.309  1.9232  0.9080 -1.1277
   11MOL   H141 5761   0.422   0.263   7.216  1.2971 -0.9543  2.9222
   11MOL   O142 5762   8.047   8.080   7.363  0.1687 -0.1945 -0.1219
   11MOL   C143 5763   7.975   7.975   7.428  0.3326 -0.1561 -0.4063
   11MOL   C144 5764   7.905   8.023   7.554 -0.2320 -0.3361  0.3501
   11MOL   C145 5765   7.805   7.923   7.614  0.0795 -0.0712 -0.0384
   11MOL   C146 5766   7.703   7.999   7.706 -0.2119  0.2430 -0.9237
   11MOL   O147 5767   7.660   7.927   7.817 -0.1426  0.3493 -0.3827
   11MOL   C148 5768   7.563   7.832   7.796 -0.0114 -0.3624 -0.3144
   11MOL   O149 5769   7.521   7.798   7.689  0.0650  0.5220  0.4659
   11MOL   C150 5770   7.496   7.790   7.919  0.3394  0.2749 -0.1465
   11MOL   C151 5771   7.358   7.756   7.917  0.1828  0.1838  0.4192
   11MOL   C152 5772   7.296   7.713   8.036 -0.0094  0.0064  0.8840
   11MOL   C153 5773   7.371   7.707   0.060 -0.2611 -0.1524 -1.1577
   11MOL   C154 5774   7.309   7.648   0.189 -0.1662  0.2547  0.8646
   11MOL   O155 5775   7.373   7.624   0.292 -0.3150  0.0262 -0.0963
   11MOL   C156 5776   7.505   7.749   0.068 -0.4675 -0.0720 -0.0658
   11MOL   C157 5777   7.564   7.799   8.042  0.2292  0.2809  0.0367
   11MOL   H158 5778   7.905   7.925   7.361  0.4779  0.6808 -1.1945
   11MOL   H159 5779   8.048   7.899   7.454 -0.4201 -1.2292 -1.3488
   11MOL   H160 5780   7.843   0.010   7.528  1.6970  1.0693  0.2061
   11MOL   H161 5781   7.976   8.056   7.630  1.4376 -0.7730 -0.9738
   11MOL   H162 5782   7.751   7.862   7.541  1.2276 -0.2026 -0.7958
   11MOL   H163 5783   7.859   7.848   7.671 -0.1438 -1.3033 -1.4318
   11MOL   H164 5784   7.761   8.078   7.753 -0.9721  0.1551  0.1670
   11MOL   H165 5785   7.624   8.051   7.651  0.2190  1.2813 -0.5725
   11MOL   H166 5786   7.311   7.752   7.820 -0.6802 -0.3729  0.8559
   11MOL   H167 5787   7.192   7.685   8.029  0.7838 -2.7033 -0.3830
   11MOL   H168 5788   7.564   7.751   0.158  0.8886  0.5049 -0.9500
   11MOL   H169 5789   7.665   7.837   8.040  0.4312 -0.2807 -0.5677
   11MOL   O170 5790   7.180   7.609   0.174  0.6456 -0.5833 -0.3835
   11MOL   C171 5791   7.101   7.567   0.284  0.2453 -0.5765  0.2454
   11MOL   C172 5792   6.983   7.665   0.309 -0.7881 -0.6323 -0.1781
   11MOL   C173 5793   7.039   7.800   0.356 -0.0935  0.0872  0.1593
   11MOL   C174 5794   6.937   7.894   0.415  0.1086 -0.1509  0.9775
   11MOL   O175 5795   6.856   7.948   0.313 -0.2256 -0.0701  0.4217
   11MOL   C176 5796   6.721   7.960   0.333 -0.0701  0.2302 -0.2700
   11MOL   O177 5797   6.661   7.951   0.445  0.2564  0.2661 -0.2724
   11MOL   C178 5798   6.653   7.993   0.204  0.3284  0.3346  0.1843
   11MOL   C179 5799   6.722   7.983   0.079 -0.5510 -0.0263 -0.4632
   11MOL   C180 5800   6.654   7.993   8.055 -0.0389 -0.4928 -0.1374
   11MOL   C181 5801   6.511   8.011   8.056  0.0855 -0.1023  0.7225
   11MOL   C182 5802   6.430   8.019   7.938  0.4840 -0.3971  0.2750
   11MOL   O183 5803   6.466   7.972   7.829  0.3061 -0.3044  0.2767
   11MOL   C184 5804   6.443   8.024   0.083  0.2988  0.2675  0.1278
   11MOL   C185 5805   6.512   8.018   0.201 -0.7267 -0.6216  0.1886
   11MOL   H186 5806   7.057   7.469   0.268 -1.2227  0.3265 -1.5301
   11MOL   H187 5807   7.152   7.560   0.380 -0.8840 -1.0360  0.8357
   11MOL   H188 5808   6.922   7.626   0.391  2.2853 -2.5759  1.3167
   11MOL   H189 5809   6.917   7.686   0.226 -0.7740 -0.0961 -0.0544
   11MOL   H190 5810   7.109   7.778   0.436 -2.1569 -0.7736  1.7691
   11MOL   H191 5811   7.089   7.859   0.279 -0.0181  1.2326  1.0752
   11MOL   H192 5812   6.876   7.849   0.494 -0.6336 -1.2732 -0.2031
   11MOL   H193 5813   6.987   7.981   0.455 -0.1919  1.1012 -1.2550
   11MOL   H194 5814   6.829   7.965   0.083 -0.6869 -0.9382 -0.7053
   11MOL   H195 5815   6.705   7.990   7.960 -0.3240 -0.2977 -0.2966
   11MOL   H196 5816   6.339   8.051   0.096  0.7348  1.2553  1.6850
   11MOL   H197 5817   6.455   8.029   0.292  0.0810  3.0838  0.3049
   11MOL   O198 5818   6.315   8.085   7.957  0.4474  0.2637 -0.2659
   11MOL   C199 5819   6.211   8.078   7.859 -0.2010 -0.2768  0.4752
   11MOL   C200 5820   6.151   7.936   7.866 -0.1729 -0.0358  0.2332
   11MOL   C201 5821   6.026   7.917   7.779 -0.5882 -0.7562  0.1906
   11MOL   C202 5822   5.959   7.788   7.812  0.0884  0.2866 -0.1434
   11MOL   O203 5823   5.886   7.736   7.698 -0.4594  0.2526 -0.0562
   11MOL   C204 5824   5.814   7.631   7.720 -0.7302  0.2013 -0.1701
   11MOL   O205 5825   5.790   7.579   7.829 -0.1965 -0.4203 -0.0267
   11MOL   C206 5826   5.753   7.580   7.594  0.3079  0.4978  0.2914
   11MOL   C207 5827   5.735   7.654   7.478 -0.2540 -0.0851 -0.3469
   11MOL   C208 5828   5.670   7.593   7.371  0.1095 -0.3026 -0.4389
   11MOL   C209 5829   5.626   7.462   7.376 -0.1659 -0.1557 -0.1482
   11MOL   C210 5830   5.551   7.407   7.256 -0.8610 -0.2665 -0.0182
   11MOL   O211 5831   5.483   7.303   7.260 -0.1990  0.1420  0.5376
   11MOL   C212 5832   5.649   7.385   7.489 -0.6509  0.2304  0.5990
   11MOL   C213 5833   5.706   7.444   7.600  0.3780 -0.1344  0.3807
   11MOL   H214 5834   6.138   0.059   7.873  0.3265  0.3504 -0.3146
   11MOL   H215 5835   6.252   8.082   7.758 -0.5762 -0.4797  0.3133
   11MOL   H216 5836   6.127   7.902   7.967 -0.3818 -0.8428 -0.0833
   11MOL   H217 5837   6.227   7.868   7.829 -0.0073  0.1223  0.2819
   11MOL   H218 5838   5.960   7.999   7.808  1.1935  0.6107  0.5095
   11MOL   H219 5839   6.042   7.939   7.673 -1.6061  2.3034  0.6159
   11MOL   H220 5840   6.032   7.709   7.830  1.3191  1.1984 -1.0211
   11MOL   H221 5841   5.902   7.802   7.904  0.4909  0.4812  0.0779
   11MOL   H222 5842   5.749   7.761   7.475  1.5612 -0.3307 -0.9276
   11MOL   H223 5843   5.654   7.650   7.281  0.7292  1.5886  0.6216
   11MOL   H224 5844   5.613   7.283   7.493  0.8117 -0.3829 -1.5628
   11MOL   H225 5845   5.718   7.392   7.694  1.0952 -0.4070  0.1407
   11MOL   O226 5846   5.553   7.480   7.151  0.4244  0.1743  0.5382
   11MOL   C227 5847   5.499   7.450   7.027  0.1240 -0.1422  0.0533
   11MOL   C228 5848   5.541   7.558   6.922 -0.5394  0.6873 -0.6691
   11MOL   C229 5849   5.491   7.701   6.963  0.0502 -0.0578 -0.2711
   11MOL   C230 5850   5.571   7.829   6.916  0.0172 -0.0904 -0.5167
   11MOL   O231 5851   5.702   7.841   6.957 -0.0375  0.4577 -0.0446
   11MOL   C232 5852   5.728   7.887   7.082 -0.5409 -0.0438 -0.3089
   11MOL   O233 5853   5.636   7.908   7.163 -0.5612  0.2473 -0.3638
   11MOL   C234 5854   5.872   7.914   7.103 -0.0809 -0.1741  0.6798
   11MOL   C235 5855   5.912   7.967   7.225  0.6020  0.1081  0.6544
   11MOL   C236 5856   6.049   7.988   7.248  0.0614 -0.0165  0.3563
   11MOL   C237 5857   6.147   7.969   7.151 -0.2714 -0.3952 -0.1480
   11MOL   C238 5858   6.290   7.996   7.177  0.4355  0.7645  0.6871
   11MOL   O239 5859   6.380   7.993   7.090  0.1765  0.1613 -0.0737
   11MOL   C240 5860   6.109   7.909   7.026  0.5894 -0.6065 -0.3818
   11MOL   C241 5861   5.970   7.882   7.005  0.9013  0.1501 -0.1682
   11MOL   H242 5862   5.541   7.354   6.995  0.8804  0.3064 -0.3362
   11MOL   H243 5863   5.391   7.439   7.030  0.0577  0.6194  0.4649
   11MOL   H244 5864   5.511   7.533   6.820  2.3373 -0.4900 -1.2698
   11MOL   H245 5865   5.649   7.564   6.908 -0.3154 -0.0189  0.7957
   11MOL   H246 5866   5.386   7.698   6.932 -0.0522 -0.2805  0.0967
   11MOL   H247 5867   5.470   7.707   7.069 -0.5847  1.9355 -0.4812
   11MOL   H248 5868   5.578   7.832   6.807 -0.3554 -0.3466 -0.5461
   11MOL   H249 5869   5.520   7.920   6.949 -1.0555 -0.5305 -0.9296
   11MOL   H250 5870   5.832   7.990   7.294 -2.8165 -1.7694 -2.5186
   11MOL   H251 5871   6.074   8.041   7.339 -0.7386  2.0236 -0.5847
   11MOL   H252 5872   6.181   7.902   6.947 -0.8282 -0.2938 -1.7353
   11MOL   H253 5873   5.933   7.853   6.907 -0.1528 -0.2452  0.3423
   11MOL   O254 5874   6.311   8.043   7.302 -0.7482 -0.0296 -0.4545
   11MOL   C255 5875   6.445   8.091   7.337  0.1464  0.1890 -0.3550
   11MOL   C256 5876   6.546   7.974   7.358 -0.1179 -0.3053  0.8255
   11MOL   C257 5877   6.547   7.906   7.498  0.1789  0.1216 -0.1638
   11MOL   C258 5878   6.415   7.840   7.547 -0.0327 -0.1564  0.7899
   11MOL   O259 5879   6.345   7.771   7.446  0.0252 -0.2396  0.1286
   11MOL   C260 5880   6.242   7.698   7.477 -0.2220  0.5417 -0.2446
   11MOL   O261 5881   6.198   7.682   7.591  0.2038 -0.0689  0.9315
   11MOL   C262 5882   6.181   7.628   7.362 -0.4808 -0.1431  0.3217
   11MOL   C263 5883   6.068   7.543   7.379  0.6444  0.2910 -0.4382
   11MOL   C264 5884   5.995   7.483   7.276  0.0940  0.4497  0.2340
   11MOL   C265 5885   6.033   7.517   7.144  0.6023 -0.8323 -0.0778
   11MOL   C266 5886   5.944   7.481   7.029  0.5068 -1.2321 -0.9339
   11MOL   O267 5887   5.835   7.424   7.046 -0.0043  0.8999 -0.0132
   11MOL   C268 5888   6.150   7.596   7.125 -0.4524 -0.4749  0.3779
   11MOL   C269 5889   6.222   7.657   7.231  0.4073  0.5668 -0.3786
   11MOL   H270 5890   6.479   0.059   7.258 -0.1356  0.6386 -0.0981
   11MOL   H271 5891   6.445   0.039   7.435  0.0303 -0.6167  0.0344
   11MOL   H272 5892   6.648   8.011   7.350  0.7597 -2.5551  1.0161
   11MOL   H273 5893   6.536   7.895   7.283 -2.7308  0.9033 -0.1783
   11MOL   H274 5894   6.621   7.826   7.500  1.1833  1.0565  0.6519
   11MOL   H275 5895   6.587   7.977   7.570  1.8555 -0.1809 -0.7698
   11MOL   H276 5896   6.437   7.769   7.627 -0.4173 -1.7043 -0.4520
   11MOL   H277 5897   6.343   7.908   7.593 -1.1833 -0.6948 -0.1792
   11MOL   H278 5898   6.033   7.531   7.480  0.2078 -1.1492 -0.7570
   11MOL   H279 5899   5.912   7.416   7.292 -0.2259 -0.2204 -3.5741
   11MOL   H280 5900   6.176   7.612   7.021  0.0802 -0.1714  0.5577
   11MOL   H281 5901   6.305   7.721   7.206  0.1098  0.8425 -0.6770
   11MOL   O282 5902   5.994   7.507   6.899  0.2006  0.4656 -0.3917
   11MOL   C283 5903   5.931   7.458   6.781 -0.2973  0.1252  0.0801
   11MOL   C284 5904   5.866   7.579   6.696  0.7913 -0.1133 -1.0925
   11MOL   C285 5905   5.963   7.688   6.658 -0.0117 -0.2476  0.0671
   11MOL   C286 5906   5.897   7.817   6.617 -0.1777 -0.1097 -0.3195
   11MOL   O287 5907   5.984   7.893   6.535  0.3735 -0.1697 -0.4754
   11MOL   C288 5908   5.948   7.931   6.410 -0.6001 -0.3086 -0.4774
   11MOL   O289 5909   5.832   7.912   6.365  0.4576 -0.4983  0.1915
   11MOL   C290 5910   6.061   7.993   6.338  0.4789  0.3585 -0.3579
   11MOL   C291 5911   6.044   8.056   6.223  0.0471 -0.4805  0.6537
   11MOL   C292 5912   6.149   0.023   6.151  0.4780 -0.3479 -0.3139
   11MOL   C293 5913   6.279   0.014   6.202 -0.1099 -0.2054 -0.6367
   11MOL   C294 5914   6.400   0.068   6.137  0.4139 -0.5044  0.3314
   11MOL   O295 5915   6.398   0.180   6.080  0.5835  0.2621  0.1652
   11MOL   C296 5916   6.300   8.044   6.327  0.6791  0.0211 -0.3861
   11MOL   C297 5917   6.190   7.990   6.394 -0.2107 -0.3786 -0.2892
   11MOL   H298 5918   6.011   7.420   6.717 -0.5751  0.2377 -0.3402
   11MOL   H299 5919   5.856   7.382   6.803 -0.4958  0.3787  0.2726
   11MOL   H300 5920   5.790   7.620   6.763  2.6457  0.8109  0.5118
   11MOL   H301 5921   5.810   7.545   6.609 -0.5413 -0.5723 -0.0756
   11MOL   H302 5922   6.016   7.713   6.750 -0.3291 -1.1796  0.5076
   11MOL   H303 5923   6.035   7.669   6.578  0.4776  0.5236  0.3184
   11MOL   H304 5924   5.801   7.809   6.564  0.4759  0.2463 -1.5827
   11MOL   H305 5925   5.886   7.883   6.703 -1.2233 -1.7057  0.7924
   11MOL   H306 5926   5.944   8.060   6.182  0.0938  1.4924  0.6944
   11MOL   H307 5927   6.134   0.075   6.057  0.0975 -0.1723 -0.1572
   11MOL   H308 5928   6.402   8.031   6.358  0.6507 -0.2086 -0.3890
   11MOL   H309 5929   6.210   7.935   6.485  1.7419 -1.1691 -1.1680
   11MOL   O310 5930   6.508   8.097   6.151 -0.2798  0.2703  0.3292
   11MOL   C311 5931   6.640   0.044   6.107 -0.0594  0.2591  0.3495
   11MOL   C312 5932   6.685   8.083   5.974 -1.0663  0.5755  0.2100
   11MOL   C313 5933   6.835   8.072   5.944 -0.2167 -0.1929  0.4762
   11MOL   C314 5934   6.861   8.009   5.803  0.2390  0.0052 -0.2191
   11MOL   O315 5935   6.996   7.969   5.790 -0.1079  0.4810  0.2429
   11MOL   C316 5936   7.090   8.060   5.750  0.3806 -0.6210 -0.3243
   11MOL   O317 5937   7.060   0.077   5.717 -0.7229 -0.0783 -0.4989
   11MOL   C318 5938   7.226   8.012   5.745 -0.2750  0.4403 -0.5392
   11MOL   C319 5939   7.261   7.886   5.792  0.0718 -0.2605  0.5231
   11MOL   C320 5940   7.396   7.847   5.812 -0.4906 -0.3442  0.2743
   11MOL   C321 5941   7.502   7.936   5.769 -0.1616 -0.0511 -1.1596
   11MOL   C322 5942   7.650   7.894   5.788 -0.1746 -0.5647  0.3439
   11MOL   O323 5943   7.688   7.785   5.829 -0.4657  0.0750  0.0982
   11MOL   C324 5944   7.464   8.053   5.710 -0.1426  0.1598 -0.6141
   11MOL   C325 5945   7.332   8.092   5.695  0.4379 -0.2886  0.2539
   11MOL   H326 5946   6.661   0.151   6.111  1.4934 -0.0320  0.2832
   11MOL   H327 5947   6.710   0.010   6.183 -0.1408  1.4764  0.9902
   11MOL   H328 5948   6.651   0.058   5.901  0.7776  2.9457  1.6719
   11MOL   H329 5949   6.632   7.988   5.965 -1.5430  1.0120 -1.8823
   11MOL   H330 5950   6.875   0.073   5.964 -1.7360  0.6426 -0.6287
   11MOL   H331 5951   6.883   8.011   6.021 -0.4483 -0.0230  0.7563
   11MOL   H332 5952   6.800   7.919   5.800 -0.9829  0.8589 -1.4821
   11MOL   H333 5953   6.824   8.066   5.718 -0.3079  0.3094  0.2233
   11MOL   H334 5954   7.186   7.811   5.811 -1.3987  0.5435 -1.7857
   11MOL   H335 5955   7.416   7.749   5.851  0.3111  0.7865  2.8148
   11MOL   H336 5956   7.535   0.032   5.685  2.0927 -1.3731  0.8626
   11MOL   H337 5957   7.311   0.095   5.664 -0.8416 -0.5276  0.3029
   11MOL   O338 5958   7.727   7.984   5.729  0.7108 -0.4429  0.7518
   11MOL   C339 5959   7.871   7.969   5.738  0.5559  0.3210 -0.2142
   11MOL   C340 5960   7.941   7.955   5.597 -0.0977 -0.3140 -0.9529
   11MOL   C341 5961   7.864   7.878   5.492 -0.4013  0.5214  0.0355
   11MOL   C342 5962   7.958   7.835   5.373 -0.1827 -0.0342  0.6397
   11MOL   O343 5963   8.026   7.939   5.299  0.3994 -0.1447  0.1227
   11MOL   C344 5964   0.059   7.966   5.317 -0.0419 -0.1895 -0.2833
   11MOL   O345 5965   0.132   7.916   5.402  0.4108 -0.5654 -0.1329
   11MOL   C346 5966   0.109   8.081   5.229  0.0505 -0.1888 -0.1004
   11MOL   C347 5967   0.024   0.046   5.137 -0.0383  0.3245  0.4196
   11MOL   C348 5968   0.064   0.159   5.069 -0.1283 -0.6221  0.0380
   11MOL   C349 5969   0.186   0.224   5.107  0.0237  0.5487  0.1529
   11MOL   C350 5970   0.233   0.349   5.044 -0.3808  0.0402  0.2607
   11MOL   O351 5971   0.333   0.421   5.082  0.1922 -0.1102 -0.1816
   11MOL   C352 5972   0.269   0.160   5.200  0.0740 -0.2683 -0.1995
   11MOL   C353 5973   0.235   0.036   5.255 -0.2345  0.9992  0.4264
   11MOL   H354 5974   7.912   8.054   5.792  2.0337 -0.1887 -0.4939
   11MOL   H355 5975   7.902   7.880   5.794 -0.0163  0.9259  1.0743
   11MOL   H356 5976   8.044   7.922   5.604  0.6601  1.6370 -2.5241
   11MOL   H357 5977   7.948   8.057   5.560 -2.8642  0.6655  1.0933
   11MOL   H358 5978   7.811   7.796   5.540  3.1354 -0.4049  2.5580
   11MOL   H359 5979   7.777   7.933   5.457 -1.3017 -0.8997 -0.0203
   11MOL   H360 5980   8.023   7.763   5.422  0.0166 -0.2632  0.0386
   11MOL   H361 5981   7.908   7.773   5.299  0.3378  0.0924  0.1828
   11MOL   H362 5982   8.020   0.018   5.116 -0.1663  1.5103 -0.6318
   11MOL   H363 5983   8.092   0.203   5.000 -1.2325 -1.3153  0.7014
   11MOL   H364 5984   0.361   0.209   5.228 -1.5288  3.1180 -0.6291
   11MOL   H365 5985   0.308   8.095   5.324 -0.0864  2.0481  0.8740
   11MOL   O366 5986   0.145   0.393   4.950 -0.3465  0.0803 -0.1795
   11MOL   C367 5987   0.173   0.501   4.855  0.2339 -0.3946  0.0945
   11MOL   C368 5988   0.123   0.639   4.898 -0.6989  0.0782 -0.2973
   11MOL   C369 5989   8.073   0.637   4.944 -0.0217  0.0917  0.2001
   11MOL   C370 5990   8.055   0.579   5.082 -0.6121  1.0234 -0.1336
   11MOL   O371 5991   0.045   0.618   5.183 -0.1288 -0.3658  0.0918
   11MOL   C372 5992   0.043   0.559   5.299  0.0839  0.8421 -0.1999
   11MOL   O373 5993   8.051   0.475   5.327 -0.3384 -0.1588 -0.0815
   11MOL   C374 5994   0.153   0.597   5.393 -0.4748 -0.2840 -0.3434
   11MOL   C375 5995   0.255   0.684   5.350 -0.5279  0.2108  0.3847
   11MOL   C376 5996   0.359   0.715   5.439 -0.1530  0.2385 -0.0738
   11MOL   C377 5997   0.374   0.657   5.565  0.3770  0.2847  0.0351
   11MOL   C378 5998   0.488   0.690   5.649 -0.3023  0.7827 -0.5342
   11MOL   O379 5999   0.483   0.702   5.767 -0.2587  0.1161  0.1934
   11MOL   C380 6000   0.262   0.584   5.614  0.3966  0.0907 -0.3912
   11MOL   C381 6001   0.158   0.546   5.525 -0.3789 -0.1453  0.2708
   11MOL   H382 6002   0.278   0.500   4.825  0.5925 -1.2383  1.3140
   11MOL   H383 6003   0.107   0.496   4.769  1.1161  1.0639 -0.6826
   11MOL   H384 6004   0.147   0.696   4.808 -0.9380  0.9063  0.1580
   11MOL   H385 6005   0.178   0.687   4.979 -1.3476  1.5144 -0.6863
   11MOL   H386 6006   8.026   0.736   4.945  2.1787  1.1645  0.7887
   11MOL   H387 6007   8.006   0.583   4.878  0.7812 -0.9041  0.1884
   11MOL   H388 6008   7.957   0.599   5.125 -0.5444 -1.6872  1.3761
   11MOL   H389 6009   8.070   0.472   5.068 -0.9138  0.9306  0.2491
   11MOL   H390 6010   0.260   0.726   5.251  2.5630 -0.3257  0.2528
   11MOL   H391 6011   0.436   0.787   5.416  0.1279 -0.4577 -1.3579
   11MOL   H392 6012   0.261   0.553   5.718 -0.7500  0.2192 -0.3575
   11MOL   H393 6013   0.089   0.471   5.560 -1.3454  0.9537  0.7667
   11MOL   O394 6014   0.600   0.720   5.577 -0.0252  0.0808 -0.2099
   11MOL   C395 6015   0.720   0.767   5.649  0.1395  0.2337  0.2411
   11MOL   C396 6016   0.845   0.783   5.563 -0.0417  0.2797  0.2639
   11MOL   C397 6017   0.825   0.892   5.460 -0.6684  0.5013  0.8199
   11MOL   C398 6018   0.941   0.894   5.353 -0.0114  0.4729 -0.9204
   11MOL   O399 6019   0.916   1.005   5.274  0.1789  0.0692  0.1798
   11MOL   C400 6020   0.991   1.035   5.167 -0.0173  0.5687  0.1459
   11MOL   O401 6021   1.099   0.982   5.150 -0.4838  0.3611 -0.0098
   11MOL   C402 6022   0.930   1.130   5.073  0.5252  0.0440  0.8114
   11MOL   C403 6023   0.795   1.176   5.082  0.8786  0.2293 -0.3216
   11MOL   C404 6024   0.735   1.258   4.981 -0.1710 -0.1334  0.4318
   11MOL   C405 6025   0.818   1.312   4.884  0.0008  0.4436 -0.0380
   11MOL   C406 6026   0.768   1.407   4.777  0.3866 -0.3884  0.3640
   11MOL   O407 6027   0.840   1.453   4.686  0.0840 -0.0576 -0.6956
   11MOL   C408 6028   0.953   1.281   4.884 -0.2919  0.8381  1.0061
   11MOL   C409 6029   1.006   1.184   4.973 -0.0227  0.5183 -0.2708
   11MOL   H410 6030   0.697   0.856   5.707 -2.7690  1.5198 -2.7405
   11MOL   H411 6031   0.746   0.697   5.729  0.2535 -1.6392 -1.3902
   11MOL   H412 6032   0.876   0.686   5.525 -2.9763 -0.5500 -0.1419
   11MOL   H413 6033   0.927   0.817   5.628  0.5917  1.7409 -1.2821
   11MOL   H414 6034   0.729   0.880   5.409 -0.4907  0.7688  0.4122
   11MOL   H415 6035   0.824   0.992   5.505  0.2249  1.2354 -0.7319
   11MOL   H416 6036   1.045   0.894   5.386 -0.0767 -1.3716 -0.6876
   11MOL   H417 6037   0.934   0.800   5.298  0.4982  0.0631 -0.2943
   11MOL   H418 6038   0.732   1.145   5.164 -1.0497  1.3330 -1.3406
   11MOL   H419 6039   0.631   1.285   4.976  0.1557  1.0798  0.0090
   11MOL   H420 6040   1.016   1.316   4.803  1.6382 -0.1333  2.0403
   11MOL   H421 6041   1.106   1.146   4.961 -0.2892 -0.8639  1.7683
   11MOL   O422 6042   0.639   1.430   4.800 -0.0457  1.1638  0.4569
   11MOL   C423 6043   0.569   1.519   4.713 -0.5851 -0.4018 -0.2272
   11MOL   C424 6044   0.439   1.459   4.688 -0.4931  0.1055  0.1445
   11MOL   C425 6045   0.348   1.555   4.610  0.2110  0.0162  0.2984
   11MOL   C426 6046   0.213   1.489   4.577  0.4685 -0.3869 -0.4087
   11MOL   O427 6047   0.142   1.466   4.704  0.0550  0.3174 -0.1236
   11MOL   C428 6048   0.007   1.451   4.699 -0.1397 -0.5542  0.3881
   11MOL   O429 6049   8.039   1.469   4.600  0.2914 -0.2199  0.2863
   11MOL   C430 6050   8.049   1.412   4.833  0.0037 -0.2895 -0.2323
   11MOL   C431 6051   0.040   1.421   4.947  0.4144 -0.0507 -0.6689
   11MOL   C432 6052   8.096   1.374   5.073  0.2904  0.3615 -0.2327
   11MOL   C433 6053   7.959   1.346   5.102  0.0590  0.1542  0.3887
   11MOL   C434 6054   7.913   1.318   5.241  0.1407  0.1433  0.6125
   11MOL   O435 6055   7.980   1.347   5.337 -0.4969  0.2261  0.5705
   11MOL   C436 6056   7.867   1.352   4.992 -0.2324 -0.4170  0.4605
   11MOL   C437 6057   7.915   1.384   4.860 -0.0216  0.3370  0.7313
   11MOL   H438 6058   0.552   1.616   4.759  1.2582 -0.5840  0.8787
   11MOL   H439 6059   0.625   1.520   4.619  2.3575  1.7821  1.4799
   11MOL   H440 6060   0.395   1.428   4.783  0.3859  0.8341  0.7993
   11MOL   H441 6061   0.459   1.365   4.637  0.6336  1.1796 -1.4366
   11MOL   H442 6062   0.336   1.643   4.673 -0.9823  1.1450 -1.4378
   11MOL   H443 6063   0.396   1.581   4.515  1.6577 -1.3430  0.6336
   11MOL   H444 6064   0.150   1.551   4.513  1.4388 -1.5414 -2.5115
   11MOL   H445 6065   0.233   1.402   4.516  0.0333 -0.7862  0.0132
   11MOL   H446 6066   0.144   1.448   4.933  0.6003 -0.1652  0.4887
   11MOL   H447 6067   0.072   1.357   5.149 -0.1078 -1.4731 -0.2286
   11MOL   H448 6068   7.762   1.334   5.009 -0.1726 -1.9699 -0.7414
   11MOL   H449 6069   7.848   1.376   4.776  0.9315 -0.8211  0.0471
   11MOL   O450 6070   7.795   1.263   5.234  0.0338  0.3521  0.0015
   11MOL   C451 6071   7.734   1.214   5.351  0.5089 -0.1708  0.5563
   11MOL   C452 6072   7.579   1.199   5.324  0.4779  0.1778  0.0848
   11MOL   C453 6073   7.509   1.124   5.435 -0.0157  0.0547 -0.5129
   11MOL   C454 6074   7.489   1.196   5.571 -0.4250 -0.1957 -0.6001
   11MOL   O455 6075   7.608   1.265   5.620  0.2659  0.1672  0.2245
   11MOL   C456 6076   7.682   1.214   5.713 -0.0834  0.2713 -0.8330
   11MOL   O457 6077   7.653   1.108   5.765 -0.2946  0.5998 -0.3048
   11MOL   C458 6078   7.810   1.293   5.743 -0.1272  0.4187  0.0573
   11MOL   C459 6079   7.843   1.412   5.675 -0.1318  0.3110  0.2742
   11MOL   C460 6080   7.963   1.474   5.698  0.2014  0.1364 -0.1222
   11MOL   C461 6081   8.066   1.408   5.774 -0.3133  0.1604 -0.3243
   11MOL   C462 6082   0.107   1.458   5.781  0.0816  0.1559  0.2157
   11MOL   O463 6083   0.191   1.415   5.863 -0.2613  0.4210  0.2849
   11MOL   C464 6084   8.035   1.285   5.835  0.1687 -0.0310  0.1307
   11MOL   C465 6085   7.904   1.235   5.829 -0.4851 -0.0124  0.6271
   11MOL   H466 6086   7.780   1.118   5.373  3.3989  1.1716  0.5193
   11MOL   H467 6087   7.757   1.281   5.433 -1.2963  1.4981 -0.2486
   11MOL   H468 6088   7.570   1.139   5.233 -1.3479  3.1934 -1.8343
   11MOL   H469 6089   7.519   1.290   5.311  0.4003  0.3142  1.3652
   11MOL   H470 6090   7.414   1.099   5.388 -2.4202  1.7460  3.3017
   11MOL   H471 6091   7.564   1.032   5.458 -0.4144  0.3299  1.6146
   11MOL   H472 6092   7.421   1.279   5.557 -1.2994 -0.5162  1.5657
   11MOL   H473 6093   7.437   1.135   5.645 -0.8472 -1.2053 -1.6943
   11MOL   H474 6094   7.801   1.448   5.582  0.7359  0.8300  0.0838
   11MOL   H475 6095   7.989   1.564   5.645  0.3267 -0.3771 -0.9439
   11MOL   H476 6096   0.005   1.241   5.905 -2.9532 -1.9975  2.0902
   11MOL   H477 6097   7.879   1.146   5.884  1.1150 -1.8145 -1.5123
   11MOL   O478 6098   0.136   1.555   5.690 -0.0886  0.4157  0.0825
   11MOL   C479 6099   0.267   1.610   5.693  0.1526  0.2386  0.4447
   11MOL   C480 6100   0.276   1.754   5.631  0.1579  0.1164 -0.5510
   11MOL   C481 6101   0.228   1.869   5.731 -0.0918  0.0563 -0.0520
   11MOL   C482 6102   0.081   1.869   5.766  0.3439 -0.2865 -0.7229
   11MOL   O483 6103   0.051   1.777   5.878 -0.1995  0.9480  0.5362
   11MOL   C484 6104   8.034   1.776   5.934 -0.1353 -0.2960 -0.4941
   11MOL   O485 6105   7.933   1.834   5.889 -0.5119  0.1222 -0.1001
   11MOL   C486 6106   8.026   1.693   6.062 -0.0386 -0.1753 -0.1958
   11MOL   C487 6107   7.908   1.691   6.135 -0.6527 -0.5413  0.1998
   11MOL   C488 6108   7.895   1.606   6.239  0.1905 -0.2265 -0.2158
   11MOL   C489 6109   7.992   1.511   6.272 -0.1363  0.3219  0.2375
   11MOL   C490 6110   7.978   1.411   6.391  0.2426 -0.6818 -0.4872
   11MOL   O491 6111   8.072   1.347   6.436 -0.1422  0.8070 -0.5052
   11MOL   C492 6112   0.010   1.508   6.201 -0.6496 -0.8786 -0.3455
   11MOL   C493 6113   0.033   1.603   6.096  0.1991  0.5590 -0.4553
   11MOL   H494 6114   0.313   1.625   5.790  0.2730 -0.6986  0.5412
   11MOL   H495 6115   0.334   1.543   5.637 -0.5749 -1.5331  1.6389
   11MOL   H496 6116   0.215   1.750   5.541 -0.9573 -3.3831  0.2629
   11MOL   H497 6117   0.374   1.784   5.593 -0.5566  3.1461 -0.1251
   11MOL   H498 6118   0.288   1.862   5.821  1.4664  0.4027 -1.0500
   11MOL   H499 6119   0.259   1.960   5.680 -0.3284 -0.1313 -0.5308
   11MOL   H500 6120   0.063   1.973   5.792  0.0918 -0.7980  1.2383
   11MOL   H501 6121   0.010   1.844   5.687  0.8604 -0.9829 -0.9764
   11MOL   H502 6122   7.843   1.772   6.108  0.4519  0.3905  0.3208
   11MOL   H503 6123   7.803   1.611   6.296  0.9644 -2.1061  1.2774
   11MOL   H504 6124   0.094   1.443   6.219  0.1524 -0.0280 -0.9638
   11MOL   H505 6125   0.124   1.599   6.039 -0.8774  1.3797 -2.3053
   11MOL   O506 6126   7.858   1.421   6.439  0.4720 -0.2920 -0.3762
   11MOL   C507 6127   7.827   1.355   6.559 -0.1799  0.4110 -0.3174
   11MOL   C508 6128   7.686   1.407   6.618 -0.2038  0.1495 -0.0647
   11MOL   C509 6129   7.667   1.381   6.766  0.0005 -0.2545  0.0263
   11MOL   C510 6130   7.520   1.360   6.805  0.0187 -0.5087  0.3309
   11MOL   O511 6131   7.499   1.312   6.939 -0.1194 -0.1416 -0.7430
   11MOL   C512 6132   7.524   1.390   7.044  0.3440  0.8056  0.1410
   11MOL   O513 6133   7.554   1.508   7.029  0.6406  0.9142  0.2283
   11MOL   C514 6134   7.503   1.322   7.175  0.6635 -0.2020  0.2074
   11MOL   C515 6135   7.477   1.401   7.286  0.3571  0.2179  0.5345
   11MOL   C516 6136   7.465   1.333   7.411  0.1129  0.6815  0.4994
   11MOL   C517 6137   7.460   1.192   7.419  0.8026 -0.3223 -0.0426
   11MOL   C518 6138   7.443   1.121   7.550 -0.0743 -0.7993 -0.0249
   11MOL   O519 6139   7.440   1.184   7.656 -0.5798 -0.1293 -0.1007
   11MOL   C520 6140   7.489   1.115   7.306  0.2262  0.5467  0.4784
   11MOL   C521 6141   7.509   1.180   7.180 -0.3437  0.5493 -0.1810
   11MOL   H522 6142   7.826   1.246   6.547 -0.9130  0.4308 -0.4644
   11MOL   H523 6143   7.907   1.365   6.632 -0.6920 -2.4087  0.7077
   11MOL   H524 6144   7.613   1.349   6.561 -0.4578 -0.2440  0.6545
   11MOL   H525 6145   7.684   1.514   6.599 -0.7762 -0.0274 -1.0793
   11MOL   H526 6146   7.712   1.291   6.807  1.6631  0.3159 -0.5064
   11MOL   H527 6147   7.718   1.462   6.817  0.3485  0.1909 -1.0119
   11MOL   H528 6148   7.449   1.441   6.786  1.3246  0.9362  1.5195
   11MOL   H529 6149   7.480   1.273   6.752  2.3285 -0.7891 -1.0306
   11MOL   H530 6150   7.490   1.508   7.281  0.9932  0.0692 -1.6154
   11MOL   H531 6151   7.442   1.394   7.497 -2.8647 -0.4811  0.6063
   11MOL   H532 6152   7.474   1.008   7.304 -1.9214  0.8059  0.7840
   11MOL   H533 6153   7.515   1.118   7.092 -0.3616  0.6113 -0.2262
   11MOL   O534 6154   7.441   0.985   7.555 -0.0830 -0.0084  0.0374
   11MOL   C535 6155   7.440   0.901   7.668  0.4569 -0.2075 -0.7830
   11MOL   C536 6156   7.448   0.753   7.628 -0.2696  0.4050  0.4221
   11MOL   C537 6157   7.593   0.714   7.597  0.2483  0.1334 -0.3213
   11MOL   C538 6158   7.605   0.561   7.583 -0.4182  0.2544  0.3561
   11MOL   O539 6159   7.740   0.536   7.575 -0.1521  0.0679  0.3062
   11MOL   C540 6160   7.790   0.414   7.604  0.2111 -0.5577  0.1291
   11MOL   O541 6161   7.724   0.311   7.630  0.0287  0.1519 -0.1436
   11MOL   C542 6162   7.937   0.407   7.596 -0.1889 -0.6045 -0.3829
   11MOL   C543 6163   8.010   0.508   7.531  0.3065  0.4249  0.3994
   11MOL   C544 6164   0.046   0.504   7.522  0.0551  0.0993  0.2034
   11MOL   C545 6165   0.118   0.395   7.576  0.3832  0.2564  0.1199
   11MOL   C546 6166   0.268   0.381   7.556 -0.0351  0.5060  0.2566
   11MOL   O547 6167   0.343   0.479   7.554 -0.0090 -1.0265  0.5235
   11MOL   C548 6168   0.050   0.296   7.648 -0.2111 -0.7102  0.1668
   11MOL   C549 6169   8.009   0.297   7.650  0.0223  1.0007 -0.1875
   11MOL   H550 6170   7.525   0.925   7.732 -1.1123  0.2913  1.1776
   11MOL   H551 6171   7.346   0.924   7.718  1.2071  0.5855  0.2809
   11MOL   H552 6172   7.383   0.741   7.541 -1.4248 -1.2453  1.4708
   11MOL   H553 6173   7.407   0.701   7.715 -2.9225 -0.5843 -1.3505
   11MOL   H554 6174   7.616   0.755   7.499 -0.9082  0.4841 -0.4586
   11MOL   H555 6175   7.671   0.749   7.665  0.1396  1.2116 -0.7489
   11MOL   H556 6176   7.551   0.514   7.665 -2.5788  0.7741 -0.7033
   11MOL   H557 6177   7.543   0.524   7.500  1.5412 -0.3054 -0.8912
   11MOL   H558 6178   7.953   0.589   7.487  0.3920  0.3020  0.0644
   11MOL   H559 6179   0.098   0.579   7.465 -0.0146  0.4052  0.5379
   11MOL   H560 6180   0.099   0.210   7.689  0.4193 -0.6065 -0.3632
   11MOL   H561 6181   7.954   0.214   7.693  0.0766  1.2779  0.4277
   11MOL   H562 6182   0.299   0.278   7.538  1.3321  0.2729  3.4378
   12MOL     O1 6183   5.865   6.630   5.005  0.3649  0.1273 -0.2410
   12MOL     C2 6184   5.857   6.644   4.865  0.2302 -0.5952  0.1824
   12MOL     C3 6185   5.895   6.518   4.786 -0.1108  0.2872 -0.4630
   12MOL     C4 6186   5.826   6.388   4.833 -0.3169 -0.1519 -0.2011
   12MOL     C5 6187   5.678   6.386   4.802  0.1829  0.0924 -0.2816
   12MOL     O6 6188   5.607   6.309   4.906 -0.3987 -0.4886  0.1647
   12MOL     C7 6189   5.474   6.316   4.922 -0.5522 -0.6202  0.1456
   12MOL     O8 6190   5.400   6.382   4.852  0.5483 -0.4316  0.5925
   12MOL     C9 6191   5.422   6.224   5.031  0.2676  0.1136  0.0966
   12MOL    C10 6192   5.491   6.114   5.059 -0.8973 -0.2442  0.1358
   12MOL    C11 6193   5.460   6.038   5.175 -0.4572 -0.1672  0.1789
   12MOL    C12 6194   5.346   6.072   5.254 -0.2348  0.2999 -1.1789
   12MOL    C13 6195   5.314   5.998   5.390 -0.6257  0.3772  0.2328
   12MOL    O14 6196   5.233   6.032   5.478  0.7409  0.3806 -0.4807
   12MOL    C15 6197   5.263   6.183   5.223  0.0024 -0.5374  0.3780
   12MOL    C16 6198   5.311   6.258   5.113 -0.2366  0.0242  0.3394
   12MOL    H17 6199   5.758   6.688   4.849  0.5741 -0.3943 -1.4683
   12MOL    H18 6200   5.924   6.724   4.832 -1.6487  0.4044 -1.3390
   12MOL    H19 6201   6.001   6.515   4.807 -0.2958 -1.0369  0.3119
   12MOL    H20 6202   5.872   6.536   4.681 -1.1715  0.6737 -0.1706
   12MOL    H21 6203   5.866   6.314   4.764 -2.2435 -0.6569 -0.8021
   12MOL    H22 6204   5.839   6.362   4.938 -1.9160 -1.9446 -0.4187
   12MOL    H23 6205   5.615   6.475   4.798 -0.5452 -0.4583 -1.6565
   12MOL    H24 6206   5.650   6.341   4.706 -1.8492  0.8268 -0.0521
   12MOL    H25 6207   5.581   6.086   5.005 -1.2854  2.1065 -1.8469
   12MOL    H26 6208   5.519   5.950   5.197  0.3916  0.2927 -0.2219
   12MOL    H27 6209   5.167   6.206   5.266 -0.0538 -2.7664  1.5291
   12MOL    H28 6210   5.260   6.349   5.086 -0.1618 -0.1840 -0.5209
   12MOL    H29 6211   5.815   6.697   5.049  1.1278 -0.1350  1.0407
   12MOL    O30 6212   5.408   5.899   5.415  0.2288 -0.1266  0.3777
   12MOL    C31 6213   5.422   5.843   5.544 -0.1472  0.4999 -0.0534
   12MOL    C32 6214   5.457   5.693   5.526 -0.0355 -0.1933  0.7315
   12MOL    C33 6215   5.542   5.646   5.645  0.0424 -0.0894  0.2054
   12MOL    C34 6216   5.593   5.503   5.617  0.1719 -0.0754  0.3108
   12MOL    O35 6217   5.693   5.454   5.706  0.8515  0.1066 -0.3727
   12MOL    C36 6218   5.767   5.341   5.659  0.2318  0.2864 -1.4999
   12MOL    O37 6219   5.735   5.277   5.557 -0.3738 -0.0630 -0.2151
   12MOL    C38 6220   5.890   5.317   5.742  0.6497 -0.5450 -0.2887
   12MOL    C39 6221   5.977   5.210   5.709 -0.1109 -0.0741 -0.3059
   12MOL    C40 6222   6.084   5.189   5.790 -0.1218 -0.7104  0.5545
   12MOL    C41 6223   6.122   5.274   5.905  0.5425 -0.6782  0.6920
   12MOL    C42 6224   6.249   5.257   5.973  0.4038  1.4289  0.4314
   12MOL    O43 6225   6.341   5.201   5.923 -0.0108  0.2148  0.3033
   12MOL    C44 6226   6.034   5.386   5.931 -0.6473  0.2518  0.3510
   12MOL    C45 6227   5.917   5.397   5.853 -0.3820 -0.2255 -0.0006
   12MOL    H46 6228   5.511   5.898   5.572  0.7413 -1.3294  0.7674
   12MOL    H47 6229   5.345   5.858   5.620 -1.4189 -0.9229 -1.0296
   12MOL    H48 6230   5.525   5.687   5.442  2.9237 -0.8488  3.0945
   12MOL    H49 6231   5.373   5.626   5.507 -0.4526  0.6426 -0.3713
   12MOL    H50 6232   5.629   5.712   5.655 -0.3793  0.3547  0.9028
   12MOL    H51 6233   5.494   5.650   5.742 -2.0106 -2.1514 -0.6874
   12MOL    H52 6234   5.506   5.437   5.615 -0.8250  1.2433 -1.1516
   12MOL    H53 6235   5.640   5.518   5.520 -1.8150  0.2057 -0.6349
   12MOL    H54 6236   5.964   5.150   5.620 -1.7173 -1.0893  0.6015
   12MOL    H55 6237   6.163   5.122   5.758  0.0622 -0.5860  0.7513
   12MOL    H56 6238   6.065   5.465   5.999  0.2291  0.5249 -0.3540
   12MOL    H57 6239   5.857   5.481   5.882 -0.5804 -0.4880  0.3621
   12MOL    O58 6240   6.243   5.298   6.099  0.3812  0.4071 -0.4873
   12MOL    C59 6241   6.366   5.296   6.174 -0.6655 -0.4336  1.2896
   12MOL    C60 6242   6.331   5.312   6.327  0.0288  0.2677 -0.2228
   12MOL    C61 6243   6.256   5.187   6.380  0.6899 -0.1381 -0.3087
   12MOL    C62 6244   6.269   5.188   6.530 -0.1824  0.5780 -1.1541
   12MOL    O63 6245   6.218   5.065   6.586  0.5094 -0.9313 -0.2616
   12MOL    C64 6246   6.208   5.053   6.722 -0.0404 -0.3917 -0.0730
   12MOL    O65 6247   6.234   5.146   6.800  0.0613  0.2746  0.2623
   12MOL    C66 6248   6.179   4.912   6.767 -0.5585  0.4165 -0.4605
   12MOL    C67 6249   6.202   4.881   6.900  0.1818  0.1524  0.2864
   12MOL    C68 6250   6.175   4.747   6.950  0.3659 -0.7847  0.1043
   12MOL    C69 6251   6.133   4.649   6.855 -0.3718  0.3811  0.6094
   12MOL    C70 6252   6.083   4.516   6.903 -0.5078  0.7923  0.5090
   12MOL    O71 6253   6.053   4.428   6.822 -0.4129  0.5024 -0.4418
   12MOL    C72 6254   6.120   4.680   6.717 -0.0241 -0.3670  0.7946
   12MOL    C73 6255   6.141   4.815   6.676  0.1143  0.1075  0.0867
   12MOL    H74 6256   6.414   5.201   6.150  1.0609  1.2380 -2.1420
   12MOL    H75 6257   6.440   5.372   6.150 -0.7439 -0.9060 -0.4918
   12MOL    H76 6258   6.260   5.393   6.346 -0.5582 -0.2513 -0.2088
   12MOL    H77 6259   6.428   5.312   6.377 -1.6745  0.2832  3.2300
   12MOL    H78 6260   6.153   5.180   6.346  0.4431 -0.0538  0.4091
   12MOL    H79 6261   6.299   5.097   6.335  1.4762 -0.9398  1.9596
   12MOL    H80 6262   6.372   5.190   6.567 -0.1252 -0.3069 -1.2447
   12MOL    H81 6263   6.219   5.274   6.575 -1.1642  0.1908 -1.4825
   12MOL    H82 6264   6.242   4.951   6.972  0.2649 -0.8568  1.2514
   12MOL    H83 6265   6.183   4.731   7.056 -0.7570 -0.5068  0.2396
   12MOL    H84 6266   6.078   4.608   6.647 -1.8892  1.2585  0.1940
   12MOL    H85 6267   6.120   4.838   6.573 -1.5521  1.9443  0.8223
   12MOL    O86 6268   6.068   4.508   7.043 -0.1839 -0.5441  0.0328
   12MOL    C87 6269   6.023   4.393   7.106 -0.0023  0.2087  0.2322
   12MOL    C88 6270   6.133   4.312   7.161 -0.8293 -0.2709  0.0135
   12MOL    C89 6271   6.232   4.256   7.061  0.0369 -0.2033  0.3943
   12MOL    C90 6272   6.194   4.120   7.004  1.0429 -0.0666  0.5663
   12MOL    O91 6273   6.307   4.065   6.945  0.1695  0.7918 -0.5966
   12MOL    C92 6274   6.287   3.949   6.872 -0.2900 -0.1782 -0.3961
   12MOL    O93 6275   6.182   3.900   6.832  0.0061  0.2461 -0.3856
   12MOL    C94 6276   6.420   3.882   6.848 -0.5018  0.2495 -0.1623
   12MOL    C95 6277   6.420   3.766   6.774  0.2275  0.4019 -0.0584
   12MOL    C96 6278   6.539   3.698   6.757 -0.0575 -0.2410  1.0288
   12MOL    C97 6279   6.657   3.731   6.819 -0.5443  0.2322 -0.5331
   12MOL    C98 6280   6.764   3.628   6.831 -0.5186 -0.1446  0.5823
   12MOL    O99 6281   6.732   3.511   6.833  0.0886  0.2288  0.7286
   12MOL   C100 6282   6.661   3.858   6.883  0.0510 -0.2526 -0.2656
   12MOL   C101 6283   6.540   3.932   6.898  0.4604 -0.7517 -0.2753
   12MOL   H102 6284   5.954   4.411   7.188 -0.4764 -0.1683 -0.0835
   12MOL   H103 6285   5.969   4.330   7.036  0.6550  0.1770 -0.2540
   12MOL   H104 6286   6.103   4.237   7.234  1.7867 -1.4455 -0.0647
   12MOL   H105 6287   6.188   4.383   7.223  3.0516 -0.3215 -3.1701
   12MOL   H106 6288   6.256   4.326   6.982 -1.2494  0.6448  0.7321
   12MOL   H107 6289   6.330   4.236   7.104  0.4981 -1.8443 -1.3715
   12MOL   H108 6290   6.150   4.062   7.085 -1.3639  1.5518  0.4663
   12MOL   H109 6291   6.115   4.147   6.935  2.4358  1.7977 -0.3440
   12MOL   H110 6292   6.331   3.731   6.725 -1.4356  3.1860  0.8302
   12MOL   H111 6293   6.543   3.611   6.694 -0.4686 -0.3151  1.1021
   12MOL   H112 6294   6.753   3.890   6.930  0.6427  0.0423 -1.5803
   12MOL   H113 6295   6.527   4.024   6.954 -1.3396 -1.0753 -0.1102
   12MOL   O114 6296   6.885   3.680   6.844 -0.4992  0.2377 -0.1540
   12MOL   C115 6297   6.991   3.597   6.870  0.4751 -0.3981 -0.4813
   12MOL   C116 6298   7.023   3.500   6.757 -0.1594 -0.5082 -0.1213
   12MOL   C117 6299   7.150   3.422   6.792  0.2971  0.1187  0.0396
   12MOL   C118 6300   7.167   3.301   6.697 -0.0904  0.2512 -0.5488
   12MOL   O119 6301   7.296   3.239   6.719 -0.3369 -0.7686 -0.3796
   12MOL   C120 6302   7.316   3.150   6.820  0.1179  0.2525  0.3161
   12MOL   O121 6303   7.234   3.118   6.903 -0.1436 -0.3873  0.2877
   12MOL   C122 6304   7.452   3.096   6.824  0.7901 -0.1928  0.1384
   12MOL   C123 6305   7.547   3.122   6.728 -0.0066 -0.4626  0.8275
   12MOL   C124 6306   7.682   3.079   6.723 -0.3215 -0.7063  0.6945
   12MOL   C125 6307   7.720   3.005   6.835  0.1237 -0.4637  0.1378
   12MOL   C126 6308   7.860   2.960   6.838  0.7260 -0.8666  0.1045
   12MOL   O127 6309   7.909   2.908   6.934  0.2534 -0.1442  0.0940
   12MOL   C128 6310   7.630   2.972   6.937 -0.0796  0.7962 -0.4637
   12MOL   C129 6311   7.497   3.018   6.934 -0.0669  0.1381 -0.9459
   12MOL   H130 6312   7.084   3.652   6.885  0.0424  0.8264 -2.1041
   12MOL   H131 6313   6.970   3.541   6.961 -1.2505 -0.4532 -0.8891
   12MOL   H132 6314   7.050   3.549   6.664  1.7557  0.8712  1.1072
   12MOL   H133 6315   6.941   3.433   6.731  0.3879 -1.6012  0.8858
   12MOL   H134 6316   7.236   3.489   6.786  0.9133 -0.7797 -1.6510
   12MOL   H135 6317   7.145   3.384   6.894  1.1696  2.6767  1.0711
   12MOL   H136 6318   7.087   3.228   6.704 -2.2567  2.6559  0.6247
   12MOL   H137 6319   7.162   3.340   6.596  1.3659 -0.2176 -0.8220
   12MOL   H138 6320   7.519   3.182   6.642  3.6634  0.4007  0.1650
   12MOL   H139 6321   7.753   3.105   6.646  0.2163 -0.2770  1.3309
   12MOL   H140 6322   7.666   2.911   7.018  0.5756  1.0462 -0.5673
   12MOL   H141 6323   7.431   3.000   7.018 -1.9531  4.1477 -1.4511
   12MOL   O142 6324   7.925   2.980   6.717  0.5897  0.6577  0.6010
   12MOL   C143 6325   8.063   2.942   6.720 -0.4213 -0.7425 -0.5140
   12MOL   C144 6326   8.095   2.882   6.585  0.8568  0.9182 -0.6814
   12MOL   C145 6327   0.126   2.800   6.592 -0.1866 -0.4608  0.1109
   12MOL   C146 6328   0.185   2.748   6.460 -0.3177 -0.3262 -0.4765
   12MOL   O147 6329   0.212   2.849   6.373  0.1305 -0.6015  0.3875
   12MOL   C148 6330   0.340   2.901   6.367  0.7468 -0.4406 -0.0263
   12MOL   O149 6331   0.436   2.852   6.430 -0.0979  0.5907  0.2295
   12MOL   C150 6332   0.347   3.026   6.280  0.3058  0.4207  0.7713
   12MOL   C151 6333   0.471   3.097   6.278 -0.1410 -0.2003  0.1942
   12MOL   C152 6334   0.485   3.219   6.209 -0.8423 -0.3295  0.2784
   12MOL   C153 6335   0.366   3.278   6.149  0.1601  0.4377 -0.3965
   12MOL   C154 6336   0.377   3.410   6.077 -0.2517 -0.1627  0.2830
   12MOL   O155 6337   0.485   3.465   6.067  0.2422 -0.4131 -0.0528
   12MOL   C156 6338   0.245   3.206   6.153 -1.4268  0.6663 -0.3374
   12MOL   C157 6339   0.235   3.083   6.218  0.3995 -0.2754  0.0683
   12MOL   H158 6340   0.027   3.026   6.752 -1.2838  0.4172 -1.8083
   12MOL   H159 6341   8.076   2.860   6.791  1.3896  0.8002  1.0141
   12MOL   H160 6342   0.013   2.966   6.518 -0.7560  1.2378 -0.7011
   12MOL   H161 6343   8.017   2.817   6.544  1.0249 -1.1624  2.1078
   12MOL   H162 6344   0.202   2.848   6.653 -0.4875  1.3430 -0.9060
   12MOL   H163 6345   0.094   2.716   6.654 -1.5422 -0.2349 -0.2696
   12MOL   H164 6346   0.268   2.680   6.478 -0.6124 -0.9898 -1.5843
   12MOL   H165 6347   0.112   2.687   6.407 -1.7519  0.7415  0.2168
   12MOL   H166 6348   0.554   3.055   6.331  1.7848  2.5050 -0.5806
   12MOL   H167 6349   0.577   3.275   6.196 -0.5118 -0.6622  1.1525
   12MOL   H168 6350   0.161   3.249   6.100 -0.0719  1.4491 -1.9028
   12MOL   H169 6351   0.145   3.024   6.212  0.2983 -0.1130 -0.0165
   12MOL   O170 6352   0.261   3.456   6.035 -0.2856 -0.1471  0.3456
   12MOL   C171 6353   0.256   3.588   5.977  0.1121 -0.2385  0.1960
   12MOL   C172 6354   0.132   3.594   5.885  0.0013  1.0451  0.5636
   12MOL   C173 6355   0.150   3.512   5.751  0.0776 -0.3842  0.1536
   12MOL   C174 6356   0.050   3.561   5.640  0.4261 -0.4897 -0.5034
   12MOL   O175 6357   0.043   3.469   5.540  0.4868  0.4563 -0.1676
   12MOL   C176 6358   0.003   3.492   5.416 -0.6130 -0.3248  0.4803
   12MOL   O177 6359   8.062   3.603   5.380  0.3849  0.0764  0.2330
   12MOL   C178 6360   0.023   3.373   5.320 -0.1161 -0.3036  0.5919
   12MOL   C179 6361   0.085   3.254   5.361  1.0505 -0.5913 -0.0339
   12MOL   C180 6362   0.094   3.141   5.274 -0.2125  0.0132 -0.0522
   12MOL   C181 6363   0.054   3.150   5.137  0.8415 -0.2333 -0.0603
   12MOL   C182 6364   0.054   3.036   5.040  0.9768  0.5624 -0.7722
   12MOL   O183 6365   0.120   2.930   5.059  0.3247  0.5281 -0.2883
   12MOL   C184 6366   8.084   3.272   5.101 -0.3452  0.3521 -0.1223
   12MOL   C185 6367   8.072   3.380   5.185  0.1719  0.0858  0.5598
   12MOL   H186 6368   0.248   3.656   6.062  0.1295  1.0371 -0.7928
   12MOL   H187 6369   0.350   3.607   5.925  0.8652 -0.0788  1.5961
   12MOL   H188 6370   0.106   3.698   5.871  1.8490  1.7566  2.0453
   12MOL   H189 6371   0.051   3.550   5.943  1.6935 -1.3680  1.1935
   12MOL   H190 6372   0.249   3.532   5.711  0.2820  0.5966  1.1181
   12MOL   H191 6373   0.151   3.404   5.765 -0.7460 -0.9711 -3.9514
   12MOL   H192 6374   8.050   3.572   5.685  1.2545 -0.1962  1.2728
   12MOL   H193 6375   0.073   3.660   5.600 -1.7551  0.6901  1.0660
   12MOL   H194 6376   0.126   3.242   5.460 -0.3585 -0.6609  0.5556
   12MOL   H195 6377   0.132   3.046   5.307 -0.3057 -0.2846 -0.7783
   12MOL   H196 6378   8.038   3.284   5.004 -0.4796  2.4772  0.1627
   12MOL   H197 6379   8.030   3.475   5.155  1.2142 -0.0414 -1.4287
   12MOL   O198 6380   8.071   3.065   4.938  0.4449  0.1606  0.1309
   12MOL   C199 6381   8.053   2.967   4.840  0.4558  0.0949 -0.6136
   12MOL   C200 6382   7.929   2.887   4.871 -0.4279 -0.0373 -0.2892
   12MOL   C201 6383   7.805   2.966   4.820 -0.4664  0.1761 -0.2750
   12MOL   C202 6384   7.675   2.893   4.797  0.1649  0.1866 -0.0267
   12MOL   O203 6385   7.569   2.995   4.803 -0.2823 -0.0382 -0.9895
   12MOL   C204 6386   7.484   2.989   4.909  0.4333  0.6167 -0.4830
   12MOL   O205 6387   7.475   2.886   4.982 -0.0839  0.4223  0.1978
   12MOL   C206 6388   7.393   3.106   4.916  0.5998 -0.0147 -0.0598
   12MOL   C207 6389   7.287   3.106   5.014  0.1816 -0.1584  0.6166
   12MOL   C208 6390   7.187   3.202   5.013  0.1728  0.0813 -0.7411
   12MOL   C209 6391   7.197   3.320   4.937 -0.7261  0.4892 -0.2159
   12MOL   C210 6392   7.099   3.425   4.940  0.5815 -0.0905 -0.0645
   12MOL   O211 6393   7.009   3.438   5.024  0.6048  0.5453 -0.0673
   12MOL   C212 6394   7.312   3.332   4.857  0.3845  0.3217 -0.3781
   12MOL   C213 6395   7.402   3.226   4.839  0.8187 -0.0456  0.1951
   12MOL   H214 6396   8.035   3.020   4.746 -1.3092 -2.4936 -1.7915
   12MOL   H215 6397   0.043   2.907   4.817 -0.1101 -1.2516  0.6496
   12MOL   H216 6398   7.916   2.861   4.976  0.5522 -1.1183 -0.4314
   12MOL   H217 6399   7.922   2.791   4.820 -0.4427  0.5221 -1.3769
   12MOL   H218 6400   7.785   3.045   4.893 -0.5648  0.7376 -0.9128
   12MOL   H219 6401   7.829   3.011   4.724 -2.4867  3.0219  0.4934
   12MOL   H220 6402   7.676   2.858   4.694  0.5785  0.5035 -0.1329
   12MOL   H221 6403   7.671   2.813   4.870 -0.8190  0.2143 -0.0527
   12MOL   H222 6404   7.290   3.030   5.090 -0.5093 -2.4364 -1.6025
   12MOL   H223 6405   7.120   3.202   5.097  1.5577 -0.4417  0.3814
   12MOL   H224 6406   7.328   3.422   4.800 -4.0222  0.2246 -2.0139
   12MOL   H225 6407   7.482   3.243   4.769 -0.7082 -0.1155 -1.6331
   12MOL   O226 6408   7.126   3.522   4.848 -0.4707 -0.0210 -0.1528
   12MOL   C227 6409   7.056   3.643   4.835 -0.4572 -0.1214 -0.4220
   12MOL   C228 6410   7.139   3.747   4.919  0.5055 -0.5211 -0.1820
   12MOL   C229 6411   7.284   3.733   4.895 -0.4065 -0.0547 -0.0287
   12MOL   C230 6412   7.331   3.777   4.750 -0.5426 -0.4956 -0.4349
   12MOL   O231 6413   7.309   3.683   4.655 -0.4010 -0.5976 -0.0946
   12MOL   C232 6414   7.356   3.696   4.535  0.1695 -0.2312  0.5049
   12MOL   O233 6415   7.431   3.784   4.496 -0.1697  0.0292 -0.4526
   12MOL   C234 6416   7.302   3.594   4.440  0.3428  0.5348 -0.2161
   12MOL   C235 6417   7.348   3.581   4.308  0.9241  0.0617  0.6803
   12MOL   C236 6418   7.302   3.469   4.227  0.5060 -0.8881  0.4046
   12MOL   C237 6419   7.218   3.371   4.275 -0.3756  0.6415 -0.1054
   12MOL   C238 6420   7.175   3.247   4.196 -0.3099  0.1780  0.1479
   12MOL   O239 6421   7.080   3.176   4.240  0.6926  0.3798  0.2608
   12MOL   C240 6422   7.170   3.382   4.409 -0.1289  0.2609 -0.4251
   12MOL   C241 6423   7.208   3.497   4.485  0.4657 -0.4226 -1.0001
   12MOL   H242 6424   7.049   3.673   4.730 -0.1193  2.6163  0.3070
   12MOL   H243 6425   6.956   3.634   4.877 -0.4613 -1.0428 -0.6260
   12MOL   H244 6426   7.132   3.730   5.026 -2.3917 -2.3428 -0.5856
   12MOL   H245 6427   7.094   3.842   4.891 -2.3449 -2.3337 -2.1743
   12MOL   H246 6428   7.332   3.801   4.966 -0.9276  0.7733 -0.4667
   12MOL   H247 6429   7.332   3.637   4.917 -1.2179 -0.6653 -0.8904
   12MOL   H248 6430   7.277   3.867   4.722  2.3583  0.6160 -2.6597
   12MOL   H249 6431   7.437   3.801   4.751  0.0846 -3.1100  1.8823
   12MOL   H250 6432   7.426   3.644   4.267 -0.2531  0.7977 -0.4742
   12MOL   H251 6433   7.334   3.452   4.125  0.9209  0.3836  0.3068
   12MOL   H252 6434   7.110   3.308   4.460 -2.4281  1.8280 -0.7785
   12MOL   H253 6435   7.166   3.491   4.584 -0.7821 -1.4751 -1.5766
   12MOL   O254 6436   7.241   3.221   4.079  0.0987 -0.3286  0.2725
   12MOL   C255 6437   7.206   3.104   3.995  0.2138 -0.2612 -0.6453
   12MOL   C256 6438   7.226   3.132   3.847 -0.1936  0.2156 -0.0018
   12MOL   C257 6439   7.162   3.021   3.758 -0.5835 -0.4555 -0.8593
   12MOL   C258 6440   7.015   3.066   3.732  0.0736  0.2494 -0.5308
   12MOL   O259 6441   6.937   2.966   3.683  0.7308 -0.2584  0.3221
   12MOL   C260 6442   6.940   2.920   3.566 -0.3426  0.0884  0.8047
   12MOL   O261 6443   7.018   2.959   3.476  0.2153  0.2724  0.3567
   12MOL   C262 6444   6.827   2.827   3.537 -0.0646  0.8188  0.0766
   12MOL   C263 6445   6.744   2.780   3.638 -0.9441 -0.6280  0.9418
   12MOL   C264 6446   6.631   2.709   3.610 -0.4757 -0.5231  0.4488
   12MOL   C265 6447   6.608   2.661   3.478 -0.5389 -0.6332 -0.0877
   12MOL   C266 6448   6.483   2.594   3.445 -0.0714  0.5276  0.3078
   12MOL   O267 6449   6.460   2.550   3.330  0.5033 -0.0613 -0.2363
   12MOL   C268 6450   6.696   2.699   3.373 -0.0772 -0.0193  0.6337
   12MOL   C269 6451   6.806   2.790   3.401 -0.9070  0.0585 -0.7574
   12MOL   H270 6452   7.254   3.012   4.030  0.7835 -0.6343 -2.3392
   12MOL   H271 6453   7.098   3.096   4.007  0.6008 -1.8822  2.2165
   12MOL   H272 6454   7.334   3.134   3.831 -0.2066  0.5531 -0.0478
   12MOL   H273 6455   7.198   3.233   3.818 -0.3456  0.3164  0.4896
   12MOL   H274 6456   7.226   3.015   3.669  0.7162 -2.4225  0.1628
   12MOL   H275 6457   7.167   2.922   3.804  2.2353 -0.0320 -0.1614
   12MOL   H276 6458   6.975   3.090   3.830  0.6819 -1.2303  0.0927
   12MOL   H277 6459   7.001   3.148   3.661 -0.2552  0.1366 -0.5978
   12MOL   H278 6460   6.758   2.813   3.740 -1.5631  0.0327  0.8189
   12MOL   H279 6461   6.551   2.704   3.682 -0.8109  0.7119  0.1835
   12MOL   H280 6462   6.668   2.675   3.272 -0.5482  0.8287  0.5506
   12MOL   H281 6463   6.871   2.834   3.327 -0.7412 -0.2115 -0.7754
   12MOL   O282 6464   6.401   2.582   3.549 -0.1185  0.8743 -0.1768
   12MOL   C283 6465   6.278   2.507   3.533  0.2921  0.0356  1.1857
   12MOL   C284 6466   6.156   2.596   3.500  0.4536 -0.4086 -0.2684
   12MOL   C285 6467   6.029   2.514   3.482 -0.0204  0.2641  0.6588
   12MOL   C286 6468   5.903   2.588   3.433  0.4529 -0.1379  0.2671
   12MOL   O287 6469   5.793   2.499   3.404  0.6789 -0.2963 -0.1198
   12MOL   C288 6470   5.665   2.549   3.404  0.1656 -0.0596  0.5599
   12MOL   O289 6471   5.631   2.664   3.429  0.2519 -0.2074  0.5395
   12MOL   C290 6472   5.569   2.441   3.358  0.4850  0.0371  0.1079
   12MOL   C291 6473   5.428   2.470   3.350 -0.0440  0.4855 -0.2020
   12MOL   C292 6474   5.337   2.387   3.288 -0.2302 -0.4774 -0.0885
   12MOL   C293 6475   5.380   2.265   3.241 -0.1660  0.0704  0.5856
   12MOL   C294 6476   5.287   2.178   3.166  0.0124  0.2643 -0.1487
   12MOL   O295 6477   5.164   2.200   3.161  0.0447  0.0457 -0.2209
   12MOL   C296 6478   5.515   2.228   3.250 -0.0077  0.0617 -0.0430
   12MOL   C297 6479   5.607   2.316   3.307  0.0495 -0.1184  0.3048
   12MOL   H298 6480   6.280   2.425   3.461 -0.7195 -0.5662  1.8351
   12MOL   H299 6481   6.258   2.439   3.615  1.7012 -2.0846 -0.1625
   12MOL   H300 6482   6.171   2.659   3.412  0.6591  0.9206  0.7143
   12MOL   H301 6483   6.148   2.668   3.581 -0.7444 -1.1351  0.2688
   12MOL   H302 6484   6.055   2.426   3.422 -0.7552 -0.0951  0.8636
   12MOL   H303 6485   5.999   2.475   3.579 -1.4239  0.0442  0.1458
   12MOL   H304 6486   5.877   2.669   3.501  1.1668  0.3982 -0.0932
   12MOL   H305 6487   5.925   2.622   3.332 -1.4541  0.4058  0.0210
   12MOL   H306 6488   5.398   2.565   3.391  0.8806  0.5483  0.3436
   12MOL   H307 6489   5.232   2.411   3.293 -0.1676  0.0161 -1.0912
   12MOL   H308 6490   5.546   2.129   3.222  1.4056  0.6720 -0.7184
   12MOL   H309 6491   5.710   2.287   3.299 -0.0468 -0.1464 -0.8372
   12MOL   O310 6492   5.348   2.071   3.123 -0.0240 -0.1391  0.5852
   12MOL   C311 6493   5.283   1.985   3.034 -0.2624  0.3455  0.3106
   12MOL   C312 6494   5.354   1.962   2.898 -0.0687 -0.4563 -1.3041
   12MOL   C313 6495   5.319   2.083   2.813 -0.4071  0.2943  0.5619
   12MOL   C314 6496   5.429   2.103   2.700  0.4213  0.0496 -0.2140
   12MOL   O315 6497   5.540   2.166   2.766  0.0516 -0.1811 -0.8061
   12MOL   C316 6498   5.661   2.108   2.765  0.9238  0.1875  0.0352
   12MOL   O317 6499   5.693   2.004   2.703 -0.0778 -0.3674  0.4734
   12MOL   C318 6500   5.755   2.187   2.842 -0.1836 -0.0689  0.3945
   12MOL   C319 6501   5.890   2.148   2.849 -0.3029  0.3217  0.9612
   12MOL   C320 6502   5.984   2.230   2.908 -0.1479 -0.1942  0.5659
   12MOL   C321 6503   5.943   2.346   2.981  0.8123 -1.1658 -0.0758
   12MOL   C322 6504   6.037   2.436   3.053  0.5789  0.0241 -1.0905
   12MOL   O323 6505   5.996   2.531   3.116 -0.6974 -0.2356  0.6909
   12MOL   C324 6506   5.808   2.382   2.970  0.1163  0.6455  0.3503
   12MOL   C325 6507   5.717   2.303   2.902  0.4551 -0.8162  0.4128
   12MOL   H326 6508   5.264   1.890   3.084  2.2675 -0.6129 -0.4656
   12MOL   H327 6509   5.179   2.009   3.010 -0.6998 -0.2484  1.6052
   12MOL   H328 6510   5.325   1.866   2.853 -0.2632 -0.3868 -1.3301
   12MOL   H329 6511   5.459   1.952   2.925  0.3158  1.7727 -1.9396
   12MOL   H330 6512   5.219   2.073   2.772  0.0274 -1.1085 -0.1821
   12MOL   H331 6513   5.318   2.178   2.867  0.6490  1.4459 -1.3534
   12MOL   H332 6514   5.455   2.006   2.656  0.2171 -0.0688 -0.0697
   12MOL   H333 6515   5.395   2.173   2.624 -1.8719  0.8795  1.5144
   12MOL   H334 6516   5.917   2.052   2.808 -1.5401 -0.0934  1.1107
   12MOL   H335 6517   6.087   2.197   2.901  0.5519  1.6679  1.5004
   12MOL   H336 6518   5.772   2.462   3.033  0.0964  0.0574  1.1017
   12MOL   H337 6519   5.614   2.337   2.905  0.6596 -0.1599  0.0938
   12MOL   O338 6520   6.159   2.408   3.040 -0.8487  0.1307 -0.1565
   12MOL   C339 6521   6.265   2.476   3.096  0.1003  0.0388  0.0780
   12MOL   C340 6522   6.377   2.478   2.991 -0.5761 -0.0804  0.2093
   12MOL   C341 6523   6.438   2.330   2.977  0.4435 -0.3407 -0.0639
   12MOL   C342 6524   6.555   2.309   2.884  0.0323 -0.2910 -0.4043
   12MOL   O343 6525   6.673   2.366   2.934 -0.4170  0.7001 -0.5609
   12MOL   C344 6526   6.788   2.370   2.861  0.0706  0.0698  0.2238
   12MOL   O345 6527   6.802   2.335   2.747 -0.1090 -0.3826  0.0045
   12MOL   C346 6528   6.904   2.437   2.933  0.2174 -0.4214  1.2209
   12MOL   C347 6529   6.889   2.477   3.069  0.4214  1.2733  0.2178
   12MOL   C348 6530   6.997   2.535   3.132  0.4729 -0.3872 -0.0633
   12MOL   C349 6531   7.125   2.559   3.072  1.3200 -0.1847 -0.1907
   12MOL   C350 6532   7.232   2.632   3.137  0.2631 -0.4580  0.3362
   12MOL   O351 6533   7.334   2.669   3.078 -0.1395  0.1817  0.1418
   12MOL   C352 6534   7.137   2.512   2.938 -0.0327 -0.1494 -0.5453
   12MOL   C353 6535   7.029   2.456   2.872 -0.1243 -0.2234  0.2624
   12MOL   H354 6536   6.232   2.575   3.125  3.6180  1.2071  0.2735
   12MOL   H355 6537   6.295   2.429   3.190  0.3304  0.1793  0.0750
   12MOL   H356 6538   6.444   2.559   3.018 -0.6732 -0.5115  1.7844
   12MOL   H357 6539   6.339   2.521   2.898  0.1060 -0.5559 -0.2917
   12MOL   H358 6540   6.477   2.305   3.075 -0.8155  2.9244  1.3205
   12MOL   H359 6541   6.356   2.261   2.955 -0.1651  0.2745  0.2483
   12MOL   H360 6542   6.579   2.203   2.880  0.9683 -0.0365 -2.0178
   12MOL   H361 6543   6.534   2.354   2.787 -1.0636 -1.5178 -0.7376
   12MOL   H362 6544   6.795   2.471   3.122 -0.4225 -0.3519 -1.4089
   12MOL   H363 6545   6.971   2.580   3.227 -0.5587 -1.8378  0.3669
   12MOL   H364 6546   7.235   2.521   2.894  0.6509 -5.3669 -0.4094
   12MOL   H365 6547   7.060   2.426   2.773  0.1317  0.5753  0.0957
   12MOL   O366 6548   7.200   2.669   3.262  0.4565  0.2740 -0.0159
   12MOL   C367 6549   7.279   2.758   3.338  0.1735  0.1294 -0.0068
   12MOL   C368 6550   7.280   2.722   3.489  0.0985 -1.2396 -0.1534
   12MOL   C369 6551   7.310   2.570   3.518  0.0921 -0.3258  0.4980
   12MOL   C370 6552   7.290   2.518   3.661 -0.3502 -0.3238 -0.3577
   12MOL   O371 6553   7.400   2.550   3.746 -0.4751  0.0672  0.3580
   12MOL   C372 6554   7.400   2.656   3.836  0.5444  1.1599 -0.4637
   12MOL   O373 6555   7.315   2.743   3.830 -0.2534 -0.1199 -0.0665
   12MOL   C374 6556   7.520   2.670   3.926  0.4204 -0.1312  0.4518
   12MOL   C375 6557   7.527   2.773   4.010 -0.5106 -0.4840 -0.3312
   12MOL   C376 6558   7.633   2.779   4.098 -0.3040 -0.3343  0.0525
   12MOL   C377 6559   7.733   2.681   4.102  0.7847 -0.1786 -0.0754
   12MOL   C378 6560   7.840   2.697   4.211 -0.3676  0.0391 -0.1746
   12MOL   O379 6561   7.947   2.630   4.211 -0.1701 -0.0025  0.1400
   12MOL   C380 6562   7.721   2.574   4.014  0.0776  0.2840  0.0040
   12MOL   C381 6563   7.618   2.576   3.921  0.5684  0.2647 -0.5629
   12MOL   H382 6564   7.383   2.748   3.308  0.4353 -0.4979  1.0698
   12MOL   H383 6565   7.248   2.861   3.320 -0.8144 -0.3261 -0.9728
   12MOL   H384 6566   7.176   2.745   3.514  1.4598  1.4687  3.4716
   12MOL   H385 6567   7.346   2.787   3.546 -0.5101 -0.3202 -0.4786
   12MOL   H386 6568   7.242   2.509   3.459  0.4863 -1.3607  1.0863
   12MOL   H387 6569   7.415   2.554   3.493 -0.5653  0.4155 -2.9670
   12MOL   H388 6570   7.194   2.544   3.707  1.0780  1.6393  1.6505
   12MOL   H389 6571   7.293   2.411   3.641  1.0442 -0.4512  0.5113
   12MOL   H390 6572   7.439   2.835   4.015 -0.2346 -0.1171  0.1977
   12MOL   H391 6573   7.635   2.865   4.165  0.0014 -0.3463  0.0585
   12MOL   H392 6574   7.805   2.506   4.021  0.8399  1.3907  2.0445
   12MOL   H393 6575   7.611   2.492   3.853  1.9561  0.1394 -0.5570
   12MOL   O394 6576   7.808   2.790   4.307 -0.4518 -0.4336 -0.0847
   12MOL   C395 6577   7.886   2.798   4.424  0.1214  0.9181 -0.1750
   12MOL   C396 6578   7.962   2.930   4.452  0.4130  0.5731  0.6160
   12MOL   C397 6579   7.872   3.049   4.423  0.3696  0.6310  0.1598
   12MOL   C398 6580   7.938   3.189   4.444  0.0224 -0.1731 -0.3043
   12MOL   O399 6581   7.910   3.237   4.574  0.5789 -0.6004  0.5689
   12MOL   C400 6582   7.959   3.348   4.618 -0.2019 -0.6033 -0.4075
   12MOL   O401 6583   8.039   3.411   4.557 -0.5200 -0.4184  0.5821
   12MOL   C402 6584   7.893   3.391   4.740  1.6602 -0.1208 -0.4957
   12MOL   C403 6585   7.775   3.322   4.786  0.8607 -0.4864 -0.5684
   12MOL   C404 6586   7.705   3.375   4.898 -0.2644 -0.2370 -0.3320
   12MOL   C405 6587   7.762   3.487   4.965  0.6561  0.0401 -0.8926
   12MOL   C406 6588   7.691   3.556   5.079  0.2314  0.1903 -0.4270
   12MOL   O407 6589   7.739   3.651   5.145 -0.2583 -0.5500  0.8621
   12MOL   C408 6590   7.885   3.546   4.918 -0.2460  0.0572 -0.0644
   12MOL   C409 6591   7.943   3.506   4.799  0.0698  0.0866  0.8212
   12MOL   H410 6592   7.813   2.776   4.503 -1.0372  0.3509 -1.3814
   12MOL   H411 6593   7.950   2.712   4.443  0.8531  1.6421  0.6715
   12MOL   H412 6594   8.050   2.924   4.388  0.1256 -0.4586  0.2999
   12MOL   H413 6595   7.991   2.939   4.557  0.3506  2.0990  0.5087
   12MOL   H414 6596   7.851   3.053   4.316 -2.1215 -2.0509  0.4854
   12MOL   H415 6597   7.779   3.037   4.479  1.3486 -2.1277  1.2857
   12MOL   H416 6598   8.046   3.187   4.427 -0.2822 -1.8256 -2.2168
   12MOL   H417 6599   7.887   3.250   4.369 -0.7905 -1.8727 -1.1564
   12MOL   H418 6600   7.738   3.234   4.736  2.3754 -2.1559  1.1858
   12MOL   H419 6601   7.621   3.321   4.938 -0.6371 -0.5242 -1.4960
   12MOL   H420 6602   7.928   3.632   4.967 -2.4444  1.2278 -0.1280
   12MOL   H421 6603   8.028   3.560   4.760 -0.0797  0.5016  1.0657
   12MOL   O422 6604   7.565   3.521   5.097  0.4278 -0.3167  0.4404
   12MOL   C423 6605   7.490   3.583   5.202 -0.6707 -0.2223 -0.2707
   12MOL   C424 6606   7.360   3.506   5.222 -0.1249 -0.0519 -0.3688
   12MOL   C425 6607   7.261   3.580   5.318 -0.5584 -0.3844 -0.1337
   12MOL   C426 6608   7.132   3.503   5.339  0.6694 -0.0793  0.6916
   12MOL   O427 6609   7.148   3.379   5.407 -0.0024 -0.1609  0.3859
   12MOL   C428 6610   7.126   3.365   5.533 -0.1617 -0.7205  0.0144
   12MOL   O429 6611   7.079   3.459   5.600 -0.0769 -0.0492  0.2782
   12MOL   C430 6612   7.158   3.231   5.581 -0.2550 -0.4924 -0.2139
   12MOL   C431 6613   7.207   3.129   5.498  0.0550  0.7414 -0.3301
   12MOL   C432 6614   7.234   3.002   5.551  0.3411  0.5175  0.1021
   12MOL   C433 6615   7.227   2.976   5.690  0.0904 -0.2815  0.1209
   12MOL   C434 6616   7.263   2.842   5.731 -0.5742  0.2096 -0.2491
   12MOL   O435 6617   7.291   2.757   5.649 -0.3799 -0.2281  0.1216
   12MOL   C436 6618   7.188   3.083   5.779  0.1792 -0.1828  0.0174
   12MOL   C437 6619   7.151   3.210   5.723 -0.2433  0.3599  0.3778
   12MOL   H438 6620   7.546   3.590   5.296 -1.4953 -2.0098  0.3674
   12MOL   H439 6621   7.481   3.679   5.152 -1.1391  0.0847  0.3945
   12MOL   H440 6622   7.369   3.404   5.257  3.4523  0.5209  0.6346
   12MOL   H441 6623   7.306   3.499   5.128  0.5043 -1.5270 -0.6281
   12MOL   H442 6624   7.312   3.612   5.409 -1.7967 -0.2873  0.5271
   12MOL   H443 6625   7.235   3.672   5.265 -2.3906 -0.8621 -0.0952
   12MOL   H444 6626   7.059   3.560   5.396 -0.9503 -0.8223 -0.6095
   12MOL   H445 6627   7.084   3.492   5.241 -0.5153 -0.3315  1.2916
   12MOL   H446 6628   7.214   3.143   5.391  0.5110 -0.1619 -0.4286
   12MOL   H447 6629   7.271   2.924   5.485  1.3236  0.7403  0.3818
   12MOL   H448 6630   7.168   3.071   5.884  1.5922  0.6216  0.3837
   12MOL   H449 6631   7.120   3.286   5.793 -0.1542  0.1895  0.6060
   12MOL   O450 6632   7.290   2.826   5.863 -0.0393  0.6866 -0.3730
   12MOL   C451 6633   7.334   2.696   5.908  0.0404  0.0924  0.0761
   12MOL   C452 6634   7.459   2.707   6.000  0.4277 -0.1130  0.6783
   12MOL   C453 6635   7.575   2.765   5.916  0.0106  0.0706  0.2394
   12MOL   C454 6636   7.702   2.802   5.995  0.1739 -0.0041  0.4452
   12MOL   O455 6637   7.673   2.922   6.061  0.4760  0.5130  0.8600
   12MOL   C456 6638   7.692   2.944   6.187 -0.1945 -0.5093 -0.2642
   12MOL   O457 6639   7.749   2.865   6.261 -1.1081 -0.2940  0.4543
   12MOL   C458 6640   7.626   3.071   6.235  0.1680 -0.0461  0.1524
   12MOL   C459 6641   7.494   3.100   6.194  0.1153  0.0070 -0.5474
   12MOL   C460 6642   7.431   3.217   6.237  0.0627  0.5258  0.8591
   12MOL   C461 6643   7.495   3.305   6.322 -0.5002 -0.7768 -0.4396
   12MOL   C462 6644   7.428   3.431   6.366  0.2268 -0.3615  0.3230
   12MOL   O463 6645   7.320   3.469   6.323  0.5185 -0.3056  0.0722
   12MOL   C464 6646   7.624   3.271   6.380  0.0004  0.6845  0.1859
   12MOL   C465 6647   7.685   3.149   6.337 -0.0079  0.5377  0.0808
   12MOL   H466 6648   7.254   2.651   5.966  0.9135  0.4782  1.6271
   12MOL   H467 6649   7.368   2.631   5.827 -3.1981 -1.9353  0.2686
   12MOL   H468 6650   7.491   2.624   6.062 -0.5928 -0.5409  0.6395
   12MOL   H469 6651   7.432   2.785   6.072  0.9730 -0.7106  1.5345
   12MOL   H470 6652   7.602   2.684   5.849  2.4698  2.0964 -1.3154
   12MOL   H471 6653   7.542   2.855   5.864 -0.4062 -1.3678 -2.0538
   12MOL   H472 6654   7.719   2.719   6.063 -0.3471 -0.0503  0.5240
   12MOL   H473 6655   7.792   2.828   5.939 -0.5730  1.2280 -0.2168
   12MOL   H474 6656   7.439   3.039   6.124 -0.1350  1.5275 -1.7026
   12MOL   H475 6657   7.333   3.242   6.199  1.1443  1.3520 -1.5217
   12MOL   H476 6658   7.670   3.342   6.447  1.0319  1.2719 -1.1169
   12MOL   H477 6659   7.779   3.112   6.374 -0.1548 -1.5701 -1.5217
   12MOL   O478 6660   7.519   3.511   6.431 -0.4121  0.6790  0.1210
   12MOL   C479 6661   7.477   3.639   6.470  0.2014  0.6504 -0.2523
   12MOL   C480 6662   7.408   3.634   6.613 -0.3037 -0.2964 -0.1628
   12MOL   C481 6663   7.505   3.600   6.722 -0.0581 -0.0117 -0.0965
   12MOL   C482 6664   7.632   3.694   6.726 -0.2442 -0.3130  0.1552
   12MOL   O483 6665   7.584   3.833   6.718 -0.4913 -0.3516 -0.0582
   12MOL   C484 6666   7.637   3.912   6.626 -0.9823 -0.1508  0.1266
   12MOL   O485 6667   7.709   3.879   6.535  0.1324  0.4154 -0.1626
   12MOL   C486 6668   7.598   4.051   6.659 -0.0606 -0.0415  0.4207
   12MOL   C487 6669   7.615   4.154   6.560  0.3036 -0.1359 -0.6299
   12MOL   C488 6670   7.583   4.287   6.587 -0.3053 -0.0373 -0.2915
   12MOL   C489 6671   7.544   4.323   6.715 -0.0825  0.3154  0.5954
   12MOL   C490 6672   7.503   4.461   6.740  0.5292 -0.3970 -0.2719
   12MOL   O491 6673   7.506   4.544   6.647 -0.0992 -0.3945 -0.4633
   12MOL   C492 6674   7.534   4.225   6.810  0.3124  0.4417 -0.6303
   12MOL   C493 6675   7.549   4.089   6.779 -0.0293  0.8000  0.4073
   12MOL   H494 6676   7.552   3.715   6.450 -0.2726  1.3642  0.6558
   12MOL   H495 6677   7.396   3.676   6.407 -1.8400 -1.5624  0.9771
   12MOL   H496 6678   7.337   3.552   6.612 -1.3024  0.4917  2.2933
   12MOL   H497 6679   7.360   3.729   6.637 -1.3593 -0.8024 -0.2651
   12MOL   H498 6680   7.460   3.584   6.820 -0.8379  0.7113 -0.3385
   12MOL   H499 6681   7.556   3.507   6.696  0.0716  0.3030 -0.9776
   12MOL   H500 6682   7.678   3.675   6.823  1.5533 -1.0807 -0.8253
   12MOL   H501 6683   7.706   3.667   6.651  0.4363  1.5029  0.1392
   12MOL   H502 6684   7.648   4.132   6.459 -1.9494 -1.6958 -1.0547
   12MOL   H503 6685   7.590   4.355   6.503  0.7491 -0.1951 -0.3410
   12MOL   H504 6686   7.502   4.254   6.909 -1.5405  1.6615 -1.5501
   12MOL   H505 6687   7.541   4.019   6.860  1.2763 -0.7061 -0.7288
   12MOL   O506 6688   7.446   4.486   6.860 -0.1350 -0.0502 -0.0815
   12MOL   C507 6689   7.377   4.606   6.887  0.3688  0.0455 -0.6085
   12MOL   C508 6690   7.360   4.659   7.029 -0.6432  0.2240 -0.0813
   12MOL   C509 6691   7.287   4.571   7.127 -0.0313  0.3530 -0.4043
   12MOL   C510 6692   7.284   4.626   7.277 -0.1204  0.3182 -0.3233
   12MOL   O511 6693   7.403   4.577   7.348 -0.1058  0.4575  0.6934
   12MOL   C512 6694   7.399   4.473   7.430 -0.3282 -0.5412 -0.1653
   12MOL   O513 6695   7.292   4.425   7.464 -0.3899  0.5178  0.3811
   12MOL   C514 6696   7.532   4.428   7.481  0.9348  0.5701  0.4064
   12MOL   C515 6697   7.535   4.298   7.542  0.5314 -0.3539  0.6275
   12MOL   C516 6698   7.660   4.244   7.584  0.2261  0.2218 -0.4635
   12MOL   C517 6699   7.785   4.313   7.566  0.0733  0.0155  0.2498
   12MOL   C518 6700   7.922   4.258   7.594  0.5479 -0.3050 -0.5376
   12MOL   O519 6701   7.937   4.177   7.682 -0.2851  0.4437 -0.1402
   12MOL   C520 6702   7.776   4.443   7.509  0.6015 -0.2930  0.2592
   12MOL   C521 6703   7.654   4.497   7.462  0.5806  0.8750 -0.0284
   12MOL   H522 6704   7.426   4.695   6.847 -1.2716  1.2804  0.0299
   12MOL   H523 6705   7.279   4.611   6.839 -0.7464 -1.8910  1.4173
   12MOL   H524 6706   7.327   4.763   7.031 -0.2364  0.3229  1.5092
   12MOL   H525 6707   7.459   4.661   7.074  0.0626 -1.3634 -1.5048
   12MOL   H526 6708   7.184   4.552   7.097  0.0458 -1.5650  0.4533
   12MOL   H527 6709   7.335   4.474   7.121  1.5463  1.1164 -0.5178
   12MOL   H528 6710   7.289   4.735   7.272  3.0554  0.2466  0.1303
   12MOL   H529 6711   7.188   4.608   7.324  0.6272 -0.9235  0.7765
   12MOL   H530 6712   7.446   4.248   7.575  0.4266  0.2017  1.2119
   12MOL   H531 6713   7.663   4.148   7.634 -1.4469  0.0194 -0.7408
   12MOL   H532 6714   7.868   4.498   7.494  0.5864 -0.0510  1.0387
   12MOL   H533 6715   7.659   4.588   7.403 -0.0098  0.0073 -1.4203
   12MOL   O534 6716   8.024   4.298   7.519 -0.0061  0.1998  0.1099
   12MOL   C535 6717   0.051   4.240   7.540  0.2263  0.0544  0.1510
   12MOL   C536 6718   0.167   4.311   7.468 -0.2884 -0.3167 -0.5449
   12MOL   C537 6719   0.304   4.249   7.490  0.9354 -0.4611 -0.4213
   12MOL   C538 6720   0.422   4.332   7.444  0.0983 -0.3153 -0.3030
   12MOL   O539 6721   0.429   4.447   7.520  0.6709 -0.1882 -0.1695
   12MOL   C540 6722   0.536   4.527   7.542  0.3204  0.5817 -0.2266
   12MOL   O541 6723   0.648   4.511   7.491 -0.1123 -0.2214  0.2495
   12MOL   C542 6724   0.497   4.639   7.628 -0.1531  0.3812 -0.7759
   12MOL   C543 6725   0.592   4.737   7.646 -0.5342 -0.0391 -0.3996
   12MOL   C544 6726   0.563   4.840   7.737  0.2464 -0.0344 -0.1471
   12MOL   C545 6727   0.447   4.838   7.827 -0.2637 -0.4059  0.0718
   12MOL   C546 6728   0.422   4.949   7.919  0.5348 -0.4069 -0.1944
   12MOL   O547 6729   0.508   5.000   7.986 -0.2354  0.2052 -0.2933
   12MOL   C548 6730   0.350   4.740   7.805  0.1858  0.3115 -0.4305
   12MOL   C549 6731   0.374   4.641   7.702 -0.3700  0.1175 -0.3847
   12MOL   H550 6732   0.066   4.232   7.647  1.5660  0.1264 -0.0219
   12MOL   H551 6733   0.062   4.143   7.492 -0.9468  0.2506 -0.5350
   12MOL   H552 6734   0.165   4.417   7.496  0.2442 -0.4080 -0.1641
   12MOL   H553 6735   0.145   4.327   7.363  0.8695 -0.0664 -0.7523
   12MOL   H554 6736   0.307   4.219   7.594 -3.3193  1.7479  0.4587
   12MOL   H555 6737   0.303   4.150   7.446  0.5130 -0.2809 -0.8225
   12MOL   H556 6738   0.510   4.268   7.444 -0.0616 -0.5665 -1.8822
   12MOL   H557 6739   0.407   4.368   7.342 -1.5078  0.4640  0.1911
   12MOL   H558 6740   0.682   4.732   7.586  0.6324 -0.4425  1.3145
   12MOL   H559 6741   0.640   4.912   7.762 -0.6753  1.2704 -1.0074
   12MOL   H560 6742   0.263   4.723   7.867  1.8248 -2.1269  1.2786
   12MOL   H561 6743   0.305   4.560   7.685 -0.5000  0.0031  0.6510
   12MOL   H562 6744   0.315   4.968   7.920  0.8544  1.5938 -0.1788
   13MOL     O1 6745   6.018   4.826   1.354  0.5414  0.1982  0.3883
   13MOL     C2 6746   5.953   4.933   1.296  0.5044  0.1020 -0.6530
   13MOL     C3 6747   5.959   5.055   1.383 -0.3662  0.9943 -0.3369
   13MOL     C4 6748   5.889   5.178   1.325  0.2004  0.0659  0.0022
   13MOL     C5 6749   5.924   5.310   1.399  1.1606  0.4978 -0.0043
   13MOL     O6 6750   5.841   5.414   1.355 -0.6068 -0.3064  0.2943
   13MOL     C7 6751   5.760   5.486   1.432  0.0809  0.8701  0.6095
   13MOL     O8 6752   5.751   5.476   1.552  0.4423  0.1277  0.0310
   13MOL     C9 6753   5.668   5.571   1.351 -0.7232  0.2580  0.1672
   13MOL    C10 6754   5.577   5.659   1.420  0.7091 -0.2992 -0.6916
   13MOL    C11 6755   5.496   5.752   1.356  0.3669  0.7032  0.2590
   13MOL    C12 6756   5.496   5.760   1.218  0.1750 -0.4482 -0.2523
   13MOL    C13 6757   5.413   5.863   1.142  0.2717 -0.0605  0.5851
   13MOL    O14 6758   5.420   5.871   1.020  0.1633  0.5287  0.6711
   13MOL    C15 6759   5.589   5.682   1.149  0.5012 -0.6754  0.5210
   13MOL    C16 6760   5.675   5.587   1.210 -0.2642 -1.3910  0.3011
   13MOL    H17 6761   5.993   4.948   1.195  0.6261  1.9068 -0.3463
   13MOL    H18 6762   5.852   4.894   1.277  0.7445  0.5479 -3.0649
   13MOL    H19 6763   6.066   5.077   1.387 -0.1254 -0.1815  0.0673
   13MOL    H20 6764   5.921   5.033   1.483 -0.0406 -2.1468 -0.8411
   13MOL    H21 6765   5.920   5.187   1.221  0.7783 -0.2047  0.1516
   13MOL    H22 6766   5.782   5.156   1.323  0.5621 -1.6774 -1.5629
   13MOL    H23 6767   5.897   5.301   1.504  3.1334 -1.0134  0.3906
   13MOL    H24 6768   6.031   5.333   1.392  1.5431 -1.0349  0.5860
   13MOL    H25 6769   5.576   5.655   1.528 -0.3362 -0.4316 -0.6920
   13MOL    H26 6770   5.433   5.812   1.420  0.0406 -0.7272  1.2847
   13MOL    H27 6771   5.596   5.698   1.042  1.8437 -0.8403  0.5765
   13MOL    H28 6772   5.744   5.534   1.146  0.4476  0.5861 -0.5985
   13MOL    H29 6773   6.068   4.782   1.287  1.5455 -0.9099  1.8180
   13MOL    O30 6774   5.319   5.928   1.212 -0.4894 -0.2548  0.1706
   13MOL    C31 6775   5.226   6.014   1.152  0.8712 -0.6004  0.0945
   13MOL    C32 6776   5.264   6.162   1.138 -0.1873  0.0155 -0.1680
   13MOL    C33 6777   5.145   6.251   1.113  0.3434  0.6742 -0.0391
   13MOL    C34 6778   5.068   6.223   0.974 -0.1408  0.0879 -0.0134
   13MOL    O35 6779   4.941   6.286   0.967  0.4158  0.0738  0.3032
   13MOL    C36 6780   4.907   6.376   0.870  0.0503 -0.8537 -0.1926
   13MOL    O37 6781   4.994   6.431   0.800 -0.2559 -0.7920 -0.6234
   13MOL    C38 6782   4.762   6.402   0.854  0.0202 -0.0318 -0.2175
   13MOL    C39 6783   4.714   6.480   0.751 -0.1372  0.2642  0.0764
   13MOL    C40 6784   4.579   6.504   0.739  0.1585 -0.9434 -0.8912
   13MOL    C41 6785   4.485   6.467   0.835 -0.9170 -1.2973 -0.4632
   13MOL    C42 6786   4.339   6.487   0.819  0.1645 -0.6407  0.0104
   13MOL    O43 6787   4.289   6.520   0.712 -0.1356  0.1597 -0.0037
   13MOL    C44 6788   4.533   6.393   0.945 -0.4248 -0.4892  0.7434
   13MOL    C45 6789   4.668   6.356   0.948  0.3649 -0.5792 -0.2145
   13MOL    H46 6790   5.205   5.962   1.058 -0.3008  0.0973 -0.0373
   13MOL    H47 6791   5.130   6.010   1.204  0.7660  1.1520  0.0588
   13MOL    H48 6792   5.345   6.179   1.067  0.6653 -2.3276  0.1984
   13MOL    H49 6793   5.301   6.187   1.238 -1.0862 -0.5578  0.3118
   13MOL    H50 6794   5.080   6.224   1.196  1.8065 -2.0503  0.2782
   13MOL    H51 6795   5.167   6.357   1.128 -0.8093  0.5086  3.0884
   13MOL    H52 6796   5.129   6.255   0.889 -0.4557  1.1359  0.1527
   13MOL    H53 6797   5.045   6.117   0.967 -0.0485 -0.1297  2.6665
   13MOL    H54 6798   4.787   6.520   0.682 -1.6587 -0.2941 -1.8938
   13MOL    H55 6799   4.540   6.572   0.664  0.7964 -0.1602 -0.5203
   13MOL    H56 6800   4.462   6.335   1.002 -2.1389  1.8546  1.0798
   13MOL    H57 6801   4.703   6.300   1.033 -0.4074  1.0460  1.1883
   13MOL    O58 6802   4.273   6.474   0.934  0.4123 -0.6339  0.1107
   13MOL    C59 6803   4.132   6.490   0.939 -0.4119 -0.5099  0.6392
   13MOL    C60 6804   4.130   6.570   1.072 -0.2561  0.2810  0.0150
   13MOL    C61 6805   3.992   6.580   1.135 -0.2350 -0.4684 -0.1935
   13MOL    C62 6806   3.933   6.451   1.192 -0.9903 -0.2191  0.4035
   13MOL    O63 6807   3.930   6.345   1.102 -0.3600  0.2452  0.3183
   13MOL    C64 6808   3.899   6.219   1.152  0.1548 -0.3267  0.4278
   13MOL    O65 6809   3.872   6.206   1.268  0.1367  0.0052 -0.1722
   13MOL    C66 6810   3.888   6.113   1.050 -0.3212  0.5738 -0.4092
   13MOL    C67 6811   3.874   6.141   0.913 -0.1087 -0.4183 -0.0876
   13MOL    C68 6812   3.858   6.037   0.822  0.5199  0.6421  0.7728
   13MOL    C69 6813   3.853   5.900   0.872 -0.0699 -0.7941  0.4653
   13MOL    C70 6814   3.837   5.790   0.772  0.4909  0.2857  0.8541
   13MOL    O71 6815   3.793   5.808   0.660  0.3323 -0.0333 -0.4414
   13MOL    C72 6816   3.884   5.876   1.005 -0.6830 -0.0143  0.0318
   13MOL    C73 6817   3.897   5.984   1.093  0.3629  0.2622 -0.2866
   13MOL    H74 6818   4.094   6.540   0.850  0.7577 -0.6258  0.0573
   13MOL    H75 6819   4.087   6.392   0.953 -2.8449  0.8702  2.8169
   13MOL    H76 6820   4.182   6.666   1.072 -1.8948  1.1812 -0.3410
   13MOL    H77 6821   4.178   6.501   1.142 -0.7107 -0.7474 -0.6840
   13MOL    H78 6822   4.007   6.663   1.205 -2.9021  0.4675 -0.6621
   13MOL    H79 6823   3.927   6.620   1.057  1.7458  0.6118 -1.3320
   13MOL    H80 6824   4.012   6.405   1.252  1.1929 -0.7907 -2.7540
   13MOL    H81 6825   3.840   6.469   1.245 -0.6149 -1.7828  1.6286
   13MOL    H82 6826   3.885   6.241   0.874  1.2122 -0.1060  1.0091
   13MOL    H83 6827   3.849   6.066   0.718  0.5750 -1.6077  0.1270
   13MOL    H84 6828   3.887   5.770   1.026 -0.7595  0.0292  0.2637
   13MOL    H85 6829   3.907   5.960   1.198  0.3578 -0.4331 -0.4456
   13MOL    O86 6830   3.870   5.668   0.817 -0.2336 -0.2131 -0.4995
   13MOL    C87 6831   3.826   5.557   0.742 -0.2791  0.6101  0.6420
   13MOL    C88 6832   3.903   5.433   0.801  0.1533  0.0950  1.0858
   13MOL    C89 6833   4.058   5.426   0.773  0.1802  0.2373  0.1181
   13MOL    C90 6834   4.130   5.316   0.856 -0.1461 -0.5481  1.1490
   13MOL    O91 6835   4.138   5.351   0.990 -0.5560  0.4213  0.0010
   13MOL    C92 6836   4.143   5.253   1.079  0.7440 -0.5512 -0.4100
   13MOL    O93 6837   4.179   5.144   1.045 -0.1309 -0.2319 -0.8162
   13MOL    C94 6838   4.107   5.296   1.213 -0.6657 -0.5355 -0.7345
   13MOL    C95 6839   4.044   5.420   1.234 -0.3181  0.2074 -0.2856
   13MOL    C96 6840   4.010   5.454   1.370  0.1478 -0.3012  0.4463
   13MOL    C97 6841   4.047   5.382   1.486  0.9425  0.1396  0.6610
   13MOL    C98 6842   4.018   5.444   1.621  0.1436  0.7125 -0.3749
   13MOL    O99 6843   3.957   5.549   1.637  0.1908  0.5159  0.3306
   13MOL   C100 6844   4.116   5.263   1.464  0.0812 -0.4083  0.0074
   13MOL   C101 6845   4.138   5.224   1.331  0.0932 -0.4883 -0.4353
   13MOL   H102 6846   3.719   5.544   0.761 -0.9220  2.7940 -1.2519
   13MOL   H103 6847   3.842   5.561   0.634  1.8285 -0.8660  0.8656
   13MOL   H104 6848   3.850   5.345   0.764  1.7151 -0.7126  0.7143
   13MOL   H105 6849   3.886   5.433   0.909  3.4080  1.2597  1.6729
   13MOL   H106 6850   4.092   5.407   0.671 -0.5952 -0.4356 -0.0145
   13MOL   H107 6851   4.102   5.521   0.807  2.4526 -0.4853 -0.6897
   13MOL   H108 6852   4.079   5.221   0.841  0.7685 -0.8678  0.0524
   13MOL   H109 6853   4.231   5.304   0.817  0.0218  1.3089  0.9790
   13MOL   H110 6854   4.024   5.481   1.147  1.7241  0.3174 -0.6973
   13MOL   H111 6855   3.960   5.550   1.370 -2.6467 -1.7049 -1.0668
   13MOL   H112 6856   4.147   5.203   1.548  2.2633  0.7615  0.0549
   13MOL   H113 6857   4.205   5.140   1.321  2.2227  1.2707 -1.4051
   13MOL   O114 6858   4.070   5.376   1.714  0.0662 -0.6069  0.3941
   13MOL   C115 6859   4.087   5.433   1.846  0.4074 -0.5685  0.6546
   13MOL   C116 6860   4.168   5.338   1.939  0.6248 -0.1540  0.4402
   13MOL   C117 6861   4.308   5.307   1.888  0.8270 -0.2756  0.1654
   13MOL   C118 6862   4.412   5.424   1.893 -0.0308 -0.5177  0.7803
   13MOL   O119 6863   4.375   5.527   1.806 -0.2807 -0.4939 -0.0626
   13MOL   C120 6864   4.466   5.625   1.785 -1.0220 -0.2634  0.3684
   13MOL   O121 6865   4.583   5.609   1.812 -0.4744 -0.0430  0.0089
   13MOL   C122 6866   4.412   5.739   1.700 -0.3554 -0.5513  0.0969
   13MOL   C123 6867   4.499   5.829   1.640 -0.4025 -0.0820 -0.0940
   13MOL   C124 6868   4.454   5.928   1.549  0.1256  0.8336 -0.1380
   13MOL   C125 6869   4.318   5.933   1.518 -1.3905 -0.1065  0.3400
   13MOL   C126 6870   4.264   6.027   1.408  0.4263  0.0318  0.0265
   13MOL   O127 6871   4.143   6.028   1.376 -0.6457  0.0885  0.3488
   13MOL   C128 6872   4.223   5.849   1.580  0.1682 -0.2944 -0.3005
   13MOL   C129 6873   4.273   5.750   1.670 -0.2899 -0.3390  0.3689
   13MOL   H130 6874   4.124   5.535   1.845  0.0317 -0.4312  0.0404
   13MOL   H131 6875   3.993   5.461   1.894  1.1737 -0.2554  1.9741
   13MOL   H132 6876   4.118   5.242   1.949  1.2075 -0.5303 -0.2056
   13MOL   H133 6877   4.178   5.376   2.041  1.3802 -0.8464  0.6275
   13MOL   H134 6878   4.340   5.235   1.962 -0.6767 -1.0076  0.1133
   13MOL   H135 6879   4.315   5.266   1.787  1.7239  1.6308 -0.5894
   13MOL   H136 6880   4.431   5.467   1.991 -0.0023 -0.6239  0.8213
   13MOL   H137 6881   4.509   5.383   1.864 -1.8616 -4.0254 -0.8145
   13MOL   H138 6882   4.603   5.819   1.667 -0.4704  0.5653  0.4204
   13MOL   H139 6883   4.525   5.985   1.491 -0.9209  0.4554 -1.8158
   13MOL   H140 6884   4.121   5.850   1.542  0.1064 -0.2159 -0.1301
   13MOL   H141 6885   4.205   5.672   1.702  0.6821 -2.0678 -1.6714
   13MOL   O142 6886   4.363   6.101   1.350  0.5063 -0.4075  0.1585
   13MOL   C143 6887   4.336   6.205   1.266 -0.1160 -0.6171  0.3885
   13MOL   C144 6888   4.410   6.332   1.305 -0.0221 -0.0332  0.7948
   13MOL   C145 6889   4.561   6.319   1.322 -0.2269  0.1677 -0.4403
   13MOL   C146 6890   4.629   6.456   1.324 -0.0757 -0.0629 -0.5017
   13MOL   O147 6891   4.756   6.440   1.372 -0.4840  0.3470  0.0506
   13MOL   C148 6892   4.867   6.460   1.311 -0.6679  0.1331 -0.2209
   13MOL   O149 6893   4.872   6.500   1.193 -0.6445 -0.4981 -0.3470
   13MOL   C150 6894   4.980   6.422   1.397 -0.2752 -0.2575  0.0347
   13MOL   C151 6895   5.105   6.462   1.354 -0.0563  0.0220 -0.0612
   13MOL   C152 6896   5.228   6.415   1.415  0.8294  0.3990  0.5295
   13MOL   C153 6897   5.216   6.366   1.545  0.2190  0.0383 -0.1358
   13MOL   C154 6898   5.337   6.344   1.625  0.3302  0.3317  0.1584
   13MOL   O155 6899   5.450   6.346   1.588  0.1774  0.5196  0.6048
   13MOL   C156 6900   5.081   6.335   1.594 -0.1282 -0.8467  0.2218
   13MOL   C157 6901   4.963   6.362   1.522  0.1286  1.1889  0.1360
   13MOL   H158 6902   4.363   6.181   1.163 -0.3343  1.7726 -0.2452
   13MOL   H159 6903   4.228   6.222   1.258  0.2199  0.8192 -1.4008
   13MOL   H160 6904   4.366   6.374   1.395  0.3312 -0.4378  1.1599
   13MOL   H161 6905   4.391   6.399   1.222  1.1541  0.6164  1.0409
   13MOL   H162 6906   4.577   6.275   1.421 -0.1778  1.5564  0.1859
   13MOL   H163 6907   4.615   6.262   1.246  0.2154  1.2188 -0.9179
   13MOL   H164 6908   4.639   6.488   1.220 -1.0378  0.4074 -0.4481
   13MOL   H165 6909   4.584   6.535   1.384 -1.1854  1.3951 -3.1509
   13MOL   H166 6910   5.109   6.522   1.264  0.2603  1.0745  0.6437
   13MOL   H167 6911   5.322   6.449   1.374  0.9607 -0.1876  0.3453
   13MOL   H168 6912   5.060   6.309   1.697 -2.8621  2.2133  0.5413
   13MOL   H169 6913   4.865   6.326   1.551  0.4627 -1.9224 -2.2520
   13MOL   O170 6914   5.302   6.312   1.753 -0.4196 -0.0587 -0.7095
   13MOL   C171 6915   5.405   6.289   1.854  0.5340  0.3897  0.4381
   13MOL   C172 6916   5.403   6.143   1.901 -0.1501  0.0513  0.4364
   13MOL   C173 6917   5.289   6.121   2.003 -0.0978  0.0524 -0.0653
   13MOL   C174 6918   5.300   6.178   2.145  0.4594 -0.0355 -0.1477
   13MOL   O175 6919   5.269   6.319   2.166 -0.0897  0.5058  0.0897
   13MOL   C176 6920   5.268   6.373   2.287  0.2973 -0.0818  0.6760
   13MOL   O177 6921   5.263   6.302   2.386 -0.3104  0.4282 -0.6194
   13MOL   C178 6922   5.283   6.519   2.292  0.2707  0.5729 -0.2936
   13MOL   C179 6923   5.327   6.595   2.183  0.0793  0.1600  0.3240
   13MOL   C180 6924   5.338   6.732   2.198 -0.4795 -0.0593  0.2490
   13MOL   C181 6925   5.298   6.803   2.320  0.1543 -0.1359  0.4642
   13MOL   C182 6926   5.306   6.955   2.323 -0.9480  0.2789 -0.1469
   13MOL   O183 6927   5.392   7.021   2.258 -0.5626 -0.0679 -1.5926
   13MOL   C184 6928   5.240   6.726   2.421  0.5859  0.6808  0.0375
   13MOL   C185 6929   5.242   6.583   2.416  1.6469  0.2920  0.2900
   13MOL   H186 6930   5.498   6.327   1.811  0.6616  0.1236  0.4789
   13MOL   H187 6931   5.384   6.355   1.938 -1.0573  1.3678 -0.6991
   13MOL   H188 6932   5.493   6.121   1.958  0.7722  2.2541 -0.1293
   13MOL   H189 6933   5.399   6.078   1.814 -0.0438  1.1385 -0.3854
   13MOL   H190 6934   5.201   6.158   1.950  1.2239  2.3067 -0.7801
   13MOL   H191 6935   5.277   6.014   2.015 -0.1766  0.0433 -0.2219
   13MOL   H192 6936   5.221   6.125   2.199  1.4753 -0.0442  1.3607
   13MOL   H193 6937   5.392   6.146   2.194 -0.0790 -1.4030  0.0044
   13MOL   H194 6938   5.356   6.552   2.089 -1.2727  2.2497 -1.0847
   13MOL   H195 6939   5.383   6.790   2.118 -0.1626  0.1760  0.5956
   13MOL   H196 6940   5.206   6.778   2.509  0.7972  0.0597  0.4934
   13MOL   H197 6941   5.198   6.522   2.493  0.6582  2.2377  1.3159
   13MOL   O198 6942   5.212   7.015   2.412 -0.2527 -0.0496  0.4210
   13MOL   C199 6943   5.227   7.159   2.420  0.0551 -0.3212  0.0111
   13MOL   C200 6944   5.116   7.203   2.518  0.2426 -0.5749 -0.4907
   13MOL   C201 6945   4.977   7.178   2.451 -0.1693 -0.1013  0.4544
   13MOL   C202 6946   4.865   7.246   2.516  0.4363  0.0796 -0.1975
   13MOL   O203 6947   4.755   7.251   2.427  0.5029  0.4194 -0.3115
   13MOL   C204 6948   4.647   7.324   2.459  0.7186 -0.6293 -0.0782
   13MOL   O205 6949   4.641   7.398   2.562 -0.1467  0.0079 -0.2947
   13MOL   C206 6950   4.536   7.314   2.362 -0.3194 -0.4046  0.1019
   13MOL   C207 6951   4.431   7.406   2.364 -0.5485  0.0264 -0.1243
   13MOL   C208 6952   4.336   7.405   2.255 -0.3263  0.6509  0.9846
   13MOL   C209 6953   4.356   7.331   2.141  1.2114 -0.2518  0.4783
   13MOL   C210 6954   4.266   7.361   2.029  0.0754  0.0734  0.2792
   13MOL   O211 6955   4.180   7.450   2.027 -0.0099  0.3059  0.2125
   13MOL   C212 6956   4.462   7.231   2.136 -0.1029 -0.5074  0.0895
   13MOL   C213 6957   4.548   7.226   2.250  0.2854  0.8191  0.1336
   13MOL   H214 6958   5.324   7.188   2.461 -0.1103  0.4552 -0.1321
   13MOL   H215 6959   5.221   7.214   2.326 -0.1009 -0.4107 -0.0326
   13MOL   H216 6960   5.139   7.310   2.527 -2.3439 -0.2772  3.4311
   13MOL   H217 6961   5.116   7.165   2.620  1.1857  1.4759  0.3210
   13MOL   H218 6962   4.986   7.222   2.352  0.0124 -1.6402 -0.2260
   13MOL   H219 6963   4.965   7.071   2.433  0.4337 -0.1863  0.5543
   13MOL   H220 6964   4.831   7.196   2.606  0.0843  0.6713 -0.0013
   13MOL   H221 6965   4.900   7.347   2.539 -0.6004  0.1972  0.8996
   13MOL   H222 6966   4.426   7.479   2.443  2.0448 -0.9911  1.0324
   13MOL   H223 6967   4.260   7.482   2.257 -1.5121 -0.4860 -0.0445
   13MOL   H224 6968   4.484   7.173   2.048  1.5619  0.9300 -0.4722
   13MOL   H225 6969   4.639   7.169   2.238 -0.0807 -0.3196  2.4479
   13MOL   O226 6970   4.285   7.281   1.926  0.2908  0.1618  0.3342
   13MOL   C227 6971   4.196   7.274   1.812 -0.2764 -0.2964  0.3653
   13MOL   C228 6972   4.220   7.140   1.739 -0.1933 -0.5906  0.7627
   13MOL   C229 6973   4.368   7.105   1.727 -0.6069 -0.2262 -0.3836
   13MOL   C230 6974   4.388   6.969   1.664  0.7352  0.2319  0.2888
   13MOL   O231 6975   4.512   6.912   1.708 -0.2189 -0.2751  0.0373
   13MOL   C232 6976   4.546   6.798   1.653  0.6932  0.1344 -0.6284
   13MOL   O233 6977   4.469   6.726   1.594  0.4203 -0.9783  1.0409
   13MOL   C234 6978   4.682   6.751   1.686  0.5109 -0.2530  0.1538
   13MOL   C235 6979   4.780   6.847   1.729 -0.4142  0.7412 -0.3999
   13MOL   C236 6980   4.912   6.798   1.766  0.3895  0.2769 -0.9997
   13MOL   C237 6981   4.939   6.662   1.778 -0.6186 -0.9685  0.4768
   13MOL   C238 6982   5.080   6.614   1.811  0.0554  0.3473  0.4488
   13MOL   O239 6983   5.105   6.509   1.871 -0.3593  0.4568  0.1334
   13MOL   C240 6984   4.839   6.571   1.741 -0.1850  0.0799 -0.5587
   13MOL   C241 6985   4.711   6.614   1.690 -0.4889 -0.2412 -0.1846
   13MOL   H242 6986   4.090   7.271   1.836 -0.9712 -1.7275 -2.6633
   13MOL   H243 6987   4.218   7.360   1.748 -0.3005 -0.1312  0.5759
   13MOL   H244 6988   4.172   7.139   1.642  1.6227  1.8246 -0.2211
   13MOL   H245 6989   4.175   7.064   1.802 -3.8211  1.3369  0.6867
   13MOL   H246 6990   4.418   7.183   1.670 -1.1016  0.8241  0.5991
   13MOL   H247 6991   4.423   7.091   1.820 -2.4141 -1.4718  0.5448
   13MOL   H248 6992   4.297   6.912   1.682  1.4577 -1.5285 -1.5148
   13MOL   H249 6993   4.392   6.977   1.556 -1.5651  0.5242  0.2109
   13MOL   H250 6994   4.760   6.953   1.739  0.3113  0.9585 -1.2586
   13MOL   H251 6995   4.980   6.872   1.806 -0.9392 -0.1996  2.2898
   13MOL   H252 6996   4.862   6.466   1.730 -2.3538 -0.2676 -2.2737
   13MOL   H253 6997   4.635   6.542   1.664  0.1996 -2.1591  2.9196
   13MOL   O254 6998   5.172   6.690   1.767  0.7581 -0.0175 -0.6300
   13MOL   C255 6999   5.314   6.676   1.799 -0.3218 -0.7039  0.3098
   13MOL   C256 7000   5.397   6.758   1.697 -0.2400  0.2109  0.1149
   13MOL   C257 7001   5.365   6.703   1.553 -0.0174 -0.4601 -0.1562
   13MOL   C258 7002   5.422   6.791   1.444 -0.3376  0.1052  0.1682
   13MOL   O259 7003   5.436   6.721   1.322  0.0439 -0.0354 -0.0793
   13MOL   C260 7004   5.335   6.720   1.235 -0.2479  0.3486  0.2440
   13MOL   O261 7005   5.229   6.780   1.250 -0.0044 -0.5346  0.2913
   13MOL   C262 7006   5.360   6.623   1.124 -0.0434 -0.1380  0.0915
   13MOL   C263 7007   5.484   6.554   1.118 -0.2365 -0.8054  0.6951
   13MOL   C264 7008   5.513   6.461   1.007 -0.4446 -0.5371  0.1424
   13MOL   C265 7009   5.418   6.435   0.912  0.5398 -0.0820  0.3617
   13MOL   C266 7010   5.453   6.333   0.809  0.0482 -0.0709 -0.1816
   13MOL   O267 7011   5.565   6.268   0.813  0.3104 -0.5218  0.5584
   13MOL   C268 7012   5.301   6.503   0.917  0.5953 -0.5069  0.8677
   13MOL   C269 7013   5.264   6.587   1.022 -0.6383 -0.5292  0.7045
   13MOL   H270 7014   5.335   6.723   1.895  3.4042 -1.2766 -0.1519
   13MOL   H271 7015   5.339   6.571   1.793 -1.8413 -1.0695  0.0193
   13MOL   H272 7016   5.505   6.754   1.715 -0.2086 -1.0137 -0.3201
   13MOL   H273 7017   5.368   6.862   1.704  0.8655  0.7076 -2.1660
   13MOL   H274 7018   5.419   6.608   1.549  1.1933  0.0623  2.9777
   13MOL   H275 7019   5.257   6.693   1.548 -0.0494  0.0181 -0.4785
   13MOL   H276 7020   5.359   6.879   1.435 -0.5810  0.0432  1.1854
   13MOL   H277 7021   5.522   6.828   1.464  0.1610 -1.2949  0.3088
   13MOL   H278 7022   5.565   6.567   1.188  1.4029 -2.6466 -0.8153
   13MOL   H279 7023   5.615   6.424   1.006 -0.6092 -1.0161 -2.5372
   13MOL   H280 7024   5.223   6.475   0.847  1.3936 -1.0588  0.1829
   13MOL   H281 7025   5.167   6.633   1.017 -1.3464 -2.1290 -0.6552
   13MOL   O282 7026   5.350   6.301   0.718 -0.4109  0.3688 -0.4643
   13MOL   C283 7027   5.372   6.213   0.608 -0.6446 -0.9074  0.1782
   13MOL   C284 7028   5.279   6.093   0.613  0.4581  0.1502 -1.1022
   13MOL   C285 7029   5.324   5.995   0.722  0.3878  0.3286 -0.8681
   13MOL   C286 7030   5.227   5.875   0.744 -0.5110  0.5367  0.3108
   13MOL   O287 7031   5.193   5.810   0.617 -0.4765 -0.3013 -0.2859
   13MOL   C288 7032   5.064   5.772   0.593 -0.4827  0.7779  0.0482
   13MOL   O289 7033   4.963   5.786   0.670 -0.1061  0.5420 -0.0847
   13MOL   C290 7034   5.053   5.695   0.464  0.3755 -0.9704  0.3420
   13MOL   C291 7035   4.937   5.617   0.443  0.3359 -0.2108 -0.1659
   13MOL   C292 7036   4.924   5.541   0.326 -1.1031 -0.4009  0.0160
   13MOL   C293 7037   5.029   5.539   0.230 -0.0663  0.1199 -0.1630
   13MOL   C294 7038   5.010   5.466   0.098 -0.0334 -0.5019  0.1543
   13MOL   O295 7039   5.105   5.427   0.021  0.5396  0.5624  0.1901
   13MOL   C296 7040   5.148   5.612   0.254  0.0874 -0.9464 -0.5950
   13MOL   C297 7041   5.161   5.691   0.368  0.0608 -0.0248  0.2277
   13MOL   H298 7042   5.346   6.278   0.525 -1.2607  0.4314  1.3962
   13MOL   H299 7043   5.479   6.193   0.598 -0.4392  0.2266  0.0016
   13MOL   H300 7044   5.289   6.047   0.515  0.9938  0.4645 -1.2009
   13MOL   H301 7045   5.174   6.119   0.626  0.2793 -1.2075  0.2507
   13MOL   H302 7046   5.422   5.952   0.704  0.3164 -0.3522  0.3018
   13MOL   H303 7047   5.333   6.051   0.815 -2.2300  0.7898 -0.8458
   13MOL   H304 7048   5.271   5.799   0.809 -0.9570  0.3551  0.4017
   13MOL   H305 7049   5.136   5.913   0.790 -1.8336 -0.6931 -1.2510
   13MOL   H306 7050   4.848   5.618   0.504  2.2310  2.1740  2.6727
   13MOL   H307 7051   4.833   5.487   0.306  0.2188 -1.3988 -3.6911
   13MOL   H308 7052   5.226   5.617   0.179 -0.7283 -1.2497 -1.4842
   13MOL   H309 7053   5.247   5.756   0.373  0.8030 -1.1182  2.5369
   13MOL   O310 7054   4.877   5.451   0.078  0.0168  0.1502 -0.0398
   13MOL   C311 7055   4.846   5.379   8.057 -0.5208 -0.3570  0.6665
   13MOL   C312 7056   4.784   5.472   7.947  0.2468  0.0816  0.0215
   13MOL   C313 7057   4.661   5.557   8.001  0.2504 -0.3471 -0.1274
   13MOL   C314 7058   4.541   5.467   8.021  0.6392 -0.3802  0.1132
   13MOL   O315 7059   4.564   5.404   0.050  0.3654 -0.4889  0.0306
   13MOL   C316 7060   4.528   5.280   0.076  0.2101 -0.5597  1.4651
   13MOL   O317 7061   4.492   5.202   8.087 -0.0330  0.6391 -0.1764
   13MOL   C318 7062   4.541   5.246   0.215  0.0524  0.7570 -0.4292
   13MOL   C319 7063   4.530   5.108   0.254 -0.2939 -0.2601 -0.0553
   13MOL   C320 7064   4.538   5.077   0.392  0.5352 -0.4658  0.6479
   13MOL   C321 7065   4.531   5.174   0.495 -0.0981 -0.1062  0.3926
   13MOL   C322 7066   4.530   5.139   0.632 -0.1492  0.3881  0.7396
   13MOL   O323 7067   4.496   5.215   0.719 -0.4417  0.0130 -0.3564
   13MOL   C324 7068   4.540   5.310   0.451 -0.1864 -0.3360  0.3605
   13MOL   C325 7069   4.549   5.348   0.317  0.6161  0.2808 -0.5148
   13MOL   H326 7070   4.929   5.326   8.010 -1.2447  0.2463 -1.3244
   13MOL   H327 7071   4.787   5.295   8.094  1.4629 -1.4257  1.4937
   13MOL   H328 7072   4.752   5.408   7.864  1.3014  0.0795 -0.3945
   13MOL   H329 7073   4.862   5.536   7.905 -0.6968  1.3920  0.2364
   13MOL   H330 7074   4.683   5.606   8.096 -1.0623 -0.8643  0.4597
   13MOL   H331 7075   4.639   5.634   7.928  3.8157  0.4869 -0.4012
   13MOL   H332 7076   4.453   5.529   8.011  2.2949  2.0323  0.0308
   13MOL   H333 7077   4.543   5.385   7.950 -1.6703  2.0989 -2.9591
   13MOL   H334 7078   4.521   5.028   0.182 -0.7277 -0.1595 -0.1117
   13MOL   H335 7079   4.533   4.972   0.415 -1.0033 -0.7678 -1.0124
   13MOL   H336 7080   4.541   5.387   0.527 -0.9045 -1.9604  2.0501
   13MOL   H337 7081   4.552   5.451   0.285  2.3662 -0.0599 -1.5014
   13MOL   O338 7082   4.589   5.020   0.651  0.2203 -0.2080 -0.5321
   13MOL   C339 7083   4.605   4.971   0.788  0.0326 -0.0269  0.7767
   13MOL   C340 7084   4.743   5.011   0.837 -0.2877  0.1932 -0.2126
   13MOL   C341 7085   4.773   4.933   0.963  0.1889 -0.4819  0.3881
   13MOL   C342 7086   4.914   4.942   1.016  0.3070  0.6690 -0.3791
   13MOL   O343 7087   4.916   4.900   1.151  0.3031  0.0095 -0.6382
   13MOL   C344 7088   5.007   4.945   1.241  0.8428  0.2383  0.5940
   13MOL   O345 7089   5.086   5.032   1.210 -0.1557  0.4525  0.0684
   13MOL   C346 7090   4.991   4.883   1.371  0.0027 -0.0201 -0.8931
   13MOL   C347 7091   4.875   4.799   1.394 -0.1644 -0.8057 -0.0479
   13MOL   C348 7092   4.861   4.746   1.524  0.1411 -0.3322  0.1134
   13MOL   C349 7093   4.946   4.776   1.631  0.6457  0.4939 -1.0515
   13MOL   C350 7094   4.921   4.729   1.772 -0.9235 -0.3350 -0.0259
   13MOL   O351 7095   4.960   4.782   1.874 -0.1199 -0.3435 -0.2039
   13MOL   C352 7096   5.061   4.850   1.600 -0.2180  0.2206 -0.3627
   13MOL   C353 7097   5.081   4.906   1.477  0.1096 -0.6427  0.7531
   13MOL   H354 7098   4.527   5.009   0.854  1.0451  1.6922  1.0212
   13MOL   H355 7099   4.599   4.863   0.778  0.1012  0.1966 -2.0106
   13MOL   H356 7100   4.748   5.118   0.856 -0.7828  0.1814 -0.0200
   13MOL   H357 7101   4.825   4.979   0.772  0.4637 -3.2519  2.3419
   13MOL   H358 7102   4.708   4.956   1.048  1.1272 -0.5404  1.1219
   13MOL   H359 7103   4.749   4.828   0.947  2.4314 -0.6018 -2.4080
   13MOL   H360 7104   4.984   4.879   0.961 -0.2921 -0.1179 -0.2400
   13MOL   H361 7105   4.942   5.047   1.002  1.2260  0.4597 -0.1474
   13MOL   H362 7106   4.803   4.779   1.315  1.5836  1.7521 -2.3894
   13MOL   H363 7107   4.775   4.682   1.540  0.1457 -0.8284 -1.7274
   13MOL   H364 7108   5.122   4.887   1.682 -0.5087  3.4275 -1.5523
   13MOL   H365 7109   5.164   4.975   1.469  0.2226 -1.0107 -1.5410
   13MOL   O366 7110   4.850   4.615   1.770  0.7028 -0.2378  0.2199
   13MOL   C367 7111   4.799   4.570   1.893 -0.0035  0.3441 -0.4129
   13MOL   C368 7112   4.866   4.453   1.965  0.0693  0.6333  1.0344
   13MOL   C369 7113   4.832   4.435   2.114  0.3692 -0.5573 -0.1050
   13MOL   C370 7114   4.921   4.513   2.208  0.0754 -0.6285 -0.3829
   13MOL   O371 7115   4.889   4.649   2.215  0.5047 -0.1973 -0.8566
   13MOL   C372 7116   4.975   4.742   2.181  0.0885 -0.0775  0.0954
   13MOL   O373 7117   5.095   4.719   2.148  0.6331 -0.8862  0.2603
   13MOL   C374 7118   4.922   4.874   2.177 -0.0995 -0.9431  0.2695
   13MOL   C375 7119   5.006   4.983   2.137 -0.2302 -0.1617 -0.5401
   13MOL   C376 7120   4.948   5.110   2.117  0.4921  0.4229  0.4783
   13MOL   C377 7121   4.811   5.135   2.140  0.0571 -0.1851 -0.2742
   13MOL   C378 7122   4.754   5.274   2.123  0.6784 -0.1542 -0.1605
   13MOL   O379 7123   4.634   5.300   2.115 -0.0934 -0.2272 -0.1576
   13MOL   C380 7124   4.732   5.026   2.176  0.1183 -0.1933 -0.2460
   13MOL   C381 7125   4.784   4.896   2.197 -0.3456 -0.0691 -0.3756
   13MOL   H382 7126   4.791   4.649   1.967  0.3201  0.1794 -0.1969
   13MOL   H383 7127   4.692   4.555   1.882  0.1189 -0.9004 -0.0416
   13MOL   H384 7128   4.972   4.453   1.943 -0.1497 -0.9420 -0.1906
   13MOL   H385 7129   4.833   4.359   1.920 -0.1917  0.4784  1.5416
   13MOL   H386 7130   4.728   4.456   2.142  0.9096  1.4700  0.4667
   13MOL   H387 7131   4.847   4.331   2.142 -1.7742 -1.4035 -1.9847
   13MOL   H388 7132   4.892   4.490   2.311  2.2628  2.2449  0.9312
   13MOL   H389 7133   5.026   4.485   2.205  0.0419 -0.6610 -1.1454
   13MOL   H390 7134   5.113   4.972   2.123  0.2253  1.8629  1.1716
   13MOL   H391 7135   5.018   5.185   2.084  0.6951 -0.1217 -0.3561
   13MOL   H392 7136   4.629   5.053   2.190  0.4386  1.7249 -1.4529
   13MOL   H393 7137   4.717   4.819   2.232 -0.5520  0.5283  0.5616
   13MOL   O394 7138   4.847   5.360   2.102  0.5350  0.1129 -0.0543
   13MOL   C395 7139   4.815   5.495   2.073  0.1185 -0.2029 -0.1785
   13MOL   C396 7140   4.920   5.580   1.996 -0.2883  0.6397  0.4759
   13MOL   C397 7141   4.918   5.722   2.047 -0.4482 -0.6913  0.4082
   13MOL   C398 7142   4.980   5.822   1.943 -1.1786  0.5360 -0.8850
   13MOL   O399 7143   4.951   5.953   1.976  0.1114 -0.0456 -0.3705
   13MOL   C400 7144   4.864   6.029   1.913  0.4916 -0.9096 -0.1728
   13MOL   O401 7145   4.792   5.981   1.821 -0.0013 -0.2460 -0.0071
   13MOL   C402 7146   4.851   6.168   1.960  0.7652 -0.0790 -0.6391
   13MOL   C403 7147   4.752   6.252   1.903  0.6702  0.4297 -0.8825
   13MOL   C404 7148   4.732   6.380   1.966  0.0216 -0.2795 -0.7805
   13MOL   C405 7149   4.804   6.429   2.078  0.3702 -0.0761 -0.0964
   13MOL   C406 7150   4.785   6.570   2.136  0.6666 -0.0419 -0.0040
   13MOL   O407 7151   4.862   6.619   2.219  0.6561  0.4009  0.1272
   13MOL   C408 7152   4.910   6.345   2.129  0.7239  0.1283 -0.7481
   13MOL   C409 7153   4.933   6.215   2.069  0.0425 -0.7203 -0.9836
   13MOL   H410 7154   4.721   5.503   2.019  0.3066 -0.1418 -0.4965
   13MOL   H411 7155   4.786   5.544   2.166  1.7052  0.7192 -0.1496
   13MOL   H412 7156   4.915   5.588   1.887 -0.2916 -0.5583  0.3894
   13MOL   H413 7157   5.018   5.536   2.012  0.0527  1.5144  0.8081
   13MOL   H414 7158   4.816   5.757   2.064  0.6112  1.3980  2.6778
   13MOL   H415 7159   4.981   5.726   2.136 -0.5113 -0.9664  0.4651
   13MOL   H416 7160   5.089   5.829   1.944 -0.8637 -3.1938  1.5862
   13MOL   H417 7161   4.944   5.798   1.843 -0.3401 -1.9422 -0.6285
   13MOL   H418 7162   4.684   6.229   1.822  1.2394 -0.2317 -1.1762
   13MOL   H419 7163   4.654   6.440   1.920 -1.0524 -1.5247 -0.6069
   13MOL   H420 7164   4.969   6.385   2.210 -0.5889  0.5218  0.0292
   13MOL   H421 7165   5.019   6.168   2.113 -0.2220  0.1944  0.5403
   13MOL   O422 7166   4.671   6.632   2.083  0.0373 -0.2286 -0.3323
   13MOL   C423 7167   4.605   6.723   2.170  0.4787 -0.0025  0.9713
   13MOL   C424 7168   4.587   6.855   2.089  0.3906  0.1709  0.5304
   13MOL   C425 7169   4.708   6.936   2.054  0.1713 -0.1241 -0.6973
   13MOL   C426 7170   4.805   6.958   2.170 -0.1788 -0.0584  0.4881
   13MOL   O427 7171   4.913   7.036   2.124  0.2466  0.2554  0.3466
   13MOL   C428 7172   5.016   6.973   2.067 -0.1608  0.0158 -0.8118
   13MOL   O429 7173   5.016   6.857   2.033  0.1651  0.1129 -0.2564
   13MOL   C430 7174   5.121   7.072   2.026 -0.3649  0.1534 -0.1904
   13MOL   C431 7175   5.109   7.210   2.041  0.0387  0.3852 -0.1625
   13MOL   C432 7176   5.197   7.300   1.985 -0.6058 -0.0834  0.2344
   13MOL   C433 7177   5.314   7.257   1.912  0.6244  0.6263 -0.0121
   13MOL   C434 7178   5.409   7.345   1.849  0.0356 -0.6552  0.9583
   13MOL   O435 7179   5.522   7.304   1.810 -0.1075  0.6283 -0.4410
   13MOL   C436 7180   5.330   7.120   1.905 -0.1405 -0.2336  0.1256
   13MOL   C437 7181   5.241   7.033   1.963  0.0394 -0.0630 -0.8558
   13MOL   H438 7182   4.507   6.684   2.198  0.5521 -2.7744 -2.2981
   13MOL   H439 7183   4.651   6.729   2.268 -0.9877 -0.3150  1.6888
   13MOL   H440 7184   4.529   6.917   2.157  2.0231  1.2845  0.9143
   13MOL   H441 7185   4.524   6.834   2.003 -0.2994  1.5322  0.6856
   13MOL   H442 7186   4.762   6.887   1.973 -0.8559 -2.5287  0.0301
   13MOL   H443 7187   4.667   7.029   2.015 -0.6422 -0.0673  0.2855
   13MOL   H444 7188   4.750   6.996   2.256 -1.2955 -1.3000  0.3416
   13MOL   H445 7189   4.855   6.874   2.218  0.8684  0.2672 -0.0184
   13MOL   H446 7190   5.016   7.239   2.088 -0.1592  1.0794 -0.9799
   13MOL   H447 7191   5.169   7.403   1.997 -1.3121 -0.2068 -0.3101
   13MOL   H448 7192   5.412   7.068   1.859  0.4704  1.8054 -1.1574
   13MOL   H449 7193   5.268   6.928   1.966  0.2319 -0.1567 -4.0678
   13MOL   O450 7194   5.359   7.468   1.824 -0.0803 -0.1591  0.2301
   13MOL   C451 7195   5.447   7.568   1.773  0.4791  0.1874  0.2806
   13MOL   C452 7196   5.361   7.690   1.755 -0.4342 -0.2226 -0.3797
   13MOL   C453 7197   5.437   7.815   1.712  0.5975  0.2049  0.1309
   13MOL   C454 7198   5.360   7.945   1.738  0.3012 -0.3116  0.4467
   13MOL   O455 7199   5.438   8.057   1.693  0.4286 -0.4136  0.4176
   13MOL   C456 7200   5.516   0.029   1.779 -0.1876 -0.4023 -0.1572
   13MOL   O457 7201   5.543   8.094   1.893 -0.3882 -0.1182  0.6811
   13MOL   C458 7202   5.590   0.140   1.715  0.2910  0.1459 -0.2172
   13MOL   C459 7203   5.674   0.220   1.795  0.6225 -0.1239  0.0228
   13MOL   C460 7204   5.738   0.336   1.746 -0.3366 -0.3467  0.3503
   13MOL   C461 7205   5.712   0.372   1.608 -0.2371  0.0344 -0.9613
   13MOL   C462 7206   5.783   0.481   1.541 -0.6475  0.2612  0.5434
   13MOL   O463 7207   5.749   0.520   1.431 -0.1424 -0.9091 -0.7398
   13MOL   C464 7208   5.617   0.300   1.530 -0.5114  0.3812  0.2515
   13MOL   C465 7209   5.555   0.188   1.587  0.0161 -0.1619 -0.3161
   13MOL   H466 7210   5.533   7.594   1.834  2.4491 -1.8204 -1.5689
   13MOL   H467 7211   5.498   7.537   1.682  0.3812 -0.2251  0.3655
   13MOL   H468 7212   5.309   7.721   1.846 -0.4834  0.5797 -0.6781
   13MOL   H469 7213   5.280   7.671   1.685  0.6171 -0.2306 -1.6087
   13MOL   H470 7214   5.531   7.816   1.767  0.2159  2.5155  0.7924
   13MOL   H471 7215   5.455   7.815   1.605 -1.9091  0.4277 -0.3351
   13MOL   H472 7216   5.259   7.944   1.698  0.7483  1.3478 -0.7692
   13MOL   H473 7217   5.339   7.961   1.844  1.0326  1.1255  0.3898
   13MOL   H474 7218   5.706   0.184   1.892  1.5368 -0.0167 -0.2300
   13MOL   H475 7219   5.811   0.378   1.813 -1.6548 -0.5592  1.9470
   13MOL   H476 7220   5.596   0.317   1.425  1.2234 -0.8440 -0.3254
   13MOL   H477 7221   5.477   0.141   1.529 -1.5672  1.0055  0.7926
   13MOL   O478 7222   5.884   0.529   1.612 -0.4944  0.6515 -0.2987
   13MOL   C479 7223   5.952   0.643   1.554  0.3225  0.2575 -0.2762
   13MOL   C480 7224   6.089   0.677   1.625 -0.2947 -0.1270 -1.1233
   13MOL   C481 7225   6.195   0.565   1.609  0.0642 -0.4594 -0.3394
   13MOL   C482 7226   6.240   0.535   1.463 -0.1109 -0.2461  0.6230
   13MOL   O483 7227   6.332   0.428   1.457 -0.3578  0.0584  0.2084
   13MOL   C484 7228   6.285   0.300   1.443  0.2259 -0.1661  0.4863
   13MOL   O485 7229   6.164   0.269   1.431  0.7934 -0.0677  0.4155
   13MOL   C486 7230   6.397   0.198   1.431  0.6360  0.8910  0.5652
   13MOL   C487 7231   6.358   0.065   1.400 -0.5725 -0.1455  0.0833
   13MOL   C488 7232   6.459   8.068   1.371 -0.2678  0.1684 -0.8745
   13MOL   C489 7233   6.598   8.089   1.377 -0.1003 -0.8296  0.1464
   13MOL   C490 7234   6.698   7.981   1.352  0.4435  0.2594  0.2703
   13MOL   O491 7235   6.816   8.005   1.332  0.3501 -0.0806 -0.5943
   13MOL   C492 7236   6.632   0.128   1.395 -0.7417 -0.1782  0.6755
   13MOL   C493 7237   6.538   0.230   1.420 -0.1562  0.0700 -0.4943
   13MOL   H494 7238   5.965   0.626   1.447  0.8343  0.9385 -0.3251
   13MOL   H495 7239   5.875   0.719   1.561 -1.8046 -1.8272 -0.5935
   13MOL   H496 7240   6.069   0.687   1.732 -1.6579  1.7293 -1.5055
   13MOL   H497 7241   6.136   0.771   1.594 -0.1115 -0.5156 -2.0124
   13MOL   H498 7242   6.280   0.588   1.673 -0.9281  1.3976  0.3417
   13MOL   H499 7243   6.152   0.478   1.659  1.9631 -1.4206 -0.3098
   13MOL   H500 7244   6.152   0.515   1.401 -0.2630 -0.1315  0.7998
   13MOL   H501 7245   6.296   0.623   1.432  1.7936 -1.0800  1.6148
   13MOL   H502 7246   6.252   0.043   1.398 -0.3911 -1.0703  0.4167
   13MOL   H503 7247   6.426   7.966   1.352 -2.1473  0.2210  1.8222
   13MOL   H504 7248   6.736   0.155   1.378 -0.3111 -1.7744  0.6579
   13MOL   H505 7249   6.564   0.334   1.434  1.5776 -0.2846 -0.9577
   13MOL   O506 7250   6.648   7.859   1.343 -0.0826 -0.2655  0.4485
   13MOL   C507 7251   6.716   7.747   1.297  0.2708 -0.5515 -0.6271
   13MOL   C508 7252   6.674   7.724   1.149  0.2386  0.4826  0.9308
   13MOL   C509 7253   6.739   7.824   1.050  0.7879  0.7409 -0.3121
   13MOL   C510 7254   6.730   7.778   0.909 -0.5809 -0.2457 -0.5809
   13MOL   O511 7255   6.818   7.666   0.879  0.6663  0.2604 -0.2947
   13MOL   C512 7256   6.830   7.629   0.751  0.3075 -0.4030  0.4475
   13MOL   O513 7257   6.751   7.663   0.669  0.1538  0.2135 -0.3535
   13MOL   C514 7258   6.945   7.536   0.726  0.5232  0.0022  0.3115
   13MOL   C515 7259   7.054   7.536   0.811  0.1506  0.0462 -0.0244
   13MOL   C516 7260   7.171   7.464   0.779  0.1787  0.2605 -0.4873
   13MOL   C517 7261   7.173   7.378   0.664 -0.3263  0.6269  0.1851
   13MOL   C518 7262   7.290   7.288   0.641  0.1357 -0.3463 -0.8376
   13MOL   O519 7263   7.288   7.198   0.562 -0.9008  0.1471 -0.0185
   13MOL   C520 7264   7.055   7.378   0.582 -0.6414 -0.2968 -0.0362
   13MOL   C521 7265   6.944   7.451   0.614  0.2832  0.1688  0.4362
   13MOL   H522 7266   6.824   7.745   1.316  0.3209  0.6822 -0.7471
   13MOL   H523 7267   6.677   7.666   1.358 -2.2847 -0.4637 -2.1087
   13MOL   H524 7268   6.567   7.737   1.131  0.6479 -0.7797 -2.8719
   13MOL   H525 7269   6.696   7.623   1.115 -1.0679  0.3106  0.5714
   13MOL   H526 7270   6.687   7.920   1.056 -2.1026 -0.6903 -1.4718
   13MOL   H527 7271   6.842   7.839   1.084  0.2554  0.3360  1.5149
   13MOL   H528 7272   6.630   7.734   0.908  0.5605 -2.9336 -0.2161
   13MOL   H529 7273   6.742   7.859   0.837  2.5623  0.2513  0.4153
   13MOL   H530 7274   7.045   7.595   0.902 -1.0658 -2.2236  1.3653
   13MOL   H531 7275   7.254   7.471   0.848 -0.5469  0.2873  0.3802
   13MOL   H532 7276   7.043   7.314   0.496  0.2875  1.1392 -1.2813
   13MOL   H533 7277   6.856   7.451   0.552 -0.1915 -1.8621  1.0935
   13MOL   O534 7278   7.393   7.326   0.716 -0.2407  0.0685  0.0575
   13MOL   C535 7279   7.525   7.267   0.696  0.3523  0.1615  0.3963
   13MOL   C536 7280   7.593   7.241   0.824 -0.5271  0.0630 -0.3490
   13MOL   C537 7281   7.672   7.366   0.866 -0.0541 -0.8213  0.1990
   13MOL   C538 7282   7.780   7.332   0.973 -0.8058 -0.0959 -0.3221
   13MOL   O539 7283   7.720   7.279   1.089  0.2118  0.7971 -0.3045
   13MOL   C540 7284   7.797   7.221   1.180 -0.3279 -0.4062 -0.7447
   13MOL   O541 7285   7.923   7.230   1.185 -0.0463 -0.2880 -0.3266
   13MOL   C542 7286   7.715   7.155   1.282  0.1619  0.2404 -0.5620
   13MOL   C543 7287   7.577   7.120   1.274 -0.0291 -0.0800 -0.8284
   13MOL   C544 7288   7.501   7.074   1.386 -0.2953 -0.2675 -0.0193
   13MOL   C545 7289   7.561   7.072   1.514  0.1690 -0.2292 -0.2052
   13MOL   C546 7290   7.476   7.047   1.636 -0.0390 -0.1125  0.4417
   13MOL   O547 7291   7.511   7.090   1.752  0.1392 -0.2215  0.1157
   13MOL   C548 7292   7.695   7.109   1.525 -0.1691  0.7593 -0.1869
   13MOL   C549 7293   7.774   7.145   1.412  0.5459 -0.7038 -0.4124
   13MOL   H550 7294   7.512   7.170   0.647 -0.5894 -0.0817  1.1093
   13MOL   H551 7295   7.589   7.329   0.633 -0.2346  1.3317  0.9429
   13MOL   H552 7296   7.662   7.158   0.810  0.6604  0.9221  0.3220
   13MOL   H553 7297   7.527   7.208   0.904  0.2604 -1.6400 -0.3868
   13MOL   H554 7298   7.719   7.412   0.779 -2.1143 -2.1475 -1.6841
   13MOL   H555 7299   7.605   7.445   0.902  0.9495 -0.1503  0.6309
   13MOL   H556 7300   7.836   7.256   0.919 -1.1873  0.3760 -1.3994
   13MOL   H557 7301   7.831   7.424   1.003  0.5839 -0.2763 -2.0345
   13MOL   H558 7302   7.525   7.137   1.181 -1.1721  0.7589 -0.0452
   13MOL   H559 7303   7.397   7.056   1.362 -0.3178  0.0505 -0.1624
   13MOL   H560 7304   7.745   7.118   1.621 -1.1386 -1.2138  0.5267
   13MOL   H561 7305   7.877   7.177   1.422  0.0756  0.5948  0.3531
   13MOL   H562 7306   7.380   6.996   1.620 -0.2114  0.2828  0.2266
   14MOL     O1 7307   4.453   2.462   0.050  1.1143  0.4020  0.0247
   14MOL     C2 7308   4.550   2.530   8.083 -0.4568  0.0712  0.8294
   14MOL     C3 7309   4.565   2.476   7.943  0.2569 -0.4073 -0.3079
   14MOL     C4 7310   4.451   2.509   7.849  0.1434  0.6820 -0.2921
   14MOL     C5 7311   4.452   2.419   7.726  0.1738 -0.3689  0.0127
   14MOL     O6 7312   4.405   2.286   7.737 -0.3959 -0.2620  0.1775
   14MOL     C7 7313   4.273   2.274   7.744  0.2876 -0.0511  0.4527
   14MOL     O8 7314   4.190   2.369   7.728 -0.3158 -0.2373 -0.1541
   14MOL     C9 7315   4.226   2.131   7.772  0.6577 -0.2466  0.7982
   14MOL    C10 7316   4.316   2.033   7.819  0.1609 -0.2790 -0.5194
   14MOL    C11 7317   4.279   1.897   7.833  0.1603 -0.2932  1.0153
   14MOL    C12 7318   4.146   1.857   7.800 -0.2338  0.6337  0.8078
   14MOL    C13 7319   4.110   1.715   7.809 -0.0478  0.2204 -0.7622
   14MOL    O14 7320   3.992   1.683   7.779  0.0488 -0.0309 -0.1476
   14MOL    C15 7321   4.053   1.962   7.773 -0.1445 -0.0041 -0.1806
   14MOL    C16 7322   4.091   2.099   7.753 -0.4025 -0.4338 -1.2362
   14MOL    H17 7323   4.518   2.635   8.078  1.8169  0.7456  0.0377
   14MOL    H18 7324   4.649   2.538   0.029  0.2106  0.6657 -0.7201
   14MOL    H19 7325   4.568   2.367   7.946 -0.6107 -0.4990 -2.0402
   14MOL    H20 7326   4.660   2.512   7.903  1.1869 -0.4082  1.8381
   14MOL    H21 7327   4.365   2.491   7.913  0.4812  0.3415  0.0646
   14MOL    H22 7328   4.452   2.614   7.817  1.8959  0.1706 -2.0139
   14MOL    H23 7329   4.405   2.477   7.647  0.2079 -2.2329 -1.4088
   14MOL    H24 7330   4.557   2.411   7.696 -0.1142  0.8477 -1.3666
   14MOL    H25 7331   4.419   2.058   7.838 -0.0767  1.9174 -1.9293
   14MOL    H26 7332   4.350   1.825   7.871 -0.5115 -0.9149  1.1240
   14MOL    H27 7333   3.953   1.924   7.762  0.2078 -1.6185  1.8033
   14MOL    H28 7334   4.027   2.173   7.708 -0.2233  0.1643 -0.5011
   14MOL    H29 7335   4.371   2.454   0.004  1.0508 -1.5267  0.4060
   14MOL    O30 7336   4.205   1.635   7.861 -0.0553  0.6467  0.0493
   14MOL    C31 7337   4.176   1.503   7.893  0.1148  0.5594 -0.3101
   14MOL    C32 7338   4.206   1.410   7.775 -0.1038 -0.2374 -0.0364
   14MOL    C33 7339   4.155   1.263   7.797 -0.0036 -0.5890 -0.1963
   14MOL    C34 7340   4.249   1.174   7.724  0.3551 -0.0184  0.3479
   14MOL    O35 7341   4.247   1.204   7.579 -0.5542  0.0173  0.3253
   14MOL    C36 7342   4.301   1.130   7.488 -0.4823 -0.5847  0.2821
   14MOL    O37 7343   4.370   1.031   7.511 -0.2793  0.1076  0.2114
   14MOL    C38 7344   4.292   1.193   7.349  0.7336 -0.2729  0.5601
   14MOL    C39 7345   4.357   1.126   7.243  0.3918  0.2648 -0.7391
   14MOL    C40 7346   4.336   1.155   7.108  0.4075  0.8130  0.5240
   14MOL    C41 7347   4.259   1.272   7.077  0.4461  0.9633  0.2879
   14MOL    C42 7348   4.256   1.308   6.927 -0.1153 -0.0917  0.1622
   14MOL    O43 7349   4.176   1.373   6.867  0.2733  0.0411  0.3072
   14MOL    C44 7350   4.200   1.347   7.180 -1.2469 -0.0481  0.1366
   14MOL    C45 7351   4.212   1.307   7.313  0.0915  0.2313  0.3921
   14MOL    H46 7352   4.248   1.482   7.973 -0.0076 -2.6767 -0.9844
   14MOL    H47 7353   4.077   1.481   7.931  0.1159  1.5932  0.2988
   14MOL    H48 7354   4.311   1.421   7.749 -0.0556 -0.2097  0.1679
   14MOL    H49 7355   4.156   1.451   7.687 -1.2196  2.8150  1.9474
   14MOL    H50 7356   4.163   1.234   7.902  1.8870 -0.5932 -0.3107
   14MOL    H51 7357   4.051   1.256   7.768 -0.2809  1.0146  0.3196
   14MOL    H52 7358   4.351   1.161   7.760  0.1466 -0.3667  0.8293
   14MOL    H53 7359   4.190   1.082   7.729  0.9252 -0.3601  0.8890
   14MOL    H54 7360   4.418   1.042   7.272 -1.7079 -0.1243  2.8610
   14MOL    H55 7361   4.386   1.090   7.037  2.6032  3.1092 -0.0890
   14MOL    H56 7362   4.146   1.439   7.168 -1.5632 -0.0659  1.4164
   14MOL    H57 7363   4.173   1.366   7.394 -2.1151  1.7628 -1.7106
   14MOL    O58 7364   4.354   1.251   6.861  0.3205  0.4401  0.3294
   14MOL    C59 7365   4.354   1.256   6.720  0.3858 -0.5966  0.8517
   14MOL    C60 7366   4.464   1.165   6.652 -0.1243  0.3761  0.4902
   14MOL    C61 7367   4.459   1.014   6.690 -0.5443 -0.1108  0.1261
   14MOL    C62 7368   4.569   0.935   6.615  0.1181  0.0842  0.1504
   14MOL    O63 7369   4.562   0.964   6.469 -0.4864  0.2552 -0.5385
   14MOL    C64 7370   4.523   0.880   6.378 -0.0466 -0.1603  0.5304
   14MOL    O65 7371   4.491   0.764   6.407 -0.2103 -0.4523 -0.0634
   14MOL    C66 7372   4.511   0.949   6.244  0.6541  0.3795  0.8940
   14MOL    C67 7373   4.509   1.088   6.234 -0.0870 -0.0005  0.6816
   14MOL    C68 7374   4.512   1.154   6.108 -0.1292 -0.0401 -0.0326
   14MOL    C69 7375   4.507   1.077   5.987  0.0232 -0.0413 -0.4253
   14MOL    C70 7376   4.514   1.147   5.858 -0.4205 -0.6089 -0.1849
   14MOL    O71 7377   4.554   1.260   5.840 -0.0036 -0.3202  0.1739
   14MOL    C72 7378   4.495   0.939   5.994 -0.1261 -0.5602 -0.4077
   14MOL    C73 7379   4.493   0.875   6.121  1.2821 -0.1197 -0.3974
   14MOL    H74 7380   4.257   1.222   6.684  0.6722 -0.7047  0.1666
   14MOL    H75 7381   4.357   1.360   6.690  3.1824 -0.9000 -0.0708
   14MOL    H76 7382   4.561   1.210   6.674 -0.1891  1.6982 -1.8239
   14MOL    H77 7383   4.451   1.192   6.547  0.5027  0.4897  0.4393
   14MOL    H78 7384   4.469   0.993   6.796  1.0817 -0.2879 -0.0622
   14MOL    H79 7385   4.365   0.970   6.657  0.7112 -3.7906  1.2523
   14MOL    H80 7386   4.670   0.959   6.648 -0.7804  0.3255  2.8466
   14MOL    H81 7387   4.564   0.827   6.624  0.3189 -0.3259 -3.5624
   14MOL    H82 7388   4.528   1.151   6.320  0.7809  1.6694 -0.7120
   14MOL    H83 7389   4.512   1.262   6.103 -1.8708  0.0009  0.3637
   14MOL    H84 7390   4.492   0.876   5.907 -0.8606 -0.8528 -0.1760
   14MOL    H85 7391   4.480   0.769   6.115 -1.0810  0.0879  0.5887
   14MOL    O86 7392   4.489   1.067   5.755  0.0382 -0.3823  0.2898
   14MOL    C87 7393   4.483   1.116   5.621  0.0154  0.3917  0.3043
   14MOL    C88 7394   4.616   1.096   5.546  0.3283 -0.3562 -0.4731
   14MOL    C89 7395   4.710   1.217   5.565  0.1675  0.0050  0.2046
   14MOL    C90 7396   4.646   1.358   5.542 -0.3594 -0.2438 -0.5843
   14MOL    O91 7397   4.563   1.387   5.439  0.9861 -0.3138 -0.0748
   14MOL    C92 7398   4.604   1.375   5.306  0.3692  0.1018 -0.7061
   14MOL    O93 7399   4.727   1.373   5.280  0.5412  0.6206 -0.0177
   14MOL    C94 7400   4.491   1.365   5.209  1.1822 -0.0994 -0.3394
   14MOL    C95 7401   4.524   1.330   5.078 -0.0196  0.7141 -0.3613
   14MOL    C96 7402   4.416   1.308   4.990  0.3956  0.7627  0.0546
   14MOL    C97 7403   4.283   1.322   5.031  0.4651  0.6010  0.7899
   14MOL    C98 7404   4.178   1.291   4.929 -0.4519 -0.5457  0.0048
   14MOL    O99 7405   4.059   1.318   4.955 -0.3074  0.1090 -0.7038
   14MOL   C100 7406   4.251   1.364   5.157 -0.9431 -0.0209 -0.2721
   14MOL   C101 7407   4.358   1.380   5.250 -0.0157 -0.6707 -0.3894
   14MOL   H102 7408   4.409   1.048   5.579  0.1505 -0.4831  1.4492
   14MOL   H103 7409   4.445   1.218   5.623  1.2275  0.8653 -0.6061
   14MOL   H104 7410   4.602   1.092   5.438 -0.4308 -1.6408 -0.3398
   14MOL   H105 7411   4.659   1.004   5.586 -1.1762 -0.1403  1.7560
   14MOL   H106 7412   4.760   1.223   5.662  1.4458  1.1524 -0.4986
   14MOL   H107 7413   4.794   1.207   5.497 -0.1284 -0.8265 -0.0405
   14MOL   H108 7414   4.590   1.379   5.633 -1.0819 -1.7730 -0.6703
   14MOL   H109 7415   4.726   1.431   5.536  2.1874 -2.8011  1.2857
   14MOL   H110 7416   4.626   1.307   5.051 -0.0589  0.5654 -0.3832
   14MOL   H111 7417   4.443   1.277   4.890  0.4057 -1.6059  0.7632
   14MOL   H112 7418   4.154   1.374   5.205 -0.5291  3.0702  0.0130
   14MOL   H113 7419   4.337   1.404   5.353 -2.5958  0.5801 -1.1546
   14MOL   O114 7420   4.218   1.225   4.818 -0.4504 -0.0230  0.6101
   14MOL   C115 7421   4.128   1.176   4.724 -0.6513  0.1878  0.5819
   14MOL   C116 7422   4.210   1.096   4.622  0.0543  0.2382  0.4315
   14MOL   C117 7423   4.274   1.174   4.513 -0.1270  0.0866 -0.3438
   14MOL   C118 7424   4.351   1.080   4.420  0.1116  0.0491 -0.4129
   14MOL   O119 7425   4.486   1.047   4.460  0.5764  0.3273 -0.1110
   14MOL   C120 7426   4.515   0.936   4.528 -0.0605 -0.3358 -0.9851
   14MOL   O121 7427   4.435   0.840   4.557 -0.4569 -1.0410 -0.3198
   14MOL   C122 7428   4.657   0.932   4.567 -0.5971  0.0380  0.4722
   14MOL   C123 7429   4.744   1.039   4.546  0.5977 -0.1636  0.7329
   14MOL   C124 7430   4.884   1.041   4.579  0.2218  0.4442  0.6740
   14MOL   C125 7431   4.933   0.935   4.665  0.0108  0.2713  0.0239
   14MOL   C126 7432   5.076   0.938   4.708 -0.2964 -0.4075  0.3000
   14MOL   O127 7433   5.139   0.837   4.748  0.5661 -0.0490 -0.2278
   14MOL   C128 7434   4.847   0.828   4.696  0.1355 -0.9949  0.2497
   14MOL   C129 7435   4.717   0.826   4.644  0.1902 -0.2965  0.0694
   14MOL   H130 7436   4.046   1.125   4.776 -0.5619  1.3675  1.8826
   14MOL   H131 7437   4.069   1.252   4.673  1.2191 -1.2087 -3.9460
   14MOL   H132 7438   4.136   1.031   4.575  0.3268  1.1716 -1.3150
   14MOL   H133 7439   4.278   1.023   4.666  0.4013  1.1999  1.5116
   14MOL   H134 7440   4.205   1.232   4.452 -0.5997 -0.0572  0.0569
   14MOL   H135 7441   4.352   1.241   4.551  0.2456  0.7769 -2.2427
   14MOL   H136 7442   4.299   0.985   4.411 -0.0726  0.2468 -1.4379
   14MOL   H137 7443   4.375   1.123   4.323  0.9163 -0.0961 -0.2802
   14MOL   H138 7444   4.714   1.122   4.483  2.2108  0.8793  1.3027
   14MOL   H139 7445   4.945   1.123   4.544 -0.6667  0.4272 -0.9341
   14MOL   H140 7446   4.891   0.744   4.748  1.1891 -0.3496  0.4232
   14MOL   H141 7447   4.655   0.740   4.663 -0.0735 -0.3831 -1.1258
   14MOL   O142 7448   5.139   1.057   4.687 -0.1530  0.4069 -0.2140
   14MOL   C143 7449   5.274   1.072   4.736 -0.0491 -0.4593  0.0164
   14MOL   C144 7450   5.386   1.027   4.635 -0.0672  0.2960 -0.5465
   14MOL   C145 7451   5.416   1.123   4.524  0.9277 -0.4933 -0.2163
   14MOL   C146 7452   5.296   1.169   4.445 -0.2433  0.3910  0.4104
   14MOL   O147 7453   5.216   1.051   4.400  0.6312 -0.5712  0.7467
   14MOL   C148 7454   5.115   1.055   4.310 -0.0536 -0.0996  0.2999
   14MOL   O149 7455   5.076   1.154   4.252  0.2291 -0.1263  0.3849
   14MOL   C150 7456   5.050   0.924   4.286 -0.1270  0.8370  0.0024
   14MOL   C151 7457   5.064   0.814   4.374  0.0076 -0.0310 -0.3334
   14MOL   C152 7458   5.005   0.686   4.351 -0.3131 -0.2395 -0.0397
   14MOL   C153 7459   4.921   0.667   4.236 -0.3782  1.0770 -0.5445
   14MOL   C154 7460   4.850   0.535   4.208 -0.0884 -0.6547  0.4973
   14MOL   O155 7461   4.796   0.514   4.098  0.7788 -0.3698 -0.6693
   14MOL   C156 7462   4.910   0.771   4.147 -0.8369  0.4876  0.0697
   14MOL   C157 7463   4.976   0.892   4.170  0.3073 -0.1153  0.4225
   14MOL   H158 7464   5.286   1.176   4.768  0.7490 -1.3426  2.6962
   14MOL   H159 7465   5.281   1.007   4.823 -1.1106  2.7510  2.6507
   14MOL   H160 7466   5.358   0.928   4.600  1.0809 -0.2733  0.1241
   14MOL   H161 7467   5.474   1.003   4.694  0.4171  0.1409 -1.3235
   14MOL   H162 7468   5.461   1.211   4.570  1.0404  0.0926 -1.4306
   14MOL   H163 7469   5.489   1.076   4.458  1.4129 -0.1966  0.1054
   14MOL   H164 7470   5.235   1.238   4.504 -0.0077  2.1421 -1.3599
   14MOL   H165 7471   5.319   1.237   4.363  0.0155 -0.6347 -0.3772
   14MOL   H166 7472   5.122   0.828   4.464  1.5550 -1.5419 -1.0594
   14MOL   H167 7473   5.014   0.610   4.427  1.1598 -1.9843 -1.8867
   14MOL   H168 7474   4.867   0.753   4.049  0.5832 -0.6442 -0.3642
   14MOL   H169 7475   4.969   0.966   4.092  1.6107  0.4907  0.8502
   14MOL   O170 7476   4.857   0.455   4.316 -0.5343  0.4673 -0.7016
   14MOL   C171 7477   4.797   0.322   4.312 -0.1965  0.2973 -0.2105
   14MOL   C172 7478   4.907   0.228   4.351  0.3141  0.8489  0.2545
   14MOL   C173 7479   4.840   0.093   4.361  0.4347 -1.2633  0.2334
   14MOL   C174 7480   4.937   8.076   4.396 -0.1092  0.2180  0.4148
   14MOL   O175 7481   5.042   8.057   4.306 -0.3210  0.4220  0.0521
   14MOL   C176 7482   5.132   7.958   4.319  0.3121 -0.7223  0.2514
   14MOL   O177 7483   5.119   7.875   4.406 -0.0849  0.2888 -0.0789
   14MOL   C178 7484   5.241   7.974   4.216 -0.7191 -0.0506 -0.4241
   14MOL   C179 7485   5.354   7.885   4.211  0.4782  0.2005 -0.3298
   14MOL   C180 7486   5.466   7.919   4.129 -0.2527  0.5726 -0.2527
   14MOL   C181 7487   5.462   8.035   4.045  0.6677 -0.0515  0.8283
   14MOL   C182 7488   5.580   8.076   3.970 -0.3071 -0.3089  0.8750
   14MOL   O183 7489   5.586   0.079   3.897 -0.4356 -0.1594  0.2679
   14MOL   C184 7490   5.339   0.001   4.024  0.0780 -0.3453  0.0720
   14MOL   C185 7491   5.233   8.073   4.109  0.0438 -0.1135 -0.0586
   14MOL   H186 7492   4.709   0.308   4.375  0.2095  0.5213  0.4063
   14MOL   H187 7493   4.775   0.307   4.206  0.2081 -1.5340 -0.0514
   14MOL   H188 7494   4.962   0.242   4.445 -0.0999  1.4156  0.4156
   14MOL   H189 7495   4.986   0.222   4.276 -0.1215 -0.2215 -0.1266
   14MOL   H190 7496   4.765   0.092   4.440 -0.7661  0.6842 -0.8343
   14MOL   H191 7497   4.794   0.064   4.266  0.0855 -1.3255  0.4203
   14MOL   H192 7498   4.974   8.084   4.498 -1.1960 -0.4586  0.8783
   14MOL   H193 7499   4.878   7.984   4.402 -1.1160  0.8035 -0.2737
   14MOL   H194 7500   5.357   7.800   4.278  0.7993 -0.0389 -0.6492
   14MOL   H195 7501   5.555   7.858   4.134 -0.8213 -0.2263  0.2669
   14MOL   H196 7502   5.327   0.091   3.965  0.3050 -1.1543 -1.2337
   14MOL   H197 7503   5.154   0.048   4.106 -1.2823 -1.5698 -1.2414
   14MOL   O198 7504   5.688   8.004   4.008 -0.5192  0.4300  0.1666
   14MOL   C199 7505   5.813   8.064   3.996 -0.2009  0.3409 -0.2569
   14MOL   C200 7506   5.922   7.964   4.052 -0.4126  0.0190 -0.2909
   14MOL   C201 7507   6.056   8.018   4.018  0.0027 -0.0066 -0.9230
   14MOL   C202 7508   6.163   7.926   4.070 -0.4055  0.4442 -0.2263
   14MOL   O203 7509   6.274   8.010   4.080  0.0104  0.2546 -0.4232
   14MOL   C204 7510   6.384   7.993   4.159  0.3253 -0.2804  0.0414
   14MOL   O205 7511   6.413   7.896   4.237  0.0617  0.3515 -0.2317
   14MOL   C206 7512   6.474   0.015   4.144  0.8198 -0.5010  0.7915
   14MOL   C207 7513   6.438   0.127   4.069 -0.5690 -0.2113 -0.7714
   14MOL   C208 7514   6.533   0.230   4.056  0.4365 -0.0834 -0.0960
   14MOL   C209 7515   6.656   0.229   4.123  0.1155 -1.1309  0.2679
   14MOL   C210 7516   6.746   0.345   4.117 -0.2422 -0.2350  0.1671
   14MOL   O211 7517   6.848   0.352   4.181  0.6962 -0.3043 -0.2779
   14MOL   C212 7518   6.688   0.114   4.194 -0.7893 -0.3498  0.6553
   14MOL   C213 7519   6.600   0.007   4.205 -0.0357  0.8922 -0.2921
   14MOL   H214 7520   5.831   8.079   3.890  1.4107 -2.4669 -0.4154
   14MOL   H215 7521   5.825   0.067   4.034 -0.0606  0.4665 -0.6427
   14MOL   H216 7522   5.916   7.868   4.000  0.3099  0.7788 -1.8046
   14MOL   H217 7523   5.899   7.955   4.159 -0.4967 -1.1816 -0.3983
   14MOL   H218 7524   6.063   8.022   3.909  1.1430  0.0628 -0.8508
   14MOL   H219 7525   6.063   0.016   4.069 -0.5945 -1.3297  1.7382
   14MOL   H220 7526   6.151   7.886   4.171 -2.4912 -0.4300 -0.8141
   14MOL   H221 7527   6.190   7.846   4.001  1.8941  1.9960 -1.1806
   14MOL   H222 7528   6.337   0.141   4.033 -0.0041 -0.1590 -2.3628
   14MOL   H223 7529   6.491   0.315   4.004 -0.2264 -1.0570 -1.1931
   14MOL   H224 7530   6.783   0.117   4.246 -0.9617 -0.3035  0.9699
   14MOL   H225 7531   6.634   8.014   4.250  2.6769  1.6042 -0.7548
   14MOL   O226 7532   6.702   0.440   4.026 -0.0154  0.0189  0.5571
   14MOL   C227 7533   6.774   0.564   4.021  0.6032 -0.1001 -0.3537
   14MOL   C228 7534   6.687   0.658   3.929  0.3152  0.3404  0.2580
   14MOL   C229 7535   6.540   0.671   3.963 -0.3483  0.3499  0.1251
   14MOL   C230 7536   6.530   0.764   4.080 -0.0901 -0.9812 -0.3382
   14MOL   O231 7537   6.394   0.778   4.117 -0.7984  0.3666 -0.2997
   14MOL   C232 7538   6.317   0.866   4.058  0.7845  0.3162 -0.1184
   14MOL   O233 7539   6.356   0.928   3.960  0.8131  0.8929  0.5017
   14MOL   C234 7540   6.182   0.877   4.119 -0.3619 -0.2246  0.2561
   14MOL   C235 7541   6.158   0.833   4.252 -0.1695 -0.3791 -0.1522
   14MOL   C236 7542   6.031   0.846   4.317  0.2843 -0.6023 -0.4527
   14MOL   C237 7543   5.928   0.900   4.242  0.0920 -0.6468  0.2540
   14MOL   C238 7544   5.793   0.910   4.307 -0.7992  0.4333  0.5919
   14MOL   O239 7545   5.704   0.980   4.265  0.0497  0.4034  0.0319
   14MOL   C240 7546   5.947   0.950   4.111  0.2497 -0.0402  0.4647
   14MOL   C241 7547   6.076   0.941   4.052 -0.5000 -0.4489  0.8604
   14MOL   H242 7548   6.789   0.595   4.125 -1.8471  0.3298 -0.1116
   14MOL   H243 7549   6.870   0.540   3.974 -0.4924 -0.8473 -2.2516
   14MOL   H244 7550   6.684   0.605   3.834  1.7353 -1.9243  1.4498
   14MOL   H245 7551   6.740   0.753   3.921 -1.0774  1.0725 -0.3419
   14MOL   H246 7552   6.484   0.694   3.872 -1.3206 -1.6400  0.1785
   14MOL   H247 7553   6.495   0.577   3.998 -0.6906 -0.0562 -1.3751
   14MOL   H248 7554   6.591   0.735   4.165 -0.7822 -0.1805  0.4370
   14MOL   H249 7555   6.574   0.859   4.050  1.2671 -1.5035  0.0123
   14MOL   H250 7556   6.238   0.787   4.307  0.1513  0.4788  0.0990
   14MOL   H251 7557   6.025   0.803   4.416  0.7511  0.2840 -0.0285
   14MOL   H252 7558   5.864   0.986   4.051  2.4962  0.3392 -2.5337
   14MOL   H253 7559   6.092   0.970   3.949 -0.0953  1.5724  1.4642
   14MOL   O254 7560   5.784   0.852   4.431  0.3825 -0.4697 -0.1559
   14MOL   C255 7561   5.661   0.860   4.501  0.4178  0.1849  0.6511
   14MOL   C256 7562   5.653   0.737   4.598  0.1646  0.0598  0.0311
   14MOL   C257 7563   5.664   0.600   4.519  0.1454  0.2205  0.5002
   14MOL   C258 7564   5.670   0.468   4.600 -0.2860 -0.7500 -0.4182
   14MOL   O259 7565   5.543   0.459   4.655 -0.5757  0.4688  0.3289
   14MOL   C260 7566   5.490   0.335   4.700  0.0900  0.4165  0.1296
   14MOL   O261 7567   5.558   0.231   4.701 -0.5602 -0.2119 -0.1642
   14MOL   C262 7568   5.350   0.347   4.737  0.6058  0.8198  0.5482
   14MOL   C263 7569   5.274   0.230   4.755 -0.4811 -0.0106  0.2541
   14MOL   C264 7570   5.136   0.233   4.791  0.6328 -0.4802  0.0965
   14MOL   C265 7571   5.079   0.357   4.811 -0.4007 -0.4816 -0.1290
   14MOL   C266 7572   4.931   0.364   4.826  0.1246  0.4979  0.1059
   14MOL   O267 7573   4.865   0.269   4.870  0.1422  0.0849 -0.5245
   14MOL   C268 7574   5.155   0.479   4.798  0.4752  0.1798  0.3809
   14MOL   C269 7575   5.290   0.473   4.755  0.1177 -0.0462 -0.7940
   14MOL   H270 7576   5.657   0.959   4.548  2.5408  0.3172  0.6019
   14MOL   H271 7577   5.577   0.845   4.433  0.6877 -2.2058  0.8197
   14MOL   H272 7578   5.564   0.744   4.660  1.3041  0.3656  1.6535
   14MOL   H273 7579   5.732   0.733   4.673  1.6691  1.0794 -1.4520
   14MOL   H274 7580   5.590   0.595   4.439  0.6518 -1.2357  0.1052
   14MOL   H275 7581   5.759   0.601   4.465  0.9358 -1.9779  1.7753
   14MOL   H276 7582   5.681   0.382   4.535 -2.6908 -1.4883  0.0947
   14MOL   H277 7583   5.749   0.479   4.674  1.0249 -1.9610 -1.6274
   14MOL   H278 7584   5.313   0.131   4.736 -0.1591  0.2301 -0.3534
   14MOL   H279 7585   5.073   0.145   4.797 -2.2552  1.4178 -1.4940
   14MOL   H280 7586   5.096   0.567   4.816 -1.1566 -0.6730 -0.6445
   14MOL   H281 7587   5.342   0.568   4.752  2.0084 -0.9198  1.7970
   14MOL   O282 7588   4.880   0.485   4.799 -0.3671 -0.4538 -0.3203
   14MOL   C283 7589   4.733   0.494   4.794  0.4178 -0.5016  0.7088
   14MOL   C284 7590   4.681   0.432   4.658 -0.4447  0.1153  0.2188
   14MOL   C285 7591   4.529   0.387   4.678 -0.1328  0.6022 -0.2170
   14MOL   C286 7592   4.474   0.340   4.548  0.3703  0.5951 -0.4895
   14MOL   O287 7593   4.469   0.446   4.455 -0.0984 -0.3456  0.5001
   14MOL   C288 7594   4.351   0.520   4.430 -0.6495  0.3412  0.2261
   14MOL   O289 7595   4.242   0.509   4.484 -0.2660 -0.0784  0.0933
   14MOL   C290 7596   4.369   0.633   4.337 -0.3553  0.4436  0.2715
   14MOL   C291 7597   4.250   0.700   4.292 -0.2347 -0.7034 -0.3468
   14MOL   C292 7598   4.262   0.813   4.203 -0.0597  0.8743 -0.0955
   14MOL   C293 7599   4.391   0.861   4.163 -0.2637  0.1250 -0.2667
   14MOL   C294 7600   4.399   0.987   4.084 -0.0560  0.5367 -0.2880
   14MOL   O295 7601   4.309   1.023   4.013 -0.4834 -0.7819 -0.5215
   14MOL   C296 7602   4.511   0.793   4.205 -0.0880 -0.0032  0.0609
   14MOL   C297 7603   4.500   0.681   4.291  0.2534  0.6084 -0.1439
   14MOL   H298 7604   4.689   0.447   4.881  2.3252 -0.8434  1.5112
   14MOL   H299 7605   4.705   0.598   4.808 -2.9702 -1.2181 -0.3555
   14MOL   H300 7606   4.745   0.355   4.616  0.4902  0.3867  1.1074
   14MOL   H301 7607   4.696   0.513   4.586  0.7107  0.3736  0.7372
   14MOL   H302 7608   4.535   0.302   4.747 -2.1834 -0.9223 -1.8650
   14MOL   H303 7609   4.475   0.475   4.713 -1.3691  1.1760 -3.4541
   14MOL   H304 7610   4.535   0.263   4.500 -0.4724 -0.3040 -0.1374
   14MOL   H305 7611   4.376   0.294   4.561  1.1010 -0.4625  1.6435
   14MOL   H306 7612   4.155   0.657   4.318 -0.5691 -0.9314 -1.9007
   14MOL   H307 7613   4.174   0.864   4.166 -0.1990 -0.6693 -2.0070
   14MOL   H308 7614   4.611   0.826   4.182  0.6028 -0.3577  2.4440
   14MOL   H309 7615   4.587   0.625   4.320 -1.1862 -1.6332 -0.0763
   14MOL   O310 7616   4.506   1.060   4.112  0.4787  0.1883  0.3535
   14MOL   C311 7617   4.519   1.186   4.056 -0.4272 -0.0075 -0.5433
   14MOL   C312 7618   4.666   1.246   4.066  0.3062  0.7087  0.1382
   14MOL   C313 7619   4.730   1.244   4.204 -0.0198 -0.7790 -0.3814
   14MOL   C314 7620   4.659   1.341   4.301 -0.0628  0.1695 -0.5865
   14MOL   O315 7621   4.739   1.377   4.417 -0.5216 -0.4584 -0.2120
   14MOL   C316 7622   4.670   1.422   4.530 -0.7407  1.2667  0.3295
   14MOL   O317 7623   4.551   1.459   4.523 -0.5099  0.1599  0.0723
   14MOL   C318 7624   4.759   1.427   4.645  0.4754  0.3867  0.9211
   14MOL   C319 7625   4.707   1.481   4.761  0.0145 -0.3518 -0.3444
   14MOL   C320 7626   4.785   1.480   4.878 -0.3012  0.0706  0.0887
   14MOL   C321 7627   4.914   1.419   4.877 -0.0153 -0.2891 -0.0942
   14MOL   C322 7628   5.002   1.417   5.001  0.0740 -0.0249 -0.7789
   14MOL   O323 7629   4.971   1.426   5.117  0.2563  0.0308  0.6285
   14MOL   C324 7630   4.960   1.363   4.755 -0.4943 -0.2416  1.0024
   14MOL   C325 7631   4.886   1.375   4.638  0.4987 -0.2140  0.2925
   14MOL   H326 7632   4.487   1.189   3.952 -1.1293  0.2587 -0.3233
   14MOL   H327 7633   4.453   1.255   4.109 -0.2624 -0.9322  0.8998
   14MOL   H328 7634   4.667   1.349   4.030  0.2841 -0.0069 -1.9440
   14MOL   H329 7635   4.722   1.191   3.990  0.9958  2.9266 -0.9982
   14MOL   H330 7636   4.732   1.144   4.247 -1.1819 -1.6642 -2.3054
   14MOL   H331 7637   4.830   1.282   4.186 -0.1629  0.3822  1.2169
   14MOL   H332 7638   4.661   1.432   4.240 -0.2978  0.8801  0.4466
   14MOL   H333 7639   4.555   1.316   4.322 -0.4488  3.6230  2.1194
   14MOL   H334 7640   4.606   1.517   4.767  0.9898  2.1556  2.3925
   14MOL   H335 7641   4.754   1.520   4.973  0.3848 -1.2145  0.8667
   14MOL   H336 7642   5.048   1.301   4.742  1.4524  2.6107  0.0731
   14MOL   H337 7643   4.928   1.337   4.546 -0.2510 -1.1187  0.3206
   14MOL   O338 7644   5.131   1.392   4.966  0.5174 -0.6843  0.0479
   14MOL   C339 7645   5.225   1.381   5.072  0.4394 -0.9470 -0.1883
   14MOL   C340 7646   5.368   1.351   5.027  0.0210  0.5263  0.3634
   14MOL   C341 7647   5.435   1.435   4.913 -0.7324 -0.4362  0.5328
   14MOL   C342 7648   5.453   1.586   4.945 -0.0196  0.8484  0.1709
   14MOL   O343 7649   5.335   1.657   4.928 -0.1097 -0.2555  0.0163
   14MOL   C344 7650   5.327   1.764   4.851  0.1831  0.6655 -0.1641
   14MOL   O345 7651   5.422   1.835   4.815  0.5205 -0.0393 -0.1817
   14MOL   C346 7652   5.183   1.784   4.813 -0.3044  0.1668  0.5780
   14MOL   C347 7653   5.145   1.849   4.691 -0.1219  0.1008 -0.1660
   14MOL   C348 7654   5.010   1.878   4.668  0.0855  0.7895  0.4218
   14MOL   C349 7655   4.914   1.848   4.762  1.1163  0.4374 -0.2683
   14MOL   C350 7656   4.770   1.857   4.734  0.2220  0.4550 -0.2326
   14MOL   O351 7657   4.688   1.894   4.821 -0.4530  0.5601 -0.1111
   14MOL   C352 7658   4.949   1.788   4.885 -0.3298 -0.1931  0.0629
   14MOL   C353 7659   5.078   1.754   4.906  0.0021  0.1545  0.1307
   14MOL   H354 7660   5.235   1.481   5.113 -3.7433  0.0194 -1.3163
   14MOL   H355 7661   5.189   1.315   5.151 -0.9519 -1.9236 -1.6096
   14MOL   H356 7662   5.370   1.247   4.995  0.1343  0.2953  1.0926
   14MOL   H357 7663   5.427   1.349   5.119  2.0276 -1.1082 -0.8922
   14MOL   H358 7664   5.535   1.396   4.896 -0.8508 -0.9011  0.8924
   14MOL   H359 7665   5.378   1.434   4.821 -0.4289  0.0763  0.3387
   14MOL   H360 7666   5.482   1.602   5.049  1.1407 -1.8263  0.2844
   14MOL   H361 7667   5.538   1.623   4.888  1.1555  0.1860  1.4527
   14MOL   H362 7668   5.220   1.886   4.621  0.8486 -1.8420 -0.1715
   14MOL   H363 7669   4.972   1.926   4.579 -1.0517  0.1775  0.5613
   14MOL   H364 7670   4.871   1.777   4.958 -0.0821  0.8679  0.4985
   14MOL   H365 7671   5.107   1.712   5.001 -0.0701 -0.5803 -0.1674
   14MOL   O366 7672   4.735   1.822   4.610  0.3892  0.6217  0.1176
   14MOL   C367 7673   4.605   1.795   4.572 -0.0095 -0.1781  0.3066
   14MOL   C368 7674   4.538   1.919   4.512 -0.1166  0.0926  0.7676
   14MOL   C369 7675   4.390   1.904   4.471  1.1209 -0.4368 -0.7060
   14MOL   C370 7676   4.312   2.035   4.460  0.1726 -0.7138 -0.4294
   14MOL   O371 7677   4.370   2.139   4.384 -0.6203 -0.1578 -0.1894
   14MOL   C372 7678   4.302   2.263   4.378  0.1706  0.9129  0.1034
   14MOL   O373 7679   4.204   2.287   4.450  0.1182  0.2947  0.0924
   14MOL   C374 7680   4.366   2.360   4.285  0.0111 -0.7847  0.6433
   14MOL   C375 7681   4.324   2.496   4.276 -0.2278 -0.3704  0.3746
   14MOL   C376 7682   4.389   2.583   4.187  0.2340 -0.5914 -0.6132
   14MOL   C377 7683   4.480   2.537   4.094  0.3784  0.4678  0.1756
   14MOL   C378 7684   4.536   2.627   3.992 -0.2254 -0.1026  0.2499
   14MOL   O379 7685   4.613   2.597   3.898  0.4060  0.1228  0.7724
   14MOL   C380 7686   4.523   2.404   4.095  0.1127  0.2143 -0.1933
   14MOL   C381 7687   4.466   2.314   4.193  0.3006  0.2878  0.1531
   14MOL   H382 7688   4.612   1.711   4.503 -2.6889 -1.2771  1.2987
   14MOL   H383 7689   4.544   1.751   4.651 -0.1116 -0.1423  0.2469
   14MOL   H384 7690   4.599   1.969   4.436 -0.2297  2.1290  1.9765
   14MOL   H385 7691   4.534   1.997   4.588 -2.1789  1.1972 -0.4367
   14MOL   H386 7692   4.378   1.840   4.384 -2.3282 -1.4525  0.4149
   14MOL   H387 7693   4.351   1.835   4.546  4.4069 -0.5775  0.9261
   14MOL   H388 7694   4.212   2.013   4.423 -0.1715  1.0088 -0.5410
   14MOL   H389 7695   4.299   2.067   4.563 -0.2863  0.3935 -0.8333
   14MOL   H390 7696   4.244   2.536   4.337 -0.1152  3.3828 -1.7914
   14MOL   H391 7697   4.360   2.687   4.193  0.9157 -0.4556  0.5509
   14MOL   H392 7698   4.596   2.359   4.029  0.9110 -0.2319  0.9782
   14MOL   H393 7699   4.498   2.212   4.205 -0.8363 -0.0599  0.2469
   14MOL   O394 7700   4.480   2.755   4.007 -0.1306  0.2177  0.8893
   14MOL   C395 7701   4.522   2.870   3.926 -0.2240 -0.3359 -0.5451
   14MOL   C396 7702   4.439   2.990   3.976  0.2222  0.8226  0.5199
   14MOL   C397 7703   4.491   3.122   3.915 -0.2723 -0.2120 -0.6842
   14MOL   C398 7704   4.413   3.253   3.949 -0.5215 -0.4161  0.2879
   14MOL   O399 7705   4.503   3.362   3.920 -0.5645  0.1517  0.2934
   14MOL   C400 7706   4.520   3.463   4.002  0.0422 -0.2424  0.0799
   14MOL   O401 7707   4.453   3.491   4.101 -0.1657  0.3946  0.3255
   14MOL   C402 7708   4.638   3.547   3.957 -0.4646  0.2912 -0.3413
   14MOL   C403 7709   4.689   3.651   4.039 -0.1081 -0.8284  0.7897
   14MOL   C404 7710   4.785   3.741   3.994 -0.6448 -0.4760 -0.5260
   14MOL   C405 7711   4.862   3.708   3.880 -0.4321 -0.1889 -0.0860
   14MOL   C406 7712   4.986   3.783   3.832 -0.1138 -0.3615 -0.6973
   14MOL   O407 7713   5.035   3.791   3.721  1.1470 -0.1903  0.2075
   14MOL   C408 7714   4.815   3.604   3.799  0.5523  0.2326  0.3350
   14MOL   C409 7715   4.706   3.526   3.834 -1.0456  0.1371  0.0838
   14MOL   H410 7716   4.629   2.878   3.941 -0.4766 -1.1452  1.9957
   14MOL   H411 7717   4.510   2.838   3.822 -1.4747 -0.0382 -0.5017
   14MOL   H412 7718   4.437   2.999   4.085  2.2912 -0.9532  0.7475
   14MOL   H413 7719   4.335   2.979   3.947  0.3876 -0.5835  0.4618
   14MOL   H414 7720   4.595   3.142   3.940 -0.9045  2.4535 -0.0331
   14MOL   H415 7721   4.497   3.109   3.807  0.7141 -1.8102 -0.4544
   14MOL   H416 7722   4.319   3.264   3.896 -0.3251  0.6645  0.1384
   14MOL   H417 7723   4.385   3.248   4.054 -1.0502  1.3876  0.2538
   14MOL   H418 7724   4.646   3.683   4.133 -0.6367 -0.4817  0.4359
   14MOL   H419 7725   4.819   3.828   4.048  1.0871 -1.0492 -0.6534
   14MOL   H420 7726   4.859   3.580   3.704 -1.5889 -0.3889 -0.5375
   14MOL   H421 7727   4.676   3.447   3.767 -3.2513 -1.0051  2.3473
   14MOL   O422 7728   5.033   3.837   3.940  0.4575 -0.0430 -0.5798
   14MOL   C423 7729   5.162   3.906   3.944 -0.0386 -0.5374 -0.0773
   14MOL   C424 7730   5.145   4.044   3.890 -0.0135 -0.6613  0.4379
   14MOL   C425 7731   5.086   4.137   3.989 -0.1447  0.0699 -0.1546
   14MOL   C426 7732   5.182   4.179   4.102 -0.1753  0.4780 -0.3463
   14MOL   O427 7733   5.121   4.272   4.187 -0.2795 -0.2139 -0.2738
   14MOL   C428 7734   5.184   4.315   4.298 -0.3290 -0.2698  0.5136
   14MOL   O429 7735   5.297   4.275   4.328  0.0768 -0.0003 -0.4505
   14MOL   C430 7736   5.106   4.412   4.373  0.0963 -0.0477 -0.2928
   14MOL   C431 7737   4.967   4.440   4.345 -0.4842 -0.3843 -0.0432
   14MOL   C432 7738   4.901   4.531   4.424 -0.1412  1.0848  0.5766
   14MOL   C433 7739   4.964   4.599   4.528 -0.6225  0.7500  0.1399
   14MOL   C434 7740   4.890   4.700   4.606  0.0606 -0.3589  0.8554
   14MOL   O435 7741   4.934   4.766   4.701 -0.3670  0.3233  0.0649
   14MOL   C436 7742   5.094   4.563   4.568 -0.5946  0.9018 -0.0984
   14MOL   C437 7743   5.168   4.470   4.487  1.1120  0.4102  0.4855
   14MOL   H438 7744   5.212   3.909   4.040  1.4152  1.9030 -0.8681
   14MOL   H439 7745   5.231   3.851   3.880 -1.5609 -1.6159 -0.8327
   14MOL   H440 7746   5.093   4.051   3.794  0.9926  0.4422 -0.0459
   14MOL   H441 7747   5.245   4.080   3.864 -0.5328 -0.3176 -1.1487
   14MOL   H442 7748   5.056   4.230   3.941  1.8752  0.8140  0.0111
   14MOL   H443 7749   4.991   4.111   4.036  0.6784 -1.8370  0.4882
   14MOL   H444 7750   5.194   4.094   4.169 -2.3003  0.7511  0.4210
   14MOL   H445 7751   5.270   4.230   4.062 -1.1029  1.5507 -1.0486
   14MOL   H446 7752   4.939   4.397   4.249  0.7540  1.4449 -1.2673
   14MOL   H447 7753   4.798   4.554   4.398  0.2410  2.9362  0.6604
   14MOL   H448 7754   5.140   4.610   4.653  1.2073 -1.2191  0.1388
   14MOL   H449 7755   5.264   4.443   4.527  0.5340 -1.0383  0.9674
   14MOL   O450 7756   4.765   4.729   4.560 -0.1051 -0.2315 -0.1125
   14MOL   C451 7757   4.686   4.818   4.638  0.6786 -0.3032  0.3401
   14MOL   C452 7758   4.536   4.815   4.602  0.0805  0.0816  0.3141
   14MOL   C453 7759   4.505   4.928   4.502 -0.0983 -0.5238  0.1511
   14MOL   C454 7760   4.571   4.913   4.365 -0.4507  0.1420  0.5418
   14MOL   O455 7761   4.519   5.015   4.280 -0.5569 -0.2273 -0.4312
   14MOL   C456 7762   4.396   4.998   4.229  0.1741 -0.6767 -0.1295
   14MOL   O457 7763   4.332   4.895   4.235 -0.0948 -0.6361  0.1475
   14MOL   C458 7764   4.354   5.123   4.157  0.6375 -0.3928  0.0675
   14MOL   C459 7765   4.433   5.243   4.156 -0.3317  0.3286  0.1284
   14MOL   C460 7766   4.396   5.353   4.076  0.6886 -0.2525  0.8946
   14MOL   C461 7767   4.269   5.363   4.013 -0.0826  0.0931  0.0868
   14MOL   C462 7768   4.238   5.476   3.915  0.2653  0.2705  0.0827
   14MOL   O463 7769   4.135   5.480   3.855 -0.2227  0.0312  0.4832
   14MOL   C464 7770   4.186   5.251   4.026  0.1028  0.2410 -0.1690
   14MOL   C465 7771   4.227   5.131   4.090 -0.2539  0.0793  0.1021
   14MOL   H466 7772   4.680   4.772   4.736 -1.9444  0.1285  0.4171
   14MOL   H467 7773   4.722   4.920   4.644  2.7671 -0.9139 -1.1073
   14MOL   H468 7774   4.481   4.835   4.693  0.3836  0.5929  0.3883
   14MOL   H469 7775   4.498   4.717   4.576 -2.1554  0.7962  0.8090
   14MOL   H470 7776   4.396   4.924   4.490  0.1543 -1.0047 -2.1895
   14MOL   H471 7777   4.535   5.025   4.539 -0.1109 -0.2507 -0.5529
   14MOL   H472 7778   4.679   4.920   4.379 -0.4357  0.9530  0.0487
   14MOL   H473 7779   4.538   4.822   4.315 -1.5166  0.5239  0.5433
   14MOL   H474 7780   4.534   5.241   4.196  0.7104 -1.8056 -2.4349
   14MOL   H475 7781   4.466   5.435   4.070  1.8566 -1.3282 -0.7802
   14MOL   H476 7782   4.090   5.265   3.980 -0.3002 -0.9665  0.2750
   14MOL   H477 7783   4.153   5.053   4.078 -1.5784  1.3827 -0.2985
   14MOL   O478 7784   4.346   5.563   3.896  0.6174 -0.4408  0.2730
   14MOL   C479 7785   4.337   5.648   3.787 -0.0564 -0.3627  0.2742
   14MOL   C480 7786   4.476   5.708   3.757  0.6387 -0.3647 -0.4452
   14MOL   C481 7787   4.532   5.782   3.877  0.3953 -0.1370 -0.6619
   14MOL   C482 7788   4.671   5.832   3.859 -0.1676 -0.2083  0.5642
   14MOL   O483 7789   4.704   5.924   3.966 -0.6433  0.0070 -0.5299
   14MOL   C484 7790   4.797   6.022   3.942  0.3155 -0.2788  0.7520
   14MOL   O485 7791   4.854   6.033   3.830  0.4463  0.0719 -0.2064
   14MOL   C486 7792   4.817   6.120   4.055  0.5950 -0.1500  0.2878
   14MOL   C487 7793   4.937   6.191   4.070  0.3470  0.2334  0.2810
   14MOL   C488 7794   4.951   6.293   4.167 -0.0115  0.3688 -0.1606
   14MOL   C489 7795   4.846   6.309   4.263  0.1629 -0.1339 -0.9138
   14MOL   C490 7796   4.852   6.414   4.360 -0.1323 -0.0939 -0.0135
   14MOL   O491 7797   4.784   6.407   4.464 -0.0016  0.0368 -0.1366
   14MOL   C492 7798   4.731   6.228   4.258  0.5487  0.6346 -0.2302
   14MOL   C493 7799   4.715   6.132   4.155 -0.3322 -0.7599  0.2098
   14MOL   H494 7800   4.303   5.591   3.701  0.4801 -1.4362  0.7726
   14MOL   H495 7801   4.269   5.733   3.796  1.5607  0.8068  1.9365
   14MOL   H496 7802   4.465   5.781   3.677  1.5033 -1.6866 -1.7996
   14MOL   H497 7803   4.545   5.633   3.718  1.1080 -0.5934  0.8044
   14MOL   H498 7804   4.458   5.859   3.899  0.3823  0.2644 -2.0042
   14MOL   H499 7805   4.517   5.713   3.959 -1.6993 -0.1904 -1.0472
   14MOL   H500 7806   4.747   5.754   3.868  0.3937  0.3126  0.4072
   14MOL   H501 7807   4.694   5.871   3.760  1.1591  1.7641  1.5913
   14MOL   H502 7808   5.015   6.177   3.996  0.1809 -1.8970  0.4723
   14MOL   H503 7809   5.042   6.350   4.182 -0.8182  1.3117  1.2481
   14MOL   H504 7810   4.668   6.238   4.345  1.3666 -1.0147  0.5865
   14MOL   H505 7811   4.627   6.069   4.150 -1.2672  0.5049  0.2089
   14MOL   O506 7812   4.916   6.530   4.323  0.2430 -0.7450 -0.1901
   14MOL   C507 7813   4.932   6.635   4.423  0.3644  0.0700 -0.2395
   14MOL   C508 7814   5.072   6.634   4.471  0.1554  0.1582 -0.5117
   14MOL   C509 7815   5.111   6.513   4.561  0.1327  0.0779 -0.2146
   14MOL   C510 7816   5.259   6.464   4.549  0.0267  0.3773 -0.3189
   14MOL   O511 7817   5.284   6.438   4.415 -0.2474 -0.3592 -0.4756
   14MOL   C512 7818   5.406   6.441   4.370 -0.2788  0.4622 -0.2104
   14MOL   O513 7819   5.511   6.439   4.440 -0.0542 -0.3711  0.3281
   14MOL   C514 7820   5.408   6.447   4.221 -0.1557  0.1136  0.5052
   14MOL   C515 7821   5.291   6.478   4.147  0.2321 -0.1210  0.3241
   14MOL   C516 7822   5.297   6.502   4.007 -0.9639  0.0885 -0.0390
   14MOL   C517 7823   5.417   6.482   3.938 -0.3204  0.1936  0.7308
   14MOL   C518 7824   5.415   6.503   3.784 -0.3647  0.4592 -0.3073
   14MOL   O519 7825   5.317   6.529   3.714 -0.6494  0.5515 -0.5949
   14MOL   C520 7826   5.532   6.450   4.013  0.1053 -0.1438  0.5460
   14MOL   C521 7827   5.529   6.434   4.153 -0.2914  0.1653  0.7908
   14MOL   H522 7828   4.905   6.732   4.382 -3.4978 -0.4614  0.8202
   14MOL   H523 7829   4.866   6.621   4.508  0.6191 -1.0845 -0.2243
   14MOL   H524 7830   5.079   6.709   4.550 -0.4665  0.1886 -0.4841
   14MOL   H525 7831   5.139   6.660   4.389  0.6870 -0.6316 -0.3289
   14MOL   H526 7832   5.097   6.538   4.666 -0.2222  0.0257 -0.2485
   14MOL   H527 7833   5.035   6.435   4.551  0.8433 -0.4144 -1.9238
   14MOL   H528 7834   5.320   6.543   4.593  0.0585  0.5031 -0.5922
   14MOL   H529 7835   5.277   6.384   4.621  0.6053  1.0107  0.2549
   14MOL   H530 7836   5.196   6.492   4.195 -0.4180  0.0857 -1.0008
   14MOL   H531 7837   5.208   6.516   3.948 -1.5277  0.0237  0.7963
   14MOL   H532 7838   5.633   6.439   3.977  0.0331  0.2791  0.2128
   14MOL   H533 7839   5.625   6.415   4.199 -0.6219 -1.0954  0.9778
   14MOL   O534 7840   5.544   6.485   3.745 -0.0758 -0.0796  0.5515
   14MOL   C535 7841   5.575   6.494   3.608 -0.4553  0.7895  0.2632
   14MOL   C536 7842   5.684   6.396   3.569 -0.5544 -0.1789  0.5343
   14MOL   C537 7843   5.834   6.431   3.591 -0.4876 -0.4005  0.0850
   14MOL   C538 7844   5.882   6.540   3.488 -0.5445  0.2670  0.4549
   14MOL   O539 7845   6.020   6.564   3.502 -0.1007  0.5269 -0.1401
   14MOL   C540 7846   6.068   6.671   3.569 -0.5101 -0.3692 -0.3686
   14MOL   O541 7847   6.006   6.750   3.635 -0.1597  0.0491  0.1731
   14MOL   C542 7848   6.215   6.696   3.543  0.3698  0.1641  0.2476
   14MOL   C543 7849   6.266   6.823   3.572 -0.5439  0.2622  0.3580
   14MOL   C544 7850   6.396   6.853   3.546  0.2213  0.5564  1.0179
   14MOL   C545 7851   6.481   6.759   3.478  0.3785 -0.2137  0.0014
   14MOL   C546 7852   6.621   6.804   3.443 -0.0848  0.0878  0.1860
   14MOL   O547 7853   6.697   6.743   3.368  0.3809 -0.1162  0.3515
   14MOL   C548 7854   6.435   6.629   3.452  0.8787  0.3293 -0.3403
   14MOL   C549 7855   6.308   6.596   3.491  0.2103 -0.7097  0.9320
   14MOL   H550 7856   5.488   6.457   3.554  0.2250 -3.4538  1.8394
   14MOL   H551 7857   5.595   6.595   3.571  0.2932  0.4010 -0.4256
   14MOL   H552 7858   5.684   6.377   3.461 -1.5814 -1.3410  0.7237
   14MOL   H553 7859   5.675   6.291   3.596  0.5190 -0.5975 -0.7268
   14MOL   H554 7860   5.850   6.454   3.697  1.3237 -0.2395 -0.1994
   14MOL   H555 7861   5.904   6.350   3.568  0.9081  1.2989 -1.8033
   14MOL   H556 7862   5.861   6.496   3.391  0.5274  0.3571  0.1707
   14MOL   H557 7863   5.812   6.622   3.503 -0.0264  0.4587  1.9604
   14MOL   H558 7864   6.203   6.903   3.608 -0.2595  0.0255  1.3877
   14MOL   H559 7865   6.435   6.949   3.577 -1.4100  1.7713 -0.5787
   14MOL   H560 7866   6.498   6.555   3.406 -0.4658 -0.0770 -1.5532
   14MOL   H561 7867   6.275   6.495   3.471  0.5987 -0.6670  0.0512
   14MOL   H562 7868   6.660   6.883   3.508  2.0303 -2.6491  2.3650
   15MOL     O1 7869   3.402   2.104   3.350  0.0217 -0.0883  0.1682
   15MOL     C2 7870   3.356   1.980   3.396  0.3417  0.5260  0.4728
   15MOL     C3 7871   3.428   1.956   3.531 -0.5034 -0.3334  0.0062
   15MOL     C4 7872   3.580   1.954   3.522 -0.7054 -0.6330 -0.3250
   15MOL     C5 7873   3.651   1.945   3.653 -0.6169  0.2891 -0.1567
   15MOL     O6 7874   3.595   2.042   3.745 -0.3275 -0.7574 -0.4288
   15MOL     C7 7875   3.662   2.106   3.836  0.6048  0.0672 -0.0559
   15MOL     O8 7876   3.782   2.104   3.854  0.9256  0.0337  0.6333
   15MOL     C9 7877   3.574   2.191   3.921  0.2669  0.3457 -0.4884
   15MOL    C10 7878   3.624   2.294   4.006 -0.2784 -0.3117 -0.1047
   15MOL    C11 7879   3.537   2.370   4.085 -0.4541  0.0483 -0.6678
   15MOL    C12 7880   3.400   2.348   4.086 -0.2629  0.6192 -0.3255
   15MOL    C13 7881   3.315   2.429   4.177  0.8314 -0.0537  0.8327
   15MOL    O14 7882   3.191   2.418   4.178 -0.0491 -0.0669 -0.3459
   15MOL    C15 7883   3.349   2.249   4.000  0.3676 -0.5176 -0.0306
   15MOL    C16 7884   3.434   2.169   3.926 -0.1003 -0.1379  0.2666
   15MOL    H17 7885   3.248   1.973   3.403  0.3030 -0.2925 -0.7177
   15MOL    H18 7886   3.395   1.906   3.326 -0.7888  2.8568 -2.7867
   15MOL    H19 7887   3.407   1.852   3.556 -1.9737  0.4083  1.9614
   15MOL    H20 7888   3.394   2.017   3.614 -1.4993 -0.3281 -0.4037
   15MOL    H21 7889   3.599   1.871   3.454 -1.0387  0.1942 -1.4420
   15MOL    H22 7890   3.613   2.047   3.476  0.2567 -0.2569  1.1161
   15MOL    H23 7891   3.640   1.842   3.687  1.1984  0.1026 -0.0738
   15MOL    H24 7892   3.756   1.968   3.640 -0.5748  0.2451  0.1023
   15MOL    H25 7893   3.731   2.312   4.014 -0.2906 -0.6378  0.8406
   15MOL    H26 7894   3.578   2.441   4.155  0.1869 -0.0286 -0.9654
   15MOL    H27 7895   3.245   2.220   4.000  1.2862 -4.1253 -1.6186
   15MOL    H28 7896   3.391   2.104   3.851  0.2514  1.5303 -1.4074
   15MOL    H29 7897   3.362   2.172   3.402 -0.2130  1.7602 -2.3524
   15MOL    O30 7898   3.386   2.511   4.259  0.1002  0.3408 -0.6580
   15MOL    C31 7899   3.312   2.585   4.361  0.1160 -0.5663 -0.3751
   15MOL    C32 7900   3.273   2.722   4.309 -0.1269 -0.2566  0.5473
   15MOL    C33 7901   3.395   2.817   4.307  0.8514  0.9608 -0.7833
   15MOL    C34 7902   3.352   2.963   4.287  0.3594  0.2407 -0.0348
   15MOL    O35 7903   3.266   2.994   4.396 -0.6696 -0.3363  0.6513
   15MOL    C36 7904   3.215   3.117   4.390  0.5243  0.0096 -0.8160
   15MOL    O37 7905   3.228   3.207   4.300  0.3656 -0.1941 -0.1379
   15MOL    C38 7906   3.149   3.137   4.519 -0.0623 -0.1896  0.2567
   15MOL    C39 7907   3.086   3.260   4.543 -0.2919  0.1230 -0.0780
   15MOL    C40 7908   3.029   3.297   4.669  0.2786  0.4753 -0.0581
   15MOL    C41 7909   3.018   3.196   4.768  0.2353  1.0727  0.7802
   15MOL    C42 7910   2.963   3.237   4.899  0.5110 -0.0856  0.3900
   15MOL    O43 7911   2.922   3.346   4.925 -0.4515  0.1040 -0.0132
   15MOL    C44 7912   3.074   3.067   4.741  0.1699 -0.4021  0.4026
   15MOL    C45 7913   3.135   3.039   4.621 -0.4156  0.2187 -0.0168
   15MOL    H46 7914   3.223   2.529   4.388 -0.7203 -0.9743 -3.6850
   15MOL    H47 7915   3.362   2.591   4.458 -0.8497  1.5869  0.0057
   15MOL    H48 7916   3.190   2.759   4.368 -0.4116  1.0836 -0.6578
   15MOL    H49 7917   3.238   2.714   4.206 -1.8209 -3.1771  1.2717
   15MOL    H50 7918   3.445   2.806   4.404 -1.2348  0.1473  0.2459
   15MOL    H51 7919   3.473   2.786   4.237  0.2978  0.2603 -1.0944
   15MOL    H52 7920   3.437   3.030   4.298  0.9323 -0.2290 -1.5230
   15MOL    H53 7921   3.295   2.986   4.196  1.5922 -1.5851 -1.2897
   15MOL    H54 7922   3.095   3.344   4.475 -1.3184  1.0093  0.8726
   15MOL    H55 7923   2.997   3.398   4.692  0.9947  0.2997  1.7447
   15MOL    H56 7924   3.080   2.988   4.815 -0.9213 -0.7231  0.1514
   15MOL    H57 7925   3.170   2.939   4.599 -1.0215 -0.0384  0.1665
   15MOL    O58 7926   2.961   3.133   4.985  0.1003  0.4949  0.4645
   15MOL    C59 7927   2.902   3.147   5.116 -0.3383  1.0353  0.0062
   15MOL    C60 7928   2.897   3.006   5.186  0.6301 -0.3793 -0.2470
   15MOL    C61 7929   3.027   2.979   5.273 -1.1157 -0.2637 -0.1854
   15MOL    C62 7930   3.016   2.845   5.348 -0.1547 -0.3658  0.2584
   15MOL    O63 7931   3.002   2.735   5.263 -0.1566  0.1307  0.1095
   15MOL    C64 7932   2.898   2.649   5.268  0.1075  0.0045 -0.4294
   15MOL    O65 7933   2.786   2.683   5.315  0.4187  0.2409  0.1533
   15MOL    C66 7934   2.919   2.511   5.202 -0.3979  0.0566  0.2345
   15MOL    C67 7935   2.822   2.409   5.220 -0.0666 -0.6155 -0.9438
   15MOL    C68 7936   2.840   2.287   5.163  0.2128 -0.5978  0.0265
   15MOL    C69 7937   2.951   2.260   5.086  0.0503 -0.5065  0.1215
   15MOL    C70 7938   2.970   2.122   5.037  0.0910  0.0784  0.1832
   15MOL    O71 7939   2.891   2.033   5.062  0.2181  0.1785  0.2230
   15MOL    C72 7940   3.052   2.358   5.064 -0.2231  0.6794 -0.0106
   15MOL    C73 7941   3.040   2.483   5.132 -0.7709  0.1041 -0.2674
   15MOL    H74 7942   2.949   3.227   5.173  1.8854 -1.7870  2.2899
   15MOL    H75 7943   2.803   3.191   5.105  0.3168  2.3946 -0.6269
   15MOL    H76 7944   2.886   2.918   5.124 -1.0623  0.2581 -0.9017
   15MOL    H77 7945   2.809   3.006   5.251  0.4141 -1.7242 -0.5439
   15MOL    H78 7946   3.122   2.986   5.220 -1.2795  0.8726 -0.3410
   15MOL    H79 7947   3.021   3.056   5.351  1.7692  2.1873 -2.2513
   15MOL    H80 7948   3.099   2.831   5.417  0.7504  0.2626 -0.6941
   15MOL    H81 7949   2.927   2.849   5.411  0.8513  0.1551  1.6702
   15MOL    H82 7950   2.736   2.425   5.283 -0.1697  2.4286 -1.7966
   15MOL    H83 7951   2.761   2.216   5.183  0.0137 -0.0219  1.3965
   15MOL    H84 7952   3.135   2.333   5.000 -1.2394 -1.2585 -0.5905
   15MOL    H85 7953   3.117   2.559   5.123 -2.1742  1.4466 -1.1559
   15MOL    O86 7954   3.083   2.106   4.964 -0.5054 -0.1366  0.3022
   15MOL    C87 7955   3.119   1.989   4.903 -0.2348 -0.0125  0.6464
   15MOL    C88 7956   3.230   1.922   4.985  0.7709  0.2142  0.5845
   15MOL    C89 7957   3.185   1.805   5.073  0.4649  0.2216  0.2446
   15MOL    C90 7958   3.245   1.802   5.217  0.9272 -0.3434  0.3888
   15MOL    O91 7959   3.207   1.915   5.293  0.3045 -0.1965  0.0737
   15MOL    C92 7960   3.207   1.910   5.425  0.3132 -0.2833  0.8830
   15MOL    O93 7961   3.234   1.810   5.485 -0.4459 -0.1531 -0.5184
   15MOL    C94 7962   3.182   2.046   5.481  0.7268  0.2405  0.0657
   15MOL    C95 7963   3.129   2.153   5.398  0.0583  0.6242 -0.0051
   15MOL    C96 7964   3.109   2.278   5.452 -0.5026 -0.4087 -0.4965
   15MOL    C97 7965   3.146   2.306   5.584  0.4734 -0.1143  0.2081
   15MOL    C98 7966   3.156   2.447   5.626 -0.3645  0.1964  0.5619
   15MOL    O99 7967   3.089   2.534   5.572 -0.2772 -0.2566 -0.3478
   15MOL   C100 7968   3.191   2.205   5.669 -0.0444 -0.2889 -0.2303
   15MOL   C101 7969   3.210   2.073   5.620 -0.0058 -0.0900  0.0433
   15MOL   H102 7970   3.040   1.919   4.876  1.0985 -2.2175  2.2887
   15MOL   H103 7971   3.158   1.993   4.802  0.9506 -2.1944  1.0073
   15MOL   H104 7972   3.270   2.002   5.048 -0.4457 -0.5488  2.3683
   15MOL   H105 7973   3.299   1.890   4.907 -1.5299  0.3382 -1.5545
   15MOL   H106 7974   3.078   1.807   5.094  0.5598  0.5840  0.6958
   15MOL   H107 7975   3.212   1.711   5.025 -2.1587 -1.0178  1.1176
   15MOL   H108 7976   3.217   1.713   5.274  0.6756  0.7407  1.9997
   15MOL   H109 7977   3.353   1.810   5.202  0.7817  2.2000  0.6405
   15MOL   H110 7978   3.103   2.130   5.296  2.4352  0.9643 -0.7165
   15MOL   H111 7979   3.079   2.365   5.395  0.9024 -0.5932 -1.5614
   15MOL   H112 7980   3.221   2.215   5.772  0.7187  0.2671 -0.5054
   15MOL   H113 7981   3.258   1.997   5.680  2.3868  0.1017 -1.5718
   15MOL   O114 7982   3.246   2.466   5.729  0.7047 -0.3792 -0.0221
   15MOL   C115 7983   3.265   2.596   5.786 -0.6508 -0.1911 -0.5442
   15MOL   C116 7984   3.406   2.633   5.731 -0.1834  0.3376  0.5691
   15MOL   C117 7985   3.452   2.771   5.785  0.7105  0.6620 -0.2375
   15MOL   C118 7986   3.533   2.776   5.921 -0.1627  0.4901  0.3663
   15MOL   O119 7987   3.650   2.707   5.894  0.1126 -0.2578  0.3032
   15MOL   C120 7988   3.731   2.684   6.000 -0.0426  0.2709  0.6800
   15MOL   O121 7989   3.716   2.733   6.114  0.0028 -0.3687 -0.1748
   15MOL   C122 7990   3.849   2.594   5.964 -0.3294  0.0102  0.1226
   15MOL   C123 7991   3.947   2.562   6.062 -0.2545 -0.1374 -0.8258
   15MOL   C124 7992   4.051   2.468   6.028  0.5016  0.1320  0.6335
   15MOL   C125 7993   4.055   2.422   5.894  0.5790  0.1199  0.5434
   15MOL   C126 7994   4.150   2.321   5.847 -0.0240  0.1536  0.4257
   15MOL   O127 7995   4.147   2.267   5.739 -0.1299 -0.8077 -0.1403
   15MOL   C128 7996   3.976   2.474   5.793  0.3427  0.2655 -0.0198
   15MOL   C129 7997   3.868   2.555   5.830 -0.9232 -0.1312 -0.4385
   15MOL   H130 7998   3.185   2.663   5.752 -0.2527  1.1965  1.2270
   15MOL   H131 7999   3.267   2.588   5.895 -1.8685  0.4343 -0.4610
   15MOL   H132 8000   3.389   2.642   5.624 -0.7356 -0.8569  0.5524
   15MOL   H133 8001   3.485   2.560   5.748 -2.3612 -2.3522 -0.6692
   15MOL   H134 8002   3.511   2.806   5.701  2.1367 -4.2373 -1.4547
   15MOL   H135 8003   3.366   2.839   5.782  0.3336  0.2405  0.6317
   15MOL   H136 8004   3.555   2.877   5.956 -2.4994  1.4539 -0.8231
   15MOL   H137 8005   3.480   2.726   6.001 -0.1832 -0.3392 -0.1629
   15MOL   H138 8006   3.945   2.600   6.163  0.1082 -1.8322 -0.1712
   15MOL   H139 8007   4.106   2.419   6.107  1.1848  1.1717  0.8046
   15MOL   H140 8008   3.995   2.454   5.688 -0.5128  2.1781 -0.5613
   15MOL   H141 8009   3.809   2.603   5.754 -0.8225 -1.2394 -1.2204
   15MOL   O142 8010   4.246   2.298   5.941  0.3068  0.3000 -0.6228
   15MOL   C143 8011   4.357   2.214   5.908 -0.3199 -0.2516 -0.1186
   15MOL   C144 8012   4.451   2.205   6.032  0.4165 -0.5341  0.3674
   15MOL   C145 8013   4.587   2.141   6.002 -0.7056 -0.5791 -0.5741
   15MOL   C146 8014   4.669   2.085   6.122 -0.3237  0.1662 -0.1039
   15MOL   O147 8015   4.800   2.064   6.077  0.6193 -0.2872 -0.9411
   15MOL   C148 8016   4.882   1.995   6.158 -0.0698 -0.1300  0.4003
   15MOL   O149 8017   4.846   1.933   6.254 -0.2482  0.1840 -0.6303
   15MOL   C150 8018   5.025   2.008   6.118 -0.2109  0.4651  0.3675
   15MOL   C151 8019   5.120   1.919   6.174  0.1420 -0.2220 -0.1480
   15MOL   C152 8020   5.253   1.933   6.142 -0.3594  0.3572  0.3349
   15MOL   C153 8021   5.302   2.032   6.060 -0.9276 -0.1532 -1.1361
   15MOL   C154 8022   5.445   2.028   6.018  0.2562  0.3914 -0.3925
   15MOL   O155 8023   5.484   2.102   5.932  0.4254  0.1624  0.4957
   15MOL   C156 8024   5.212   2.118   6.002  0.1459 -0.0035 -0.0997
   15MOL   C157 8025   5.067   2.102   6.016  0.5591 -0.1068  0.1668
   15MOL   H158 8026   4.311   2.116   5.891 -2.1473  0.8295 -1.7178
   15MOL   H159 8027   4.408   2.236   5.814  0.8806  3.2253  1.2527
   15MOL   H160 8028   4.394   2.160   6.113 -2.2637 -1.7036 -2.0859
   15MOL   H161 8029   4.461   2.306   6.071 -2.2094 -0.3985  0.7585
   15MOL   H162 8030   4.567   2.056   5.937  2.3834 -0.6613 -1.4899
   15MOL   H163 8031   4.644   2.215   5.946  1.6842  0.5060  3.1109
   15MOL   H164 8032   4.678   2.152   6.207  0.8966  1.6566 -1.3719
   15MOL   H165 8033   4.616   1.994   6.150 -1.9528  1.0840 -0.1328
   15MOL   H166 8034   5.092   1.851   6.253  1.9704  0.8064  1.4200
   15MOL   H167 8035   5.321   1.862   6.186 -0.2246 -0.4247 -1.0844
   15MOL   H168 8036   5.242   2.202   5.942  0.4167 -0.4392 -0.5765
   15MOL   H169 8037   4.999   2.175   5.975  0.4646  1.1220  2.4075
   15MOL   O170 8038   5.518   1.935   6.070  0.3399 -0.4276 -0.0465
   15MOL   C171 8039   5.650   1.898   6.022 -0.1379 -0.4278  0.3494
   15MOL   C172 8040   5.712   1.797   6.118 -0.4228 -0.7006  0.1538
   15MOL   C173 8041   5.634   1.665   6.114  0.6823  0.5703  0.0719
   15MOL   C174 8042   5.672   1.566   6.229 -0.1961 -0.2794 -0.2220
   15MOL   O175 8043   5.809   1.590   6.256  0.4298  0.2095 -0.1788
   15MOL   C176 8044   5.862   1.518   6.358 -0.2262 -0.5153 -0.7016
   15MOL   O177 8045   5.796   1.438   6.422 -0.5118 -0.2131  0.2437
   15MOL   C178 8046   6.003   1.565   6.403  0.6995  0.4298 -0.7646
   15MOL   C179 8047   6.092   1.628   6.319  0.0701 -0.3735 -0.1973
   15MOL   C180 8048   6.220   1.660   6.365  0.5809  0.0902 -0.2180
   15MOL   C181 8049   6.261   1.640   6.499 -0.5011 -0.0328 -0.0023
   15MOL   C182 8050   6.403   1.679   6.538  0.7305 -0.6640 -0.0609
   15MOL   O183 8051   6.457   1.632   6.637  0.3261 -0.0064  0.0218
   15MOL   C184 8052   6.177   1.563   6.584  0.4462 -0.6855  0.8609
   15MOL   C185 8053   6.051   1.530   6.532  0.2488  0.7951 -0.0647
   15MOL   H186 8054   5.651   1.856   5.922  0.3682  2.9243 -1.1251
   15MOL   H187 8055   5.710   1.989   6.013 -2.0520  1.1140  2.2879
   15MOL   H188 8056   5.707   1.835   6.220  1.1286 -0.0467 -0.0009
   15MOL   H189 8057   5.817   1.780   6.095 -0.2375  0.4501  0.1018
   15MOL   H190 8058   5.526   1.675   6.116  0.9091  3.0424  2.1554
   15MOL   H191 8059   5.663   1.618   6.020  1.2056  0.1423  0.4422
   15MOL   H192 8060   5.611   1.573   6.318 -1.1544 -3.3253 -0.6155
   15MOL   H193 8061   5.667   1.467   6.185 -2.6627 -0.0700 -0.4498
   15MOL   H194 8062   6.067   1.665   6.220  1.7643 -1.9510 -1.2406
   15MOL   H195 8063   6.288   1.693   6.288  1.3201 -0.4134  0.2100
   15MOL   H196 8064   6.216   1.528   6.679 -1.6221  1.6271  2.6264
   15MOL   H197 8065   5.981   1.470   6.589  0.1708  0.7714 -0.1857
   15MOL   O198 8066   6.439   1.795   6.476 -0.3049  0.5672  0.1605
   15MOL   C199 8067   6.556   1.862   6.514 -0.4018  1.0024 -0.5812
   15MOL   C200 8068   6.514   2.005   6.575 -0.9797 -0.3572  0.4660
   15MOL   C201 8069   6.424   2.010   6.704 -0.1335  0.0926 -0.1274
   15MOL   C202 8070   6.278   1.992   6.681  0.0506  0.2701 -0.0014
   15MOL   O203 8071   6.201   2.008   6.806  0.3830  0.1660  0.1670
   15MOL   C204 8072   6.098   2.099   6.810 -0.0720 -0.1852 -0.3073
   15MOL   O205 8073   6.057   2.152   6.709 -0.9848 -0.2874 -0.4865
   15MOL   C206 8074   6.060   2.120   6.956 -0.0549 -0.4827 -0.1699
   15MOL   C207 8075   6.128   2.059   7.060 -0.1071  0.0052 -0.4388
   15MOL   C208 8076   6.102   2.093   7.192 -0.0434  0.2025  0.2787
   15MOL   C209 8077   5.994   2.181   7.219 -0.2604  0.3964 -0.0274
   15MOL   C210 8078   5.974   2.239   7.352  0.8038 -0.0182 -0.0334
   15MOL   O211 8079   5.892   2.318   7.386  0.3678  0.6278 -0.1079
   15MOL   C212 8080   5.921   2.240   7.111 -0.7710  0.5916 -0.0362
   15MOL   C213 8081   5.957   2.209   6.982  0.8511 -0.0011 -0.4939
   15MOL   H214 8082   6.619   1.809   6.584 -4.9305 -1.7727  1.6290
   15MOL   H215 8083   6.612   1.864   6.420 -0.5102  1.1926 -0.6420
   15MOL   H216 8084   6.479   2.080   6.504  0.4478 -0.5595 -0.4898
   15MOL   H217 8085   6.612   2.041   6.606 -0.6382 -0.7000 -0.1968
   15MOL   H218 8086   6.454   1.929   6.771  0.9059  0.4581 -0.1454
   15MOL   H219 8087   6.441   2.106   6.753 -0.3357  0.5241 -0.8974
   15MOL   H220 8088   6.231   2.049   6.601  0.1770  1.5874  0.8469
   15MOL   H221 8089   6.275   1.888   6.648  2.3639 -0.3360  1.5914
   15MOL   H222 8090   6.207   1.986   7.051  1.2022  1.3045  0.3890
   15MOL   H223 8091   6.167   2.057   7.271  1.7069  0.1839 -1.1426
   15MOL   H224 8092   5.837   2.302   7.136 -1.4179  0.0565 -0.8315
   15MOL   H225 8093   5.904   2.256   6.900 -0.1867  0.0732  0.2116
   15MOL   O226 8094   6.052   2.176   7.443 -0.3563 -0.2607  0.0783
   15MOL   C227 8095   6.068   2.233   7.573 -0.1074  0.6620 -0.5366
   15MOL   C228 8096   6.128   2.126   7.664  0.1096  0.2426 -1.5418
   15MOL   C229 8097   6.168   2.191   7.800 -0.8250 -0.4220  0.8595
   15MOL   C230 8098   6.238   2.082   7.886  0.2830  0.9029 -0.7697
   15MOL   O231 8099   6.136   2.007   7.955 -0.4619 -0.2429 -0.3124
   15MOL   C232 8100   6.182   1.893   8.025  0.0288 -0.6251  0.2922
   15MOL   O233 8101   6.302   1.868   8.038 -0.3929  0.4825  0.1258
   15MOL   C234 8102   6.075   1.825   0.002  0.2406 -0.2017  0.2608
   15MOL   C235 8103   6.106   1.750   0.113  0.5173  0.1932 -0.7782
   15MOL   C236 8104   6.010   1.656   0.164  0.2212 -0.2275  0.5966
   15MOL   C237 8105   5.877   1.654   0.116  0.2070 -0.6261 -0.3468
   15MOL   C238 8106   5.774   1.568   0.175 -0.0693 -0.0719  0.4649
   15MOL   O239 8107   5.794   1.465   0.245 -0.2886 -0.0231 -0.6535
   15MOL   C240 8108   5.843   1.747   0.016 -0.2013  0.2238  0.2006
   15MOL   C241 8109   5.939   1.835   8.063 -0.4800  0.8578  0.8691
   15MOL   H242 8110   6.130   2.322   7.560 -0.7001  0.9571 -1.3777
   15MOL   H243 8111   5.969   2.267   7.606 -0.0751 -0.0423  0.2841
   15MOL   H244 8112   6.212   2.073   7.619  1.4430  2.0440 -1.2309
   15MOL   H245 8113   6.054   2.048   7.683  0.9512 -0.3628 -0.7033
   15MOL   H246 8114   6.243   2.264   7.768 -1.3160 -0.6846 -0.9517
   15MOL   H247 8115   6.086   2.249   7.842  0.8261  0.9441  2.2703
   15MOL   H248 8116   6.296   2.012   7.826  1.4361  0.6404  0.6292
   15MOL   H249 8117   6.292   2.122   7.972 -1.2138 -0.1081  0.6439
   15MOL   H250 8118   6.210   1.743   0.143  0.0058  0.5183  1.1383
   15MOL   H251 8119   6.030   1.585   0.243  2.7286 -1.9676 -1.5033
   15MOL   H252 8120   5.743   1.754   8.073  0.6134  1.1289 -1.6787
   15MOL   H253 8121   5.916   1.888   7.972 -3.0017 -1.5204  0.0334
   15MOL   O254 8122   5.652   1.611   0.146  0.0750  0.1902  0.1952
   15MOL   C255 8123   5.539   1.547   0.185  0.4034 -0.2712  0.2491
   15MOL   C256 8124   5.521   1.417   0.102 -0.2951  0.0032 -0.2220
   15MOL   C257 8125   5.378   1.371   0.086 -0.3514 -0.3578 -0.8893
   15MOL   C258 8126   5.339   1.238   0.161  0.7683 -0.6651  0.3768
   15MOL   O259 8127   5.364   1.261   0.295  0.2725  0.2142  0.1794
   15MOL   C260 8128   5.302   1.194   0.387  0.5020 -0.1963 -0.2133
   15MOL   O261 8129   5.217   1.106   0.368  0.6457  0.3863 -0.1862
   15MOL   C262 8130   5.341   1.245   0.518 -0.2916 -0.4186  0.4841
   15MOL   C263 8131   5.259   1.200   0.624 -0.4093 -0.5451 -0.8281
   15MOL   C264 8132   5.267   1.269   0.750  0.1491  0.1399  0.6339
   15MOL   C265 8133   5.376   1.365   0.768 -0.3106 -0.1369  0.3726
   15MOL   C266 8134   5.393   1.425   0.903  1.0252 -0.3778 -1.0101
   15MOL   O267 8135   5.309   1.417   0.996  0.1758  0.0665 -0.1803
   15MOL   C268 8136   5.462   1.392   0.658 -0.0745 -0.3957 -0.5279
   15MOL   C269 8137   5.443   1.339   0.536 -0.2461  0.3317  0.2374
   15MOL   H270 8138   5.541   1.521   0.291 -0.2680  0.9019  0.5614
   15MOL   H271 8139   5.462   1.622   0.169 -0.4218 -1.3118 -0.6978
   15MOL   H272 8140   5.594   1.347   0.143  2.5964  3.0320  0.0307
   15MOL   H273 8141   5.559   1.435   0.001  1.5822  1.4219  0.7006
   15MOL   H274 8142   5.316   1.454   0.119  0.0768  0.0229 -1.0349
   15MOL   H275 8143   5.362   1.357   8.078 -2.5372 -1.6697 -0.4095
   15MOL   H276 8144   5.235   1.205   0.151  1.1959 -2.5186  1.7340
   15MOL   H277 8145   5.388   1.148   0.125  2.1353 -0.0601  0.7196
   15MOL   H278 8146   5.182   1.126   0.605 -0.6303 -0.6309  0.3803
   15MOL   H279 8147   5.205   1.237   0.833  0.7296 -0.5132  0.8228
   15MOL   H280 8148   5.544   1.461   0.674  0.1220 -0.1684 -2.3997
   15MOL   H281 8149   5.506   1.379   0.458  0.6820 -0.7267  0.4374
   15MOL   O282 8150   5.513   1.483   0.921  0.2259 -0.8262 -0.0031
   15MOL   C283 8151   5.554   1.543   1.046 -0.5587  0.5556  1.1657
   15MOL   C284 8152   5.634   1.673   1.049  0.2897  0.0430 -0.0714
   15MOL   C285 8153   5.549   1.787   0.992  0.4533  0.5033 -0.4667
   15MOL   C286 8154   5.614   1.930   1.015 -0.2368  0.3868 -0.2716
   15MOL   O287 8155   5.727   1.962   0.937  0.8874  0.3579 -0.4040
   15MOL   C288 8156   5.723   2.067   0.857  0.1014  0.6056 -0.2431
   15MOL   O289 8157   5.630   2.145   0.850 -0.0154 -0.6346 -0.2784
   15MOL   C290 8158   5.851   2.084   0.773 -0.0682 -0.1607 -0.4258
   15MOL   C291 8159   5.954   1.989   0.783 -0.0145  0.0668  0.3601
   15MOL   C292 8160   6.067   2.003   0.702 -0.5152 -0.2327 -0.4508
   15MOL   C293 8161   6.100   2.124   0.637 -0.3160  0.1844 -0.5456
   15MOL   C294 8162   6.242   2.148   0.583 -0.4636 -0.2605 -0.0524
   15MOL   O295 8163   6.277   2.254   0.537 -0.0762 -0.4574 -0.3579
   15MOL   C296 8164   6.002   2.222   0.629 -0.1620  0.4215  0.0052
   15MOL   C297 8165   5.876   2.196   0.692  0.4863 -0.3038  0.0102
   15MOL   H298 8166   5.469   1.553   1.114 -1.1298 -0.1964  0.5783
   15MOL   H299 8167   5.621   1.468   1.090 -1.7685 -1.1050  0.2512
   15MOL   H300 8168   5.736   1.681   1.011  0.8412  0.6231  1.5012
   15MOL   H301 8169   5.638   1.674   1.158 -1.8708  1.9256  0.0133
   15MOL   H302 8170   5.508   1.766   0.893  1.8724  2.3175 -1.4736
   15MOL   H303 8171   5.467   1.777   1.063 -0.6606  0.9775 -1.6569
   15MOL   H304 8172   5.533   2.002   0.998  0.5225  1.2971 -0.0720
   15MOL   H305 8173   5.656   1.931   1.115  1.0105 -0.0370 -0.7890
   15MOL   H306 8174   5.944   1.914   0.861  1.4700  0.5904  1.0677
   15MOL   H307 8175   6.144   1.928   0.707 -0.0938  0.0971 -1.7711
   15MOL   H308 8176   6.019   2.318   0.583  0.7051  0.4328  0.3372
   15MOL   H309 8177   5.796   2.268   0.685  0.0126 -0.7765  0.4556
   15MOL   O310 8178   6.314   2.035   0.588  0.2980  0.3398  0.5432
   15MOL   C311 8179   6.439   2.036   0.526 -0.2563 -0.0310 -0.1891
   15MOL   C312 8180   6.473   1.894   0.484  0.2134  0.7564 -0.5234
   15MOL   C313 8181   6.366   1.827   0.408  0.5326 -0.3278  0.2286
   15MOL   C314 8182   6.399   1.681   0.374  0.1019 -0.3424 -0.7070
   15MOL   O315 8183   6.523   1.679   0.289 -0.3827 -0.1283  0.0142
   15MOL   C316 8184   6.535   1.581   0.196  0.0083  0.1313 -0.3656
   15MOL   O317 8185   6.443   1.510   0.152 -0.1737  0.4060 -0.1560
   15MOL   C318 8186   6.679   1.570   0.157  0.0207 -0.2384 -0.1830
   15MOL   C319 8187   6.717   1.449   0.096  0.5672  0.2571  0.4422
   15MOL   C320 8188   6.848   1.420   0.055 -0.8215  0.0674  0.1198
   15MOL   C321 8189   6.947   1.520   0.079 -0.1510  0.2002 -0.2583
   15MOL   C322 8190   7.090   1.506   0.043  0.3913  0.5466  0.0809
   15MOL   O323 8191   7.170   1.597   0.041 -0.7358  0.0959 -0.0576
   15MOL   C324 8192   6.907   1.641   0.139  0.4266  0.8899 -0.0887
   15MOL   C325 8193   6.775   1.665   0.175  0.6056  0.0207 -0.4457
   15MOL   H326 8194   6.447   2.105   0.443 -1.7999  2.5026  1.6952
   15MOL   H327 8195   6.509   2.072   0.602 -0.0305  0.7187 -0.7489
   15MOL   H328 8196   6.511   1.841   0.571 -1.3509  1.2367  0.4772
   15MOL   H329 8197   6.562   1.907   0.423  0.7773 -1.2751 -0.1703
   15MOL   H330 8198   6.276   1.812   0.468  0.1832  0.9144  0.0367
   15MOL   H331 8199   6.331   1.891   0.326  1.0095  0.5461  0.6935
   15MOL   H332 8200   6.413   1.624   0.466  2.6416  1.1469 -0.1428
   15MOL   H333 8201   6.315   1.638   0.319  0.0091  0.6242 -1.3298
   15MOL   H334 8202   6.649   1.369   0.071 -0.7777  1.6718 -0.5046
   15MOL   H335 8203   6.861   1.323   0.010  1.0266 -0.5676  1.9538
   15MOL   H336 8204   6.981   1.717   0.160  0.3856  0.3841  2.0102
   15MOL   H337 8205   6.750   1.758   0.224 -1.2367 -0.7144  0.0594
   15MOL   O338 8206   7.126   1.381   0.004  0.3384 -0.1413  0.2032
   15MOL   C339 8207   7.264   1.356   8.078  0.2122  0.2543  0.6218
   15MOL   C340 8208   7.287   1.202   8.080 -0.0029 -0.4282 -0.0485
   15MOL   C341 8209   7.309   1.151   7.940  0.4461 -0.3396 -0.7555
   15MOL   C342 8210   7.191   1.179   7.858 -0.4369  0.3197  0.1029
   15MOL   O343 8211   7.069   1.121   7.907 -0.1574  0.3441 -0.3147
   15MOL   C344 8212   6.947   1.170   7.869  0.2432 -0.1682  0.0280
   15MOL   O345 8213   6.933   1.260   7.784  0.1148 -0.2737  0.0645
   15MOL   C346 8214   6.835   1.111   7.945  0.4575 -0.3301 -0.3633
   15MOL   C347 8215   6.856   1.043   8.065 -0.2510  0.1732 -0.4397
   15MOL   C348 8216   6.748   0.993   0.040 -0.4602 -0.4491  0.2184
   15MOL   C349 8217   6.616   1.016   0.003  0.0223 -0.2534  0.3779
   15MOL   C350 8218   6.501   0.968   0.082  0.1969  0.1402  0.0645
   15MOL   O351 8219   6.514   0.901   0.182  0.1665  0.0257 -0.5695
   15MOL   C352 8220   6.590   1.089   7.985 -0.1354  0.3850  0.0386
   15MOL   C353 8221   6.700   1.139   7.907 -0.1574 -0.4825  0.0844
   15MOL   H354 8222   7.297   1.400   7.984  1.2559 -1.2733  0.2515
   15MOL   H355 8223   7.318   1.398   0.064  0.5258  0.5567  0.2673
   15MOL   H356 8224   7.202   1.158   0.035 -0.6923 -0.1180 -0.8807
   15MOL   H357 8225   7.371   1.180   0.048 -0.4601 -0.2117  0.6114
   15MOL   H358 8226   7.398   1.192   7.891  0.7331  0.4373  0.3772
   15MOL   H359 8227   7.323   1.044   7.957 -0.7117 -0.1900  1.3945
   15MOL   H360 8228   7.171   1.285   7.841  1.5812  0.8345  0.7213
   15MOL   H361 8229   7.213   1.137   7.760  0.2452 -1.5939  1.0596
   15MOL   H362 8230   6.957   1.023   0.001 -0.5253  0.4536  0.5163
   15MOL   H363 8231   6.757   0.942   0.135 -0.1552  3.2332  2.2477
   15MOL   H364 8232   6.492   1.120   7.955 -0.5374  0.3263  1.2599
   15MOL   H365 8233   6.675   1.202   7.822  1.0056 -0.2328 -0.0808
   15MOL   O366 8234   6.379   0.977   0.026 -0.4659  0.0128  0.7505
   15MOL   C367 8235   6.251   0.931   0.088 -0.5971 -0.2002  0.5840
   15MOL   C368 8236   6.200   1.040   0.181  0.1399  1.2582  0.2850
   15MOL   C369 8237   6.156   1.175   0.116 -0.6316 -0.6518 -0.1384
   15MOL   C370 8238   6.126   1.284   0.214  0.4425 -0.6411  0.2848
   15MOL   O371 8239   6.246   1.296   0.291 -0.8620 -0.0782  0.4894
   15MOL   C372 8240   6.235   1.289   0.427 -0.1814 -0.5976 -0.0058
   15MOL   O373 8241   6.129   1.259   0.482  0.1531 -0.2563 -0.2589
   15MOL   C374 8242   6.362   1.313   0.505  0.2093 -0.1151 -0.8224
   15MOL   C375 8243   6.488   1.312   0.444  0.0691  0.0615 -0.3052
   15MOL   C376 8244   6.608   1.344   0.515 -0.3713  0.0583 -0.3232
   15MOL   C377 8245   6.606   1.364   0.654  0.5840 -0.1866  0.2402
   15MOL   C378 8246   6.731   1.387   0.733  0.0697  0.4682  0.4578
   15MOL   O379 8247   6.738   1.390   0.858 -0.0142 -0.1755  0.2748
   15MOL   C380 8248   6.478   1.360   0.716 -0.2186  0.7783 -0.3530
   15MOL   C381 8249   6.360   1.332   0.645 -0.0384  0.3164  0.0136
   15MOL   H382 8250   6.183   0.917   0.003  0.3931  0.8095 -0.3963
   15MOL   H383 8251   6.272   0.833   0.131  0.2225 -0.3588 -0.1586
   15MOL   H384 8252   6.288   1.052   0.244  2.6170  0.3885 -2.8778
   15MOL   H385 8253   6.118   1.003   0.243 -0.2820 -1.5855 -1.8804
   15MOL   H386 8254   6.220   1.208   0.034  1.1909  0.5271  1.6919
   15MOL   H387 8255   6.068   1.159   0.054 -0.1036  0.2050 -1.1350
   15MOL   H388 8256   6.093   1.377   0.169 -0.6739 -1.5285 -0.7715
   15MOL   H389 8257   6.043   1.246   0.273 -1.0983  1.4456 -0.4834
   15MOL   H390 8258   6.505   1.299   0.338 -0.7565  0.3811 -0.4803
   15MOL   H391 8259   6.698   1.366   0.460 -0.1174 -3.7167 -1.4909
   15MOL   H392 8260   6.473   1.366   0.823 -1.3942  0.3559 -0.3738
   15MOL   H393 8261   6.264   1.327   0.694  0.3131 -1.8360  0.5031
   15MOL   O394 8262   6.833   1.411   0.648 -0.6669 -0.5013 -0.2844
   15MOL   C395 8263   6.964   1.434   0.698  0.8842 -0.5810  0.5367
   15MOL   C396 8264   7.053   1.464   0.578  0.1972  0.2755  0.6051
   15MOL   C397 8265   7.067   1.352   0.476  0.0158  0.2613  0.8091
   15MOL   C398 8266   7.167   1.374   0.363 -0.2087  0.6056  0.6504
   15MOL   O399 8267   7.282   1.450   0.402  0.3297  0.7735  0.0635
   15MOL   C400 8268   7.374   1.388   0.476  0.1756 -0.7185  0.2082
   15MOL   O401 8269   7.363   1.273   0.519  0.4333  0.0721 -0.4478
   15MOL   C402 8270   7.497   1.479   0.507 -0.0117  0.2616 -0.1020
   15MOL   C403 8271   7.602   1.436   0.588 -0.1059 -0.3751  0.2164
   15MOL   C404 8272   7.714   1.517   0.620 -0.2037  0.0339  0.7164
   15MOL   C405 8273   7.718   1.646   0.563 -0.0661 -0.5588  0.4642
   15MOL   C406 8274   7.841   1.731   0.583  0.4470 -0.2695  0.5473
   15MOL   O407 8275   7.935   1.699   0.652  0.1160  0.5045 -0.1434
   15MOL   C408 8276   7.610   1.695   0.483 -0.0698 -0.3951 -0.4802
   15MOL   C409 8277   7.500   1.612   0.456 -0.2984  0.1372  0.2860
   15MOL   H410 8278   6.954   1.517   0.768 -2.3299 -2.1764  2.1132
   15MOL   H411 8279   7.005   1.350   0.754  1.1225 -0.9970 -0.2648
   15MOL   H412 8280   7.151   1.499   0.612 -0.2267 -0.1393  2.3084
   15MOL   H413 8281   7.018   1.556   0.531 -1.8073  0.4651  2.4016
   15MOL   H414 8282   7.086   1.258   0.528  1.0137 -2.3139 -3.9188
   15MOL   H415 8283   6.980   1.320   0.419  2.2510  0.7751 -3.1127
   15MOL   H416 8284   7.198   1.281   0.316 -1.1354  0.9256 -0.6119
   15MOL   H417 8285   7.111   1.434   0.291  1.8830 -1.2629 -2.6411
   15MOL   H418 8286   7.592   1.338   0.631 -1.7581  0.1099  0.9555
   15MOL   H419 8287   7.792   1.463   0.671 -1.1179 -2.0907 -0.0496
   15MOL   H420 8288   7.598   1.798   0.455 -0.6857 -0.9301 -2.2299
   15MOL   H421 8289   7.419   1.650   0.396  0.4231 -1.1345 -1.5409
   15MOL   O422 8290   7.846   1.839   0.509 -0.1237  0.6869  0.3304
   15MOL   C423 8291   7.969   1.907   0.500  0.7025 -0.7778  0.2977
   15MOL   C424 8292   7.969   1.981   0.366  0.0788  0.6150 -0.0740
   15MOL   C425 8293   0.013   2.042   0.345 -0.3760  0.3989  0.2078
   15MOL   C426 8294   0.030   2.120   0.219 -0.2912  0.3087 -0.1457
   15MOL   O427 8295   8.096   2.254   0.250 -0.0182  0.1837 -0.6857
   15MOL   C428 8296   7.970   2.306   0.227  0.1159  0.5823  0.2270
   15MOL   O429 8297   7.886   2.241   0.161 -0.2380  0.1506  0.3437
   15MOL   C430 8298   7.939   2.436   0.287  0.0300  0.5317  0.0743
   15MOL   C431 8299   8.032   2.499   0.373 -0.9425 -0.3345 -0.6856
   15MOL   C432 8300   8.018   2.633   0.418  0.3283  0.1870 -0.1251
   15MOL   C433 8301   7.902   2.703   0.385 -0.0421 -0.2551  0.3843
   15MOL   C434 8302   7.876   2.832   0.448  0.0722 -0.7082 -0.8941
   15MOL   O435 8303   7.958   2.886   0.526  0.4293 -0.1300 -0.0342
   15MOL   C436 8304   7.805   2.635   0.305 -0.1331  0.0453  0.2959
   15MOL   C437 8305   7.824   2.506   0.249  0.6621 -0.0045 -0.2328
   15MOL   H438 8306   7.985   1.976   0.583 -1.2330 -0.3756  0.3619
   15MOL   H439 8307   8.058   1.843   0.496  0.9248 -0.4089 -0.6127
   15MOL   H440 8308   7.892   2.054   0.389 -1.0293 -0.5199 -0.1373
   15MOL   H441 8309   7.947   1.914   0.283 -2.8277  0.3992  0.8194
   15MOL   H442 8310   0.030   2.099   0.437  1.6859  0.0806  0.0437
   15MOL   H443 8311   0.086   1.962   0.343 -0.7066  0.0578  1.1658
   15MOL   H444 8312   0.134   2.101   0.192  0.3221  1.8036  1.0945
   15MOL   H445 8313   8.066   2.071   0.144 -0.8427 -1.8224  1.6589
   15MOL   H446 8314   0.020   2.446   0.409  0.2156  0.7799 -1.7925
   15MOL   H447 8315   8.094   2.676   0.483  1.0733  0.2865 -1.0537
   15MOL   H448 8316   7.712   2.684   0.280 -0.1639 -0.7203 -1.1341
   15MOL   H449 8317   7.752   2.454   0.188 -0.8112 -1.2895  2.5386
   15MOL   O450 8318   7.760   2.888   0.422 -1.0368  0.6210 -0.2294
   15MOL   C451 8319   7.727   3.008   0.489 -0.0500  0.2182  0.1584
   15MOL   C452 8320   7.621   2.978   0.606 -0.1014 -0.4121  0.2428
   15MOL   C453 8321   7.601   3.100   0.702  0.4404 -0.7986  0.4623
   15MOL   C454 8322   7.492   3.073   0.819 -0.0320  0.3441  0.1011
   15MOL   O455 8323   7.511   2.949   0.878 -0.4197 -0.3508  0.8562
   15MOL   C456 8324   7.621   2.904   0.940 -1.0709 -0.4931  0.3520
   15MOL   O457 8325   7.717   2.976   0.977  0.1800 -0.1960  0.0274
   15MOL   C458 8326   7.621   2.754   0.951  0.0192 -0.7692  0.6823
   15MOL   C459 8327   7.727   2.690   1.017 -0.0404  0.9314 -0.3181
   15MOL   C460 8328   7.726   2.546   1.029 -0.5158 -0.5123  0.1658
   15MOL   C461 8329   7.618   2.470   0.977 -0.1560 -0.3491 -0.1227
   15MOL   C462 8330   7.612   2.320   0.983  0.0342 -0.2610  0.5064
   15MOL   O463 8331   7.515   2.253   0.948  0.5093 -0.1379 -0.9923
   15MOL   C464 8332   7.508   2.538   0.921  0.2134  0.1169  0.0190
   15MOL   C465 8333   7.519   2.679   0.896  0.4379 -0.2810 -0.3677
   15MOL   H466 8334   7.805   3.078   0.521  1.6688 -1.4395 -0.2987
   15MOL   H467 8335   7.671   3.073   0.423 -2.3774 -0.8003  1.0879
   15MOL   H468 8336   7.659   2.890   0.657 -0.4211 -0.9844 -0.5004
   15MOL   H469 8337   7.531   2.967   0.545  0.1503  2.9876 -0.8497
   15MOL   H470 8338   7.696   3.136   0.741  0.4123  0.8814 -0.9169
   15MOL   H471 8339   7.570   3.189   0.647  2.0429 -1.0697 -0.9134
   15MOL   H472 8340   7.500   3.147   0.899 -0.4502 -1.4121  1.7976
   15MOL   H473 8341   7.389   3.059   0.786 -1.2253  0.0598  3.7960
   15MOL   H474 8342   7.809   2.749   1.054 -0.4255  2.0984 -1.2683
   15MOL   H475 8343   7.814   2.492   1.061 -0.5756 -1.1829 -0.7980
   15MOL   H476 8344   7.417   2.485   0.899 -0.0597  0.2974  0.7017
   15MOL   H477 8345   7.445   2.735   0.841  0.6869 -0.5331 -0.9754
   15MOL   O478 8346   7.720   2.257   1.044  0.5792  0.5133  0.0777
   15MOL   C479 8347   7.703   2.118   1.072 -0.1418  0.1005 -0.3549
   15MOL   C480 8348   7.738   2.031   0.951  0.3506 -0.5637 -0.1335
   15MOL   C481 8349   7.714   1.881   0.971  0.3299  0.8853  0.3204
   15MOL   C482 8350   7.572   1.832   0.983  0.5135 -0.0437 -0.3249
   15MOL   O483 8351   7.489   1.891   0.885 -0.2403 -0.0381 -0.2309
   15MOL   C484 8352   7.430   1.813   0.799  1.3032  0.0444  0.2235
   15MOL   O485 8353   7.425   1.690   0.808  0.2978 -0.8314  0.1414
   15MOL   C486 8354   7.369   1.893   0.687 -0.2584 -0.0115  0.6955
   15MOL   C487 8355   7.364   2.036   0.691 -0.0000  0.1564  0.0416
   15MOL   C488 8356   7.304   2.113   0.592  0.5627  0.4868  0.5616
   15MOL   C489 8357   7.255   2.044   0.481  0.3365 -0.0460 -0.1291
   15MOL   C490 8358   7.197   2.130   0.358  0.4834 -0.4110  0.0642
   15MOL   O491 8359   7.215   2.251   0.360  0.4418 -0.1489  0.4396
   15MOL   C492 8360   7.253   1.904   0.475 -0.0946  0.5262  0.2724
   15MOL   C493 8361   7.308   1.827   0.576  0.3200 -0.4336 -0.7351
   15MOL   H494 8362   7.764   2.109   1.162 -2.6083  2.1610  1.6115
   15MOL   H495 8363   7.601   2.089   1.098 -0.3113  1.7029  0.8459
   15MOL   H496 8364   7.842   2.052   0.924  0.7491 -0.6859  1.2580
   15MOL   H497 8365   7.672   2.066   0.871  0.1425  0.0207  0.2873
   15MOL   H498 8366   7.738   1.837   0.874  0.1688  0.3408  0.5306
   15MOL   H499 8367   7.779   1.842   1.050 -0.6428  0.4765  0.9258
   15MOL   H500 8368   7.578   1.723   0.983  0.3971 -0.0560 -1.6385
   15MOL   H501 8369   7.549   1.858   1.087  0.0327 -3.2413  0.4133
   15MOL   H502 8370   7.414   2.099   0.762  1.0706 -0.1731 -0.4013
   15MOL   H503 8371   7.284   2.219   0.605 -0.5206  0.2103  1.1560
   15MOL   H504 8372   7.197   1.862   0.394  0.8307  1.1974 -0.7289
   15MOL   H505 8373   7.292   1.720   0.573 -0.3190 -0.4865  2.5004
   15MOL   O506 8374   7.142   2.055   0.263  0.1943 -0.0369  0.3482
   15MOL   C507 8375   7.108   2.131   0.143 -0.2859  0.4268 -0.4842
   15MOL   C508 8376   7.057   2.027   0.046  0.0604  0.8032 -0.2117
   15MOL   C509 8377   7.001   2.059   8.004 -0.5332 -0.4564 -0.2557
   15MOL   C510 8378   6.932   1.935   7.935  0.0665  0.2593 -0.4368
   15MOL   O511 8379   6.885   1.972   7.805 -0.3076 -0.0045 -0.7205
   15MOL   C512 8380   6.757   1.992   7.789  0.0592 -0.2115 -0.0979
   15MOL   O513 8381   6.682   2.011   7.890 -0.4922 -0.7013 -0.5052
   15MOL   C514 8382   6.713   1.994   7.646  0.4649  0.5629 -0.1386
   15MOL   C515 8383   6.799   1.957   7.539  0.7895  0.4719 -0.6276
   15MOL   C516 8384   6.752   1.943   7.405  0.6038 -0.0898  0.2480
   15MOL   C517 8385   6.615   1.974   7.384  0.0959  0.0947 -0.2625
   15MOL   C518 8386   6.559   1.958   7.241  0.5767  0.1908 -0.4736
   15MOL   O519 8387   6.445   1.980   7.223  0.2811  0.2506 -0.2152
   15MOL   C520 8388   6.530   2.019   7.488  0.6299  0.1333 -0.6132
   15MOL   C521 8389   6.576   2.024   7.620  0.6678 -0.1448 -0.1972
   15MOL   H522 8390   7.046   2.220   0.155  0.2975  0.6262  1.1269
   15MOL   H523 8391   7.192   2.185   0.099  0.4449 -0.5786 -0.3421
   15MOL   H524 8392   6.974   1.971   0.088  0.4544  0.2609 -0.1624
   15MOL   H525 8393   7.128   1.947   0.025  1.0456  1.7362 -0.4802
   15MOL   H526 8394   6.939   2.147   8.013  1.7689  1.4699 -2.3002
   15MOL   H527 8395   7.076   2.099   7.935 -0.8326 -0.5995 -0.6686
   15MOL   H528 8396   7.018   1.872   7.913  1.4539  1.7746  0.4597
   15MOL   H529 8397   6.859   1.881   7.995 -0.2937 -0.9245 -1.9302
   15MOL   H530 8398   6.903   1.939   7.563  0.8530 -0.1803 -1.4066
   15MOL   H531 8399   6.808   1.900   7.323 -1.8766 -2.7694 -0.1150
   15MOL   H532 8400   6.429   2.045   7.461  0.4572 -1.6824 -1.7881
   15MOL   H533 8401   6.513   2.052   7.703  0.5891  0.5354 -0.4821
   15MOL   O534 8402   6.649   1.927   7.155  0.3165  0.4269 -0.3182
   15MOL   C535 8403   6.621   1.904   7.018  0.1210  0.0014 -0.1113
   15MOL   C536 8404   6.729   1.824   6.947 -0.1104 -0.1183  0.1186
   15MOL   C537 8405   6.742   1.673   6.965  0.1320  0.2270  0.0743
   15MOL   C538 8406   6.614   1.580   6.947  0.3298 -0.0046  0.3038
   15MOL   O539 8407   6.529   1.610   7.058 -0.4929  0.2353  0.7966
   15MOL   C540 8408   6.544   1.535   7.172  0.2501  0.0452 -0.3214
   15MOL   O541 8409   6.626   1.436   7.181  0.5782 -0.6711 -0.0885
   15MOL   C542 8410   6.453   1.575   7.285  0.2576  0.5254 -0.8202
   15MOL   C543 8411   6.461   1.525   7.416  0.4574 -0.5373 -0.7662
   15MOL   C544 8412   6.384   1.577   7.523 -0.2548  0.1014  0.1785
   15MOL   C545 8413   6.281   1.672   7.494 -0.7210 -0.0306  0.2529
   15MOL   C546 8414   6.195   1.718   7.602 -0.2439 -0.3937 -0.0942
   15MOL   O547 8415   6.113   1.806   7.600 -0.1762 -0.9451  0.2472
   15MOL   C548 8416   6.261   1.722   7.363  0.0515 -0.4835  0.1259
   15MOL   C549 8417   6.351   1.674   7.266 -0.0963 -0.3403  0.9691
   15MOL   H550 8418   6.525   1.856   6.997  0.5252 -0.8302 -0.0688
   15MOL   H551 8419   6.614   1.999   6.965  0.3037 -0.5970 -1.2259
   15MOL   H552 8420   6.824   1.875   6.961  1.3660 -2.6697 -0.3801
   15MOL   H553 8421   6.704   1.834   6.841 -0.9466  1.4451  0.4500
   15MOL   H554 8422   6.815   1.620   6.905 -0.6928 -1.7340  0.7478
   15MOL   H555 8423   6.784   1.656   7.065  1.4340 -1.0604 -0.6715
   15MOL   H556 8424   6.559   1.597   6.855 -0.7310  0.4389  1.0131
   15MOL   H557 8425   6.646   1.476   6.939  1.5196  0.3909 -0.1491
   15MOL   H558 8426   6.532   1.445   7.434 -1.7087 -2.7272 -1.5784
   15MOL   H559 8427   6.403   1.548   7.625  0.8678 -1.5239 -0.4764
   15MOL   H560 8428   6.176   1.784   7.338 -1.0203 -0.8116  2.8356
   15MOL   H561 8429   6.340   1.703   7.162  2.4923  0.0424  0.7677
   15MOL   H562 8430   6.199   1.666   7.698  1.7746  0.9126  0.5684
   16MOL     O1 8431   5.585   4.122   6.425  0.6838  0.3493  0.0974
   16MOL     C2 8432   5.493   4.019   6.394 -0.2498  0.1416  0.4202
   16MOL     C3 8433   5.531   3.913   6.284  0.1851 -0.4250 -0.4969
   16MOL     C4 8434   5.407   3.841   6.242  0.7751 -0.0088 -0.5455
   16MOL     C5 8435   5.434   3.733   6.132 -0.4388  0.0859 -0.5315
   16MOL     O6 8436   5.496   3.793   6.023  0.2537 -0.0795 -0.1354
   16MOL     C7 8437   5.531   3.724   5.911 -1.5174  0.0539 -0.2782
   16MOL     O8 8438   5.526   3.600   5.903  0.3749  0.4527 -0.0089
   16MOL     C9 8439   5.567   3.806   5.794  0.0216  0.4457 -0.1282
   16MOL    C10 8440   5.600   3.747   5.666  1.2042 -0.3041  0.0151
   16MOL    C11 8441   5.609   3.836   5.548 -0.4266  0.0631  0.3938
   16MOL    C12 8442   5.584   3.976   5.558 -0.5992  0.0836 -0.5552
   16MOL    C13 8443   5.592   4.067   5.442 -0.8468  0.1328 -0.9113
   16MOL    O14 8444   5.659   4.040   5.343 -1.1233 -0.0753 -0.3124
   16MOL    C15 8445   5.561   4.031   5.686 -0.1780  0.7357  0.4478
   16MOL    C16 8446   5.555   3.945   5.797  0.5368 -0.8957 -0.4093
   16MOL    H17 8447   5.470   3.961   6.483  1.3821  1.3174  1.6264
   16MOL    H18 8448   5.405   4.073   6.360  0.5905  0.9350 -0.5279
   16MOL    H19 8449   5.607   3.840   6.314 -0.5989 -0.8046  0.5956
   16MOL    H20 8450   5.576   3.971   6.203 -0.6709 -0.1340 -0.7688
   16MOL    H21 8451   5.359   3.794   6.328  1.8623 -0.4984 -0.1961
   16MOL    H22 8452   5.330   3.911   6.210 -0.3929 -1.0380 -0.0478
   16MOL    H23 8453   5.503   3.653   6.160 -1.1771 -0.0449  0.9370
   16MOL    H24 8454   5.344   3.684   6.096 -0.2329 -0.5083 -0.2426
   16MOL    H25 8455   5.608   3.640   5.659 -1.3281 -0.6135  1.2300
   16MOL    H26 8456   5.617   3.793   5.449 -0.4701 -1.6790  1.1314
   16MOL    H27 8457   5.539   4.136   5.694  0.7579  1.1241 -1.6829
   16MOL    H28 8458   5.520   3.985   5.891  0.9052 -1.2493 -0.1173
   16MOL    H29 8459   5.617   4.159   6.344  1.4935 -2.4544 -0.8908
   16MOL    O30 8460   5.516   4.175   5.458 -0.3353  0.0685 -0.1872
   16MOL    C31 8461   5.515   4.275   5.358 -0.1252  0.5493 -1.2663
   16MOL    C32 8462   5.573   4.398   5.419 -0.2891 -0.5218 -0.2489
   16MOL    C33 8463   5.721   4.389   5.468 -0.0348 -0.4945  0.6335
   16MOL    C34 8464   5.832   4.396   5.356 -0.2570 -0.3830  0.0816
   16MOL    O35 8465   5.835   4.288   5.260 -0.5787  0.1671  0.4490
   16MOL    C36 8466   5.946   4.213   5.260 -0.1382  0.1086 -0.2272
   16MOL    O37 8467   6.029   4.203   5.357  0.4279  0.4579 -0.2864
   16MOL    C38 8468   5.967   4.148   5.128 -0.3549 -0.0884 -0.3121
   16MOL    C39 8469   6.097   4.100   5.107 -0.2892 -0.0772  0.3040
   16MOL    C40 8470   6.136   4.047   4.983 -0.0823  0.7575 -0.0543
   16MOL    C41 8471   6.039   4.024   4.882 -0.1547  0.7180 -0.3108
   16MOL    C42 8472   6.071   3.957   4.753 -0.2258 -0.6078 -0.0796
   16MOL    O43 8473   6.179   3.907   4.733  0.1882  0.0585  0.3055
   16MOL    C44 8474   5.907   4.076   4.906 -0.1550  0.2755  0.7626
   16MOL    C45 8475   5.869   4.125   5.032 -0.1276  0.3191 -0.3641
   16MOL    H46 8476   5.574   4.249   5.270 -1.3794  0.1924 -2.0255
   16MOL    H47 8477   5.417   4.291   5.312 -1.0028 -2.0374 -0.3691
   16MOL    H48 8478   5.520   4.420   5.511  3.5847 -0.5821  2.0881
   16MOL    H49 8479   5.545   4.469   5.341 -1.2733  1.0609  1.4953
   16MOL    H50 8480   5.729   4.481   5.525 -0.1298 -0.1493  0.0948
   16MOL    H51 8481   5.733   4.298   5.527 -1.1932 -1.6197 -0.8299
   16MOL    H52 8482   5.813   4.491   5.305 -3.6694  0.1015  2.0774
   16MOL    H53 8483   5.926   4.415   5.408  0.1930  0.9583 -1.1706
   16MOL    H54 8484   6.172   4.123   5.181  2.1425  0.0897 -2.1575
   16MOL    H55 8485   6.241   4.021   4.973 -0.7612 -1.9101 -0.6153
   16MOL    H56 8486   5.833   4.067   4.828  2.1291 -0.5993 -1.3577
   16MOL    H57 8487   5.767   4.157   5.048  0.3194  1.0553  1.0787
   16MOL    O58 8488   5.970   3.968   4.670 -0.7341  0.4572 -0.4542
   16MOL    C59 8489   5.976   3.915   4.540  0.1350 -0.0569 -0.8742
   16MOL    C60 8490   5.832   3.917   4.477 -0.3309  0.2299  0.8914
   16MOL    C61 8491   5.741   3.822   4.554 -0.1110  0.8455  0.2373
   16MOL    C62 8492   5.593   3.819   4.509  0.2662 -0.6229  0.2661
   16MOL    O63 8493   5.596   3.802   4.370  0.1870 -0.1987  0.4413
   16MOL    C64 8494   5.524   3.883   4.285  0.0185  0.1103  0.4916
   16MOL    O65 8495   5.465   3.988   4.324  0.2194 -0.2212  0.3452
   16MOL    C66 8496   5.520   3.837   4.143 -0.4321 -0.1767 -0.4688
   16MOL    C67 8497   5.482   3.930   4.044  0.0180 -0.1052  0.4106
   16MOL    C68 8498   5.484   3.888   3.906  0.0496 -0.5071  0.0721
   16MOL    C69 8499   5.517   3.756   3.867 -0.4319 -0.2467 -0.2500
   16MOL    C70 8500   5.512   3.713   3.727  0.5111  0.4969  0.0666
   16MOL    O71 8501   5.563   3.604   3.685 -0.5402 -0.0512  0.4942
   16MOL    C72 8502   5.558   3.671   3.971  0.6607  0.6009  0.5236
   16MOL    C73 8503   5.572   3.711   4.108 -0.3379  0.6410  0.2930
   16MOL    H74 8504   6.036   3.980   4.477 -0.2804  1.1886  0.0039
   16MOL    H75 8505   6.012   3.812   4.534 -2.5894 -1.1033 -0.0257
   16MOL    H76 8506   5.841   3.878   4.375 -1.9755 -0.9996  1.2069
   16MOL    H77 8507   5.798   4.020   4.464  2.0923  1.0292  0.6438
   16MOL    H78 8508   5.780   3.724   4.529 -2.8974 -0.3211  0.2979
   16MOL    H79 8509   5.741   3.842   4.661  2.6343  0.3648  0.3481
   16MOL    H80 8510   5.541   3.732   4.549 -2.8961  0.5944 -1.0348
   16MOL    H81 8511   5.546   3.913   4.538  2.3375  0.8249 -0.9244
   16MOL    H82 8512   5.457   4.032   4.065 -0.3505 -0.2214  0.5454
   16MOL    H83 8513   5.452   3.960   3.833 -1.8029  0.8563  2.1367
   16MOL    H84 8514   5.588   3.572   3.940 -0.5150 -0.3785  2.4695
   16MOL    H85 8515   5.611   3.635   4.174 -0.1226  0.5103  0.0173
   16MOL    O86 8516   5.446   3.790   3.649 -0.3045  0.2040  0.5472
   16MOL    C87 8517   5.407   3.738   3.516 -0.0010  0.1946  0.0115
   16MOL    C88 8518   5.341   3.845   3.426  0.1091  0.2710 -0.2188
   16MOL    C89 8519   5.229   3.922   3.491 -0.9996 -0.2377  0.5281
   16MOL    C90 8520   5.170   4.028   3.392  0.2827 -0.0903 -0.8450
   16MOL    O91 8521   5.074   4.109   3.463  0.6032  0.0096  0.2565
   16MOL    C92 8522   4.973   4.169   3.396 -0.1902  0.0118  0.0653
   16MOL    O93 8523   4.962   4.176   3.273 -1.4285  0.0385 -0.6325
   16MOL    C94 8524   4.874   4.235   3.487 -0.2119  0.3008 -0.2954
   16MOL    C95 8525   4.766   4.301   3.432 -0.2188  0.1830 -0.6563
   16MOL    C96 8526   4.669   4.365   3.516  0.0990 -0.5574 -0.1788
   16MOL    C97 8527   4.678   4.361   3.661  0.6486 -0.2995  0.5519
   16MOL    C98 8528   4.571   4.418   3.752  0.1454  0.3679 -0.8811
   16MOL    O99 8529   4.463   4.451   3.706  0.1124  0.2851 -0.0499
   16MOL   C100 8530   4.795   4.307   3.714  0.3705  0.6721  0.1846
   16MOL   C101 8531   4.892   4.243   3.626  0.7881  0.1727  0.2611
   16MOL   H102 8532   5.480   3.685   3.455  1.7274  1.7889  0.6708
   16MOL   H103 8533   5.339   3.659   3.549  1.1713  0.5820  3.4861
   16MOL   H104 8534   5.295   3.784   3.348 -0.0268  1.0266 -0.7386
   16MOL   H105 8535   5.417   3.902   3.372  0.1512  1.0709  0.6973
   16MOL   H106 8536   5.153   3.847   3.514 -1.9927  0.3810 -0.6695
   16MOL   H107 8537   5.263   3.960   3.588  0.3665 -1.0520  0.3799
   16MOL   H108 8538   5.254   4.091   3.362  1.0401 -0.9681 -0.6143
   16MOL   H109 8539   5.119   3.984   3.307 -0.5229 -0.1075 -0.3602
   16MOL   H110 8540   4.759   4.314   3.325 -0.4156  0.2714 -0.6337
   16MOL   H111 8541   4.582   4.411   3.470  0.2303 -0.4057 -0.2815
   16MOL   H112 8542   4.817   4.290   3.818  0.3364 -0.3882  0.0260
   16MOL   H113 8543   4.977   4.194   3.671  1.5689 -0.1558 -1.5130
   16MOL   O114 8544   4.606   4.417   3.885  0.1927 -0.4987  0.4318
   16MOL   C115 8545   4.510   4.449   3.977  0.3406  0.5065 -0.7143
   16MOL   C116 8546   4.571   4.450   4.111 -0.0389  0.0487 -0.1166
   16MOL   C117 8547   4.472   4.511   4.212  0.0759 -0.2495 -0.0507
   16MOL   C118 8548   4.532   4.536   4.354 -0.4931  0.1809 -0.1416
   16MOL   O119 8549   4.578   4.404   4.392  0.1466  0.3325  0.1609
   16MOL   C120 8550   4.576   4.353   4.522  0.7622  0.3008  0.6482
   16MOL   O121 8551   4.549   4.421   4.622  0.1361 -0.6168 -0.5038
   16MOL   C122 8552   4.598   4.204   4.521  0.6082 -0.0802  0.1984
   16MOL   C123 8553   4.660   4.143   4.410  0.1405  0.1151 -0.4330
   16MOL   C124 8554   4.671   4.003   4.407  0.4475 -0.2410  0.5318
   16MOL   C125 8555   4.604   3.925   4.504 -0.1905  0.8878  0.7609
   16MOL   C126 8556   4.599   3.774   4.496 -0.9815  0.0106 -0.2085
   16MOL   O127 8557   4.509   3.705   4.539  0.1096  0.3150  0.1219
   16MOL   C128 8558   4.548   3.983   4.616  0.4982  0.0385 -1.2574
   16MOL   C129 8559   4.545   4.125   4.625  0.6012  0.3433  0.0684
   16MOL   H130 8560   4.482   4.550   3.946 -2.3486 -0.1342 -0.4538
   16MOL   H131 8561   4.424   4.382   3.979 -1.6946  3.0301 -0.4931
   16MOL   H132 8562   4.662   4.510   4.102  0.8073 -1.3866 -1.4558
   16MOL   H133 8563   4.606   4.350   4.137 -1.3274 -0.0687  1.2356
   16MOL   H134 8564   4.448   4.608   4.168  1.0975 -0.9018 -2.1313
   16MOL   H135 8565   4.382   4.451   4.212  0.8937 -1.5191  1.6426
   16MOL   H136 8566   4.613   4.608   4.351 -0.7693  0.5178  0.3735
   16MOL   H137 8567   4.454   4.577   4.419 -2.0754 -1.2469 -1.0836
   16MOL   H138 8568   4.704   4.199   4.329  1.7775 -0.7633 -0.1659
   16MOL   H139 8569   4.710   3.952   4.321  1.9572  1.0359  0.4400
   16MOL   H140 8570   4.508   3.924   4.697 -0.1034  3.7108  1.2708
   16MOL   H141 8571   4.502   4.173   4.712  2.1524 -1.5832  1.9432
   16MOL   O142 8572   4.704   3.715   4.436  0.0718 -0.6897 -0.1769
   16MOL   C143 8573   4.730   3.576   4.460 -0.0514  0.2461 -0.1374
   16MOL   C144 8574   4.867   3.532   4.414  0.3135 -0.8391 -0.2084
   16MOL   C145 8575   4.891   3.390   4.462 -0.6356  0.1885  0.1820
   16MOL   C146 8576   5.004   3.324   4.404  0.0605 -0.2894 -0.0755
   16MOL   O147 8577   5.062   3.211   4.472  0.6671 -0.0014 -0.3030
   16MOL   C148 8578   5.169   3.226   4.557 -0.2442  0.1323  0.2841
   16MOL   O149 8579   5.215   3.336   4.584 -0.1849  0.0914  0.0289
   16MOL   C150 8580   5.223   3.099   4.610  0.5006  0.2483  0.4176
   16MOL   C151 8581   5.331   3.094   4.695  0.2685 -0.1213  0.2517
   16MOL   C152 8582   5.375   2.975   4.752 -0.0493 -0.4101 -0.6869
   16MOL   C153 8583   5.314   2.858   4.709  0.5244 -0.2682 -0.1159
   16MOL   C154 8584   5.371   2.723   4.743 -0.0047 -0.4355  0.1395
   16MOL   O155 8585   5.334   2.616   4.684 -0.8035 -0.7228 -0.1360
   16MOL   C156 8586   5.200   2.855   4.620 -0.6008  0.4836 -0.3273
   16MOL   C157 8587   5.160   2.977   4.572 -0.0960  0.2675  1.4430
   16MOL   H158 8588   4.708   3.555   4.565  2.3931  0.6793  0.4903
   16MOL   H159 8589   4.652   3.520   4.410 -0.0869 -0.3492  0.5758
   16MOL   H160 8590   4.940   3.594   4.466 -1.6255  0.6985  0.7230
   16MOL   H161 8591   4.890   3.554   4.309 -2.5194  0.4450 -0.5887
   16MOL   H162 8592   4.914   3.390   4.568  0.7964  0.1335 -0.1214
   16MOL   H163 8593   4.804   3.326   4.447  0.4323 -1.0477 -0.8432
   16MOL   H164 8594   4.961   3.289   4.310 -1.5322 -0.9007  0.8561
   16MOL   H165 8595   5.080   3.401   4.389 -0.5979  0.8382  2.2290
   16MOL   H166 8596   5.371   3.190   4.723 -2.6294  1.2725 -0.1465
   16MOL   H167 8597   5.441   2.975   4.838 -0.8014  1.4665 -0.0942
   16MOL   H168 8598   5.154   2.757   4.611  0.4644  0.0020 -0.5282
   16MOL   H169 8599   5.078   2.979   4.502  1.2173  1.0938 -0.1008
   16MOL   O170 8600   5.459   2.733   4.842 -0.0384  0.2894  1.0235
   16MOL   C171 8601   5.553   2.634   4.875  0.3347 -0.6287 -0.7067
   16MOL   C172 8602   5.633   2.699   4.993 -0.2009 -0.0534  0.0859
   16MOL   C173 8603   5.711   2.817   4.947  0.2795  0.0975 -1.1243
   16MOL   C174 8604   5.799   2.878   5.060 -0.3741  0.2163 -0.3085
   16MOL   O175 8605   5.894   2.791   5.121 -0.0072 -0.0918 -0.5500
   16MOL   C176 8606   5.975   2.834   5.218  0.2087 -0.0342  0.1264
   16MOL   O177 8607   5.968   2.945   5.270 -0.0159 -0.2146 -0.2104
   16MOL   C178 8608   6.081   2.732   5.255 -0.9568  0.5279 -0.2280
   16MOL   C179 8609   6.192   2.767   5.341 -0.6485  0.1304 -0.1478
   16MOL   C180 8610   6.286   2.670   5.371 -0.0787  0.4112 -0.3989
   16MOL   C181 8611   6.276   2.533   5.324  0.3948  0.0437  0.1284
   16MOL   C182 8612   6.376   2.429   5.357  0.1031 -0.0142 -0.2940
   16MOL   O183 8613   6.453   2.442   5.452  0.6060  0.5842  0.3352
   16MOL   C184 8614   6.167   2.504   5.242  0.8828 -0.0188  0.3742
   16MOL   C185 8615   6.070   2.599   5.200 -1.0137  0.3756  0.1574
   16MOL   H186 8616   5.510   2.533   4.879 -1.8795  0.3250  0.2724
   16MOL   H187 8617   5.622   2.639   4.790  2.9602 -0.8388  1.3474
   16MOL   H188 8618   5.703   2.626   5.034  1.2822  1.7137  0.7472
   16MOL   H189 8619   5.566   2.712   5.077 -2.4947  0.6427 -1.8067
   16MOL   H190 8620   5.772   2.791   4.860  1.3209  2.4681 -1.1367
   16MOL   H191 8621   5.639   2.889   4.909 -0.1391 -0.2771 -1.0381
   16MOL   H192 8622   5.853   2.965   5.024  0.2435  0.2058  0.5547
   16MOL   H193 8623   5.722   2.897   5.135 -0.4772  0.8469 -0.5719
   16MOL   H194 8624   6.211   2.863   5.387 -0.4180 -0.0750  0.1904
   16MOL   H195 8625   6.374   2.697   5.428 -0.7011  1.6007  0.0138
   16MOL   H196 8626   6.160   2.400   5.212  2.3405  0.1232 -0.4951
   16MOL   H197 8627   5.996   2.571   5.127 -0.7042  0.3334 -0.1420
   16MOL   O198 8628   6.364   2.316   5.280 -0.0993  0.4002 -0.5255
   16MOL   C199 8629   6.449   2.201   5.300  1.0205  0.2751  0.3671
   16MOL   C200 8630   6.536   2.174   5.173 -0.2107  0.2735 -0.0577
   16MOL   C201 8631   6.642   2.062   5.185  0.1909 -0.0443 -0.6499
   16MOL   C202 8632   6.593   1.925   5.186 -0.5326  0.2818 -0.0033
   16MOL   O203 8633   6.710   1.854   5.201 -0.7326  0.1717  0.0400
   16MOL   C204 8634   6.715   1.729   5.240  0.3312 -0.0138 -0.7446
   16MOL   O205 8635   6.619   1.661   5.265 -0.3335  0.2215  0.0834
   16MOL   C206 8636   6.855   1.677   5.266 -0.5429 -0.1334 -0.2425
   16MOL   C207 8637   6.875   1.540   5.281  0.3572  0.3521 -0.1015
   16MOL   C208 8638   7.000   1.482   5.311 -0.5184  0.6294  0.6712
   16MOL   C209 8639   7.112   1.573   5.319  0.2550  0.2926  0.3527
   16MOL   C210 8640   7.244   1.517   5.357 -0.4642 -0.4029  0.2458
   16MOL   O211 8641   7.262   1.398   5.374  0.4365 -0.6826  0.1652
   16MOL   C212 8642   7.090   1.709   5.303  0.4024 -0.7238 -0.6948
   16MOL   C213 8643   6.963   1.765   5.279 -0.5037 -0.3232 -1.3011
   16MOL   H214 8644   6.519   2.201   5.383  0.3350  0.2592  0.9497
   16MOL   H215 8645   6.393   2.108   5.313  0.4765  0.5934  0.3167
   16MOL   H216 8646   6.597   2.263   5.159 -0.5817  0.7231  1.1174
   16MOL   H217 8647   6.474   2.162   5.084 -0.1169  1.8026 -0.3484
   16MOL   H218 8648   6.708   2.078   5.100  1.7106  2.1906  0.8897
   16MOL   H219 8649   6.700   2.078   5.276  0.4831 -1.1225 -0.6277
   16MOL   H220 8650   6.533   1.900   5.274 -0.3493 -0.3866 -0.0601
   16MOL   H221 8651   6.534   1.907   5.096 -0.9945  0.2797  0.2990
   16MOL   H222 8652   6.787   1.480   5.263 -0.9394  1.6795  1.6310
   16MOL   H223 8653   6.998   1.375   5.326 -2.9202  0.1942 -2.2344
   16MOL   H224 8654   7.177   1.771   5.322  1.7513 -2.8811  0.3027
   16MOL   H225 8655   6.954   1.873   5.276 -2.9250 -0.3565  2.4258
   16MOL   O226 8656   7.339   1.607   5.353 -0.6275 -0.3896  0.4188
   16MOL   C227 8657   7.472   1.577   5.391 -0.6347  0.0959  0.0961
   16MOL   C228 8658   7.516   1.708   5.472 -0.3355  1.3467  0.4207
   16MOL   C229 8659   7.523   1.835   5.377 -0.7515 -0.5331 -0.0584
   16MOL   C230 8660   7.516   1.959   5.468 -0.1319 -0.0648 -0.5834
   16MOL   O231 8661   7.379   1.966   5.514  0.2036  0.1176  0.3730
   16MOL   C232 8662   7.290   2.055   5.466 -0.5112 -0.2211  0.1401
   16MOL   O233 8663   7.330   2.152   5.397 -0.1285  0.4579 -0.7821
   16MOL   C234 8664   7.147   2.026   5.501 -0.8198  0.8272  0.0538
   16MOL   C235 8665   7.045   2.109   5.452  0.2099 -0.8681 -0.1045
   16MOL   C236 8666   6.910   2.084   5.484  0.5239  0.0225  0.2415
   16MOL   C237 8667   6.872   1.973   5.561  0.1486 -0.2664 -0.4177
   16MOL   C238 8668   6.729   1.940   5.568  0.2435  0.1477  0.4524
   16MOL   O239 8669   6.642   2.008   5.526 -0.0829 -0.5761 -0.6001
   16MOL   C240 8670   6.978   1.890   5.612  0.5307 -0.0017 -0.5982
   16MOL   C241 8671   7.115   1.922   5.583 -0.2593 -0.1569  0.0026
   16MOL   H242 8672   7.480   1.492   5.458  2.1298  1.4141  1.5215
   16MOL   H243 8673   7.540   1.564   5.307 -0.8743  0.4624 -0.1557
   16MOL   H244 8674   7.616   1.707   5.517  0.2912 -0.0050 -0.9502
   16MOL   H245 8675   7.456   1.725   5.562 -0.9220 -2.4914  0.8309
   16MOL   H246 8676   7.617   1.829   5.323  0.1593  0.3631  1.3913
   16MOL   H247 8677   7.437   1.837   5.310 -1.6389 -0.2552  1.0718
   16MOL   H248 8678   7.584   1.939   5.551 -2.7961  1.5284  2.0865
   16MOL   H249 8679   7.548   2.058   5.435  0.3310 -0.6961 -2.0488
   16MOL   H250 8680   7.058   2.187   5.379 -0.7797 -2.9231 -2.5630
   16MOL   H251 8681   6.834   2.143   5.434 -0.3810  0.4452  2.0641
   16MOL   H252 8682   6.944   1.802   5.666  0.8998  0.2312  0.0160
   16MOL   H253 8683   7.179   1.851   5.634 -0.8269 -0.5897  0.1138
   16MOL   O254 8684   6.708   1.815   5.626  0.2206  0.7253  0.0689
   16MOL   C255 8685   6.579   1.765   5.641  0.4149  0.6392  0.0329
   16MOL   C256 8686   6.585   1.661   5.755  0.2710  0.8643 -0.4202
   16MOL   C257 8687   6.700   1.560   5.735  0.0524  0.4749  0.0626
   16MOL   C258 8688   6.707   1.446   5.844 -0.3718 -0.0405  0.2420
   16MOL   O259 8689   6.629   1.341   5.809 -0.1066 -0.3667 -0.3103
   16MOL   C260 8690   6.516   1.309   5.875  0.8782 -0.6035 -0.1305
   16MOL   O261 8691   6.475   1.380   5.970  0.0244  0.4566  0.1093
   16MOL   C262 8692   6.454   1.180   5.836 -0.0345 -0.0656  0.0155
   16MOL   C263 8693   6.521   1.093   5.755 -0.6597  0.3193 -0.1400
   16MOL   C264 8694   6.466   0.974   5.716  0.6490  0.1950 -0.1172
   16MOL   C265 8695   6.325   0.949   5.739  0.5144  0.3500 -0.1574
   16MOL   C266 8696   6.267   0.818   5.689  0.2565 -0.2257  0.2082
   16MOL   O267 8697   6.321   0.744   5.609 -0.0113 -0.1105  0.0084
   16MOL   C268 8698   6.256   1.040   5.826  0.8208  0.2333 -0.0001
   16MOL   C269 8699   6.318   1.149   5.884  0.0567  0.1921 -0.2431
   16MOL   H270 8700   6.516   1.850   5.667 -0.4129  0.5089 -1.5015
   16MOL   H271 8701   6.533   1.719   5.553 -2.2973  1.4157  1.0032
   16MOL   H272 8702   6.490   1.607   5.757 -0.3130  1.8821  0.2463
   16MOL   H273 8703   6.593   1.713   5.851 -0.9939 -1.0753  0.7707
   16MOL   H274 8704   6.697   1.522   5.632 -0.2041  1.5231 -0.3222
   16MOL   H275 8705   6.792   1.617   5.747  0.0884  0.9831 -2.2174
   16MOL   H276 8706   6.811   1.418   5.860 -0.2405  2.3294  4.2120
   16MOL   H277 8707   6.681   1.487   5.941 -1.6361 -2.1806  0.8537
   16MOL   H278 8708   6.622   1.120   5.729 -0.6798  0.6477  0.1147
   16MOL   H279 8709   6.522   0.903   5.657  1.5103  0.8230 -0.0755
   16MOL   H280 8710   6.160   1.017   5.871  2.3121 -1.9894  2.1903
   16MOL   H281 8711   6.270   1.212   5.957  1.3354 -1.0518  1.7243
   16MOL   O282 8712   6.148   0.793   5.749  0.2159  0.0526 -0.6528
   16MOL   C283 8713   6.062   0.691   5.709 -0.0851  0.1576  0.0355
   16MOL   C284 8714   5.998   0.714   5.563  0.2658  0.6035  0.8849
   16MOL   C285 8715   5.870   0.628   5.553  0.0747  0.2869  0.1352
   16MOL   C286 8716   5.901   0.477   5.556 -0.3592 -0.0489  0.6739
   16MOL   O287 8717   5.949   0.441   5.685 -0.7088 -0.2284  0.9311
   16MOL   C288 8718   5.866   0.390   5.775 -0.4339 -0.0711  0.0134
   16MOL   O289 8719   5.750   0.351   5.758 -0.2966  0.1048 -0.2513
   16MOL   C290 8720   5.927   0.389   5.915  0.4330  0.3160 -0.0518
   16MOL   C291 8721   6.063   0.381   5.931  0.2970 -0.0039 -0.6701
   16MOL   C292 8722   6.127   0.358   6.060 -0.4949  0.9157  0.1927
   16MOL   C293 8723   6.052   0.345   6.176  0.9071  0.7859  0.3807
   16MOL   C294 8724   6.112   0.332   6.303  0.1204 -0.5722 -0.5532
   16MOL   O295 8725   6.038   0.316   6.400  0.0957  0.6067  0.1144
   16MOL   C296 8726   5.908   0.355   6.162  0.1322 -0.4434 -0.3728
   16MOL   C297 8727   5.849   0.359   6.031  0.2512 -0.4330  0.8375
   16MOL   H298 8728   6.115   0.597   5.697 -1.7063 -0.6275 -1.1175
   16MOL   H299 8729   5.976   0.673   5.774 -1.5471 -0.6035 -2.0703
   16MOL   H300 8730   6.070   0.678   5.489 -2.1360  1.3373 -1.9119
   16MOL   H301 8731   5.976   0.819   5.544 -2.2496  0.1602  1.2694
   16MOL   H302 8732   5.813   0.659   5.640  0.9126  1.7830  0.1633
   16MOL   H303 8733   5.826   0.652   5.456 -1.3197 -2.4377  0.0575
   16MOL   H304 8734   5.817   0.413   5.531  1.5556 -2.3834  0.0406
   16MOL   H305 8735   5.982   0.456   5.486  1.4918 -2.0471  3.2932
   16MOL   H306 8736   6.127   0.397   5.846 -0.4057 -1.8515 -1.5624
   16MOL   H307 8737   6.235   0.352   6.059 -0.4935  0.9626  0.0977
   16MOL   H308 8738   5.841   0.357   6.246  1.8344 -0.3118  1.0260
   16MOL   H309 8739   5.742   0.368   6.021  0.4986  1.2690 -0.5219
   16MOL   O310 8740   6.248   0.343   6.308  0.4394 -0.7265 -0.5720
   16MOL   C311 8741   6.317   0.329   6.430 -0.0411  1.2474  0.6237
   16MOL   C312 8742   6.433   0.430   6.432 -0.3959  0.0284 -0.1901
   16MOL   C313 8743   6.535   0.426   6.324  0.2824 -0.2779  0.6623
   16MOL   C314 8744   6.489   0.500   6.197  0.5087  0.3926 -0.3716
   16MOL   O315 8745   6.574   0.475   6.082 -0.3494 -0.4999  0.0600
   16MOL   C316 8746   6.547   0.545   5.973 -0.3246  0.2331  0.5423
   16MOL   O317 8747   6.455   0.626   5.964 -0.7126  0.1973  0.0779
   16MOL   C318 8748   6.633   0.505   5.857 -0.0741 -0.5713 -0.4755
   16MOL   C319 8749   6.715   0.390   5.854 -0.2782 -0.4440 -0.0812
   16MOL   C320 8750   6.798   0.362   5.741 -0.1818  0.0121 -0.2223
   16MOL   C321 8751   6.788   0.442   5.631  0.0074  0.1212  0.0818
   16MOL   C322 8752   6.865   0.401   5.506  0.6188 -0.1578  0.2876
   16MOL   O323 8753   6.960   0.321   5.501 -0.8324 -0.3477  0.8584
   16MOL   C324 8754   6.702   0.554   5.626 -1.2736  0.1917 -0.6006
   16MOL   C325 8755   6.632   0.588   5.742 -0.1412  0.2364  0.1318
   16MOL   H326 8756   6.252   0.352   6.515 -0.8169  1.0028  0.0985
   16MOL   H327 8757   6.335   0.222   6.438  2.0708  1.3830 -1.6871
   16MOL   H328 8758   6.479   0.401   6.527 -1.9934 -0.2370  0.5194
   16MOL   H329 8759   6.386   0.528   6.447 -1.4462 -0.5207  0.1550
   16MOL   H330 8760   6.625   0.474   6.362  0.8349 -0.1792 -0.7467
   16MOL   H331 8761   6.553   0.320   6.305  0.5264  0.2979 -2.6327
   16MOL   H332 8762   6.386   0.475   6.170  0.8738 -0.0202 -1.4381
   16MOL   H333 8763   6.489   0.609   6.205  0.0733  0.4900 -1.5481
   16MOL   H334 8764   6.721   0.320   5.935  0.2952 -0.5248 -0.1939
   16MOL   H335 8765   6.857   0.272   5.742  0.5457  0.4798 -0.7874
   16MOL   H336 8766   6.703   0.628   5.547  0.7006  1.1024  0.2387
   16MOL   H337 8767   6.573   0.678   5.749  0.7857  0.7347  1.9695
   16MOL   O338 8768   6.819   0.473   5.399 -0.0267  0.7732  0.0600
   16MOL   C339 8769   6.888   0.453   5.278  0.2012 -0.4853 -0.3032
   16MOL   C340 8770   6.817   0.330   5.210  0.0066  0.3258  0.0160
   16MOL   C341 8771   6.882   0.299   5.075 -0.7766  0.1700 -0.3692
   16MOL   C342 8772   6.843   0.172   4.999 -0.4248 -0.7860 -0.1354
   16MOL   O343 8773   6.916   0.169   4.883 -0.3230 -0.2688 -0.2167
   16MOL   C344 8774   7.025   0.097   4.870 -0.1793 -0.0730 -0.1250
   16MOL   O345 8775   7.087   0.045   4.962  0.3142  0.1060  0.1078
   16MOL   C346 8776   7.068   0.096   4.728  0.0351  0.0499  0.2715
   16MOL   C347 8777   7.209   0.109   4.710 -0.3443  0.1394 -0.9285
   16MOL   C348 8778   7.265   0.121   4.580  0.6304  0.6753  0.2064
   16MOL   C349 8779   7.178   0.109   4.464  0.7379 -0.0575 -1.0902
   16MOL   C350 8780   7.229   0.133   4.328  0.3440  0.1599  0.4921
   16MOL   O351 8781   7.343   0.182   4.312  0.0092 -0.2991  0.0037
   16MOL   C352 8782   7.035   0.098   4.485 -0.0120  0.3196 -0.5530
   16MOL   C353 8783   6.984   0.096   4.611 -0.3862  0.3733  0.5509
   16MOL   H354 8784   6.870   0.538   5.212 -0.4159  1.6605  2.5562
   16MOL   H355 8785   6.995   0.441   5.299  0.0119  0.7208  1.4440
   16MOL   H356 8786   6.709   0.344   5.201 -0.3685 -2.2797  0.2490
   16MOL   H357 8787   6.819   0.247   5.281  1.2826 -0.0289 -0.4142
   16MOL   H358 8788   6.877   0.383   5.006 -0.2405 -1.8082 -2.8879
   16MOL   H359 8789   6.989   0.292   5.094 -0.9759  0.2911  0.8584
   16MOL   H360 8790   6.857   0.085   5.064 -1.3723 -0.2275  0.8405
   16MOL   H361 8791   6.740   0.175   4.965  0.0765  3.2607 -1.5510
   16MOL   H362 8792   7.280   0.127   4.789  0.0360 -3.0743 -0.4543
   16MOL   H363 8793   7.370   0.139   4.560  0.7579 -0.7297 -0.4389
   16MOL   H364 8794   6.966   0.105   4.402  1.0718 -0.6663 -1.5656
   16MOL   H365 8795   6.878   0.100   4.631 -0.4767 -1.5549  0.5097
   16MOL   O366 8796   7.143   0.096   4.227  0.0658 -0.3019  0.5591
   16MOL   C367 8797   7.203   0.075   4.102  0.0143 -0.6961  0.0743
   16MOL   C368 8798   7.162   0.178   3.996 -0.8911  0.5899 -0.6763
   16MOL   C369 8799   7.016   0.161   3.947 -0.2307 -0.2405 -0.2726
   16MOL   C370 8800   6.960   0.269   3.856 -0.7272  0.8497  0.1814
   16MOL   O371 8801   6.833   0.248   3.812 -0.0659  0.5748  0.3649
   16MOL   C372 8802   6.809   0.166   3.707 -0.3218  0.2507  0.1897
   16MOL   O373 8803   6.900   0.111   3.635 -0.0941  0.2027  0.3905
   16MOL   C374 8804   6.662   0.151   3.685 -0.2791  0.4027 -0.3811
   16MOL   C375 8805   6.570   0.245   3.730  0.7240 -0.1451  0.1075
   16MOL   C376 8806   6.434   0.221   3.730 -0.1745  0.2411  0.4062
   16MOL   C377 8807   6.383   0.103   3.682 -0.8188  0.3485  0.2142
   16MOL   C378 8808   6.243   0.070   3.699  0.5958 -0.5594 -0.4917
   16MOL   O379 8809   6.186   8.069   3.649  0.3943 -0.3649  0.0623
   16MOL   C380 8810   6.474   0.014   3.622  0.5256 -0.0788  1.0023
   16MOL   C381 8811   6.613   0.036   3.626 -0.1275 -0.6848  0.8435
   16MOL   H382 8812   7.311   0.061   4.105  0.4067  1.0403 -3.5044
   16MOL   H383 8813   7.170   8.077   4.065 -0.6345 -0.5700  0.3230
   16MOL   H384 8814   7.217   0.166   3.903  0.1408  3.1320 -0.4379
   16MOL   H385 8815   7.175   0.282   4.029  1.1229  0.0501  0.3184
   16MOL   H386 8816   7.010   0.069   3.889  2.5308 -0.4506 -0.2959
   16MOL   H387 8817   6.949   0.148   4.032 -2.6776 -0.1629 -2.1603
   16MOL   H388 8818   6.952   0.367   3.904 -1.9286  0.6986  0.2933
   16MOL   H389 8819   7.030   0.272   3.773 -0.5645  0.7444  0.3123
   16MOL   H390 8820   6.608   0.338   3.770 -0.1523 -0.3773  1.5161
   16MOL   H391 8821   6.381   0.308   3.767  0.0367  0.0880  1.0740
   16MOL   H392 8822   6.422   8.031   3.574 -0.9864  2.6962 -2.3157
   16MOL   H393 8823   6.678   8.054   3.594 -0.8321 -0.1796 -2.0185
   16MOL   O394 8824   6.175   0.161   3.769  0.1232 -0.1690 -0.6875
   16MOL   C395 8825   6.034   0.162   3.786  0.1143  0.7162  0.3415
   16MOL   C396 8826   5.963   0.256   3.687  0.1826  0.5909 -0.2537
   16MOL   C397 8827   5.813   0.236   3.694 -0.1080  0.4399  0.0051
   16MOL   C398 8828   5.725   0.344   3.635  0.6831 -0.6046 -0.4441
   16MOL   O399 8829   5.587   0.323   3.664 -0.4587 -0.5592 -1.0435
   16MOL   C400 8830   5.524   0.376   3.773 -0.9203  0.3224  0.2966
   16MOL   O401 8831   5.584   0.447   3.855  0.1374  0.0507  0.2470
   16MOL   C402 8832   5.384   0.333   3.790 -0.2931 -0.0322 -0.3466
   16MOL   C403 8833   5.306   0.375   3.901 -0.0131  0.0728  0.4934
   16MOL   C404 8834   5.173   0.330   3.921 -0.5657 -0.8555 -0.4008
   16MOL   C405 8835   5.115   0.244   3.826  0.4227 -0.4310  0.3983
   16MOL   C406 8836   4.973   0.206   3.839  0.5065  0.4983 -0.1929
   16MOL   O407 8837   4.918   0.182   3.945 -0.7207  0.6596  0.0936
   16MOL   C408 8838   5.198   0.194   3.725 -0.3498  0.3251 -1.0666
   16MOL   C409 8839   5.330   0.239   3.706 -0.1698 -0.1230  0.4063
   16MOL   H410 8840   5.996   0.062   3.766  0.5007  0.0064  2.8833
   16MOL   H411 8841   5.993   0.190   3.883  1.7604  1.7625  0.7464
   16MOL   H412 8842   6.001   0.236   3.586  2.3302  1.7853  0.2831
   16MOL   H413 8843   5.981   0.360   3.712  0.6174  0.0160  1.9460
   16MOL   H414 8844   5.788   0.135   3.664 -2.8826  0.2109  2.8383
   16MOL   H415 8845   5.777   0.213   3.794  1.1850 -1.5994  0.0421
   16MOL   H416 8846   5.756   0.443   3.669 -1.6494  0.5311 -1.5602
   16MOL   H417 8847   5.744   0.345   3.528  1.8264  0.4037 -0.2449
   16MOL   H418 8848   5.358   0.433   3.977  0.0410  1.2709 -0.4522
   16MOL   H419 8849   5.110   0.359   4.004  0.4856  0.4753 -0.0572
   16MOL   H420 8850   5.159   0.116   3.661 -0.4719  0.2781 -0.9355
   16MOL   H421 8851   5.386   0.190   3.627  1.9865  0.5660  1.4607
   16MOL   O422 8852   4.915   0.185   3.718  0.2671 -0.4679 -0.1856
   16MOL   C423 8853   4.775   0.150   3.712 -0.5733 -0.3070  0.1453
   16MOL   C424 8854   4.715   0.188   3.573 -0.4505  0.8724 -0.2356
   16MOL   C425 8855   4.560   0.184   3.578 -0.4847  0.3476 -0.1063
   16MOL   C426 8856   4.499   0.273   3.688  0.2498  0.5248 -0.2434
   16MOL   O427 8857   4.545   0.407   3.672 -0.5117 -0.3675  0.5861
   16MOL   C428 8858   4.577   0.484   3.782 -0.6938  0.1877  0.7890
   16MOL   O429 8859   4.586   0.439   3.895  0.1415 -0.4178 -0.3724
   16MOL   C430 8860   4.590   0.633   3.745 -0.0332  1.0061  0.4269
   16MOL   C431 8861   4.599   0.722   3.855  0.1377  0.3721  0.2289
   16MOL   C432 8862   4.622   0.857   3.824  0.2159 -0.2855 -0.4983
   16MOL   C433 8863   4.632   0.898   3.692  0.2614 -0.3830  0.1603
   16MOL   C434 8864   4.659   1.043   3.663  0.3584 -0.0504  0.3287
   16MOL   O435 8865   4.637   1.131   3.746  0.1015  0.3520  0.0743
   16MOL   C436 8866   4.616   0.811   3.588 -0.0118 -0.7125  0.3884
   16MOL   C437 8867   4.598   0.676   3.609 -0.3032  0.1320 -0.4373
   16MOL   H438 8868   4.768   0.042   3.725  0.0206 -0.1831  1.5471
   16MOL   H439 8869   4.727   0.195   3.798 -0.5490  0.4113 -0.2141
   16MOL   H440 8870   4.758   0.122   3.498  0.5433  0.2054  0.8808
   16MOL   H441 8871   4.750   0.289   3.553 -2.8018  2.2087  2.0823
   16MOL   H442 8872   4.536   0.200   3.473  1.0421 -2.0379 -0.8466
   16MOL   H443 8873   4.522   0.086   3.607 -2.7957  1.0062 -0.8540
   16MOL   H444 8874   4.391   0.281   3.678  0.2617  0.7732 -0.1754
   16MOL   H445 8875   4.531   0.235   3.785  0.2117  0.8478 -0.1037
   16MOL   H446 8876   4.584   0.689   3.957  1.5062 -0.5763  0.1367
   16MOL   H447 8877   4.620   0.929   3.904  0.1339 -1.9261  0.9891
   16MOL   H448 8878   4.608   0.841   3.484 -0.8975  2.0985  1.2356
   16MOL   H449 8879   4.579   0.611   3.525 -0.3113 -0.5459  0.0828
   16MOL   O450 8880   4.722   1.069   3.538 -0.1125  0.5272  0.4066
   16MOL   C451 8881   4.739   1.200   3.486 -0.3210 -0.3609 -0.1411
   16MOL   C452 8882   4.892   1.217   3.466 -0.4219 -0.4056 -0.3253
   16MOL   C453 8883   4.946   1.136   3.346  0.4061  0.2654  0.1486
   16MOL   C454 8884   5.092   1.153   3.322  0.2807  0.8580  0.3279
   16MOL   O455 8885   5.141   1.091   3.192 -0.2188 -0.6702 -0.5682
   16MOL   C456 8886   5.155   1.158   3.079 -0.2446 -0.1920 -0.4838
   16MOL   O457 8887   5.094   1.261   3.051 -0.1436 -0.2244  0.9151
   16MOL   C458 8888   5.268   1.105   2.997  0.3174 -0.2960  0.1799
   16MOL   C459 8889   5.353   1.003   3.042  0.0712  0.1242  0.0478
   16MOL   C460 8890   5.471   0.967   2.970  0.0066  0.1231 -0.0366
   16MOL   C461 8891   5.505   1.028   2.852 -0.2194 -0.5527 -0.4038
   16MOL   C462 8892   5.623   0.979   2.779  0.4820 -0.3707  0.0119
   16MOL   O463 8893   5.699   0.894   2.828  0.3698  0.0304  0.1693
   16MOL   C464 8894   5.426   1.132   2.800 -0.1722  0.2474 -0.2071
   16MOL   C465 8895   5.310   1.170   2.881 -0.0834  0.0188 -0.0712
   16MOL   H466 8896   4.681   1.225   3.397 -1.4404 -2.1842  0.0533
   16MOL   H467 8897   4.714   1.276   3.559  1.0805 -0.8365  0.8629
   16MOL   H468 8898   4.943   1.186   3.557  2.1928  2.1100 -0.8768
   16MOL   H469 8899   4.917   1.322   3.453  0.8758 -0.7899 -1.0492
   16MOL   H470 8900   4.907   1.037   3.368  1.8523 -0.3161  0.1424
   16MOL   H471 8901   4.894   1.158   3.254  0.3923 -1.8237 -0.3666
   16MOL   H472 8902   5.125   1.256   3.337 -1.8946  2.0495 -2.6799
   16MOL   H473 8903   5.147   1.088   3.391  2.0686  1.1602 -0.7810
   16MOL   H474 8904   5.322   0.942   3.126 -1.0404 -0.8845 -1.0802
   16MOL   H475 8905   5.524   0.878   3.000 -0.5709 -0.0224  0.5820
   16MOL   H476 8906   5.452   1.170   2.702 -1.1104 -1.0977 -0.9853
   16MOL   H477 8907   5.254   1.252   2.837  0.3305 -0.5816 -1.7521
   16MOL   O478 8908   5.642   1.031   2.652 -0.3066  0.2076 -0.0907
   16MOL   C479 8909   5.747   0.989   2.571  0.0035  0.2746 -0.6665
   16MOL   C480 8910   5.776   1.099   2.467 -1.4230  0.3723 -0.4437
   16MOL   C481 8911   5.876   1.059   2.357 -0.0554  0.0620  0.0949
   16MOL   C482 8912   5.905   1.178   2.270  0.3825  0.7227 -0.0189
   16MOL   O483 8913   5.800   1.184   2.174  0.2538  0.6285 -0.6220
   16MOL   C484 8914   5.822   1.176   2.044 -0.3494  0.8038  1.2591
   16MOL   O485 8915   5.934   1.178   1.987  0.4613  0.1759  1.0844
   16MOL   C486 8916   5.696   1.174   1.966  0.4978  0.7094 -0.1820
   16MOL   C487 8917   5.575   1.157   2.029 -0.1828  0.4986  0.2275
   16MOL   C488 8918   5.453   1.155   1.966  0.7900  0.4891  0.6288
   16MOL   C489 8919   5.451   1.177   1.827  0.2943  0.6544  0.2398
   16MOL   C490 8920   5.322   1.194   1.749 -0.0602 -0.2732  0.0331
   16MOL   O491 8921   5.306   1.198   1.628 -0.6755 -0.0074  0.0179
   16MOL   C492 8922   5.577   1.201   1.763 -0.2185  0.8392 -0.7570
   16MOL   C493 8923   5.699   1.192   1.831 -0.3513 -0.0155  0.3140
   16MOL   H494 8924   5.837   0.980   2.632  0.3690 -0.5377 -1.3141
   16MOL   H495 8925   5.711   0.895   2.530 -2.4126  1.0594 -0.4048
   16MOL   H496 8926   5.810   1.187   2.523 -0.2802  0.2480 -0.9286
   16MOL   H497 8927   5.681   1.131   2.424 -2.5825  0.2831  1.9387
   16MOL   H498 8928   5.970   1.025   2.399  1.9056  1.4425 -2.9789
   16MOL   H499 8929   5.841   0.969   2.306  0.4702 -0.4843  0.6988
   16MOL   H500 8930   5.896   1.268   2.331  1.0520  1.0750 -0.4409
   16MOL   H501 8931   6.001   1.167   2.221  0.2049  0.4023 -0.2980
   16MOL   H502 8932   5.578   1.111   2.127  1.1750 -0.8820 -0.4328
   16MOL   H503 8933   5.364   1.124   2.019  1.7015 -1.8772  0.8765
   16MOL   H504 8934   5.571   1.216   1.657 -1.3775 -2.3686 -1.1988
   16MOL   H505 8935   5.792   1.207   1.779 -1.5528 -1.2776 -2.3195
   16MOL   O506 8936   5.216   1.194   1.833  0.0013 -0.5462  0.5161
   16MOL   C507 8937   5.082   1.192   1.788  0.1541  0.9508 -0.3091
   16MOL   C508 8938   4.990   1.285   1.863 -0.3621 -0.5603  0.1297
   16MOL   C509 8939   4.922   1.212   1.974  0.1718  0.1224 -0.1594
   16MOL   C510 8940   4.854   1.301   2.077 -0.5281  0.0360 -1.0262
   16MOL   O511 8941   4.759   1.372   2.001 -0.0563 -0.5892  0.3440
   16MOL   C512 8942   4.682   1.459   2.068  0.0351 -0.2984 -0.6449
   16MOL   O513 8943   4.676   1.477   2.185  0.2664  0.2328  0.2335
   16MOL   C514 8944   4.601   1.535   1.974  0.8727 -0.4624 -0.0944
   16MOL   C515 8945   4.581   1.511   1.836  0.0055 -0.2354  0.5758
   16MOL   C516 8946   4.501   1.592   1.756  0.6407  0.7167 -0.0078
   16MOL   C517 8947   4.444   1.707   1.805  0.0803 -0.4297  0.2944
   16MOL   C518 8948   4.367   1.792   1.714 -0.4901 -0.2214  1.0087
   16MOL   O519 8949   4.343   1.764   1.595  0.6197 -0.5073 -0.7245
   16MOL   C520 8950   4.458   1.736   1.941 -0.0734 -0.4384  0.1869
   16MOL   C521 8951   4.537   1.650   2.023 -0.5364  0.3557  0.1619
   16MOL   H522 8952   5.074   1.220   1.683 -0.3141  0.0254 -0.5249
   16MOL   H523 8953   5.039   1.092   1.791 -0.8230  1.3870  0.5727
   16MOL   H524 8954   4.912   1.315   1.793 -0.5821 -0.3138  0.4822
   16MOL   H525 8955   5.055   1.367   1.891 -0.0550  0.4299 -3.2284
   16MOL   H526 8956   4.864   1.128   1.937 -3.7368  4.0072 -3.3714
   16MOL   H527 8957   5.002   1.164   2.031 -0.7263 -2.6672 -1.1737
   16MOL   H528 8958   4.806   1.229   2.144 -1.0742  3.4824  2.4212
   16MOL   H529 8959   4.930   1.364   2.121  0.9056 -1.3033 -1.5174
   16MOL   H530 8960   4.622   1.420   1.794 -1.9898 -0.5026 -0.8726
   16MOL   H531 8961   4.474   1.562   1.656  0.1996  3.1147 -0.6447
   16MOL   H532 8962   4.408   1.821   1.984  0.3103  0.0321 -0.3027
   16MOL   H533 8963   4.547   1.668   2.129 -0.5154 -0.3387  0.2807
   16MOL   O534 8964   4.336   1.917   1.764  0.9922  0.2426  0.2715
   16MOL   C535 8965   4.272   2.015   1.682 -0.0234 -0.3686  0.2578
   16MOL   C536 8966   4.121   1.997   1.695 -0.1872  0.1108 -0.1119
   16MOL   C537 8967   4.072   2.010   1.841 -0.4422  0.5441  0.0819
   16MOL   C538 8968   3.922   2.010   1.860  0.3011  0.3490 -0.0572
   16MOL   O539 8969   3.852   1.882   1.825  0.0386  0.0515 -0.1124
   16MOL   C540 8970   3.765   1.875   1.719  0.3846  0.3502  0.4494
   16MOL   O541 8971   3.750   1.969   1.644 -0.6145 -0.2404  0.1618
   16MOL   C542 8972   3.679   1.753   1.722 -0.3312  0.2872 -0.1047
   16MOL   C543 8973   3.592   1.720   1.620  0.3729  0.2497  0.4613
   16MOL   C544 8974   3.513   1.601   1.618 -0.7460  0.6037 -0.2040
   16MOL   C545 8975   3.515   1.519   1.730 -0.1566  0.6406  0.1576
   16MOL   C546 8976   3.434   1.396   1.739  0.2099  0.4749 -0.2601
   16MOL   O547 8977   3.436   1.325   1.841 -0.1358 -0.2184  0.1457
   16MOL   C548 8978   3.599   1.548   1.839  0.2579 -0.2863 -0.6384
   16MOL   C549 8979   3.680   1.664   1.829 -0.0496 -0.4523  0.3504
   16MOL   H550 8980   4.304   2.114   1.712  1.7702 -0.6471 -0.6755
   16MOL   H551 8981   4.300   1.995   1.578  0.0501 -3.3006  0.7880
   16MOL   H552 8982   4.096   1.896   1.661  2.5901 -0.8097  0.4062
   16MOL   H553 8983   4.067   2.067   1.632 -0.8036 -1.0101 -0.8489
   16MOL   H554 8984   4.114   1.927   1.898 -0.8858  0.7474  0.7032
   16MOL   H555 8985   4.114   2.102   1.880  0.8271  0.4245 -0.9565
   16MOL   H556 8986   3.884   2.032   1.960  1.0937  0.0281  0.3192
   16MOL   H557 8987   3.884   2.092   1.800 -1.1930 -3.2048 -4.2439
   16MOL   H558 8988   3.584   1.784   1.534  0.6004 -4.3519 -3.1842
   16MOL   H559 8989   3.447   1.573   1.538 -1.3310  1.6569 -0.0971
   16MOL   H560 8990   3.613   1.493   1.930 -0.8421  1.4376  0.6198
   16MOL   H561 8991   3.753   1.667   1.909 -0.5258  0.2860  0.7671
   16MOL   H562 8992   3.377   1.370   1.650 -2.5074  1.9761  0.9549
   17MOL     O1 8993   7.226   6.541   7.338 -0.1367  0.2571 -0.4474
   17MOL     C2 8994   7.249   6.437   7.252  0.0121  0.0028  0.1585
   17MOL     C3 8995   7.142   6.431   7.138 -0.3272 -0.4288 -0.4647
   17MOL     C4 8996   7.004   6.420   7.173  0.4496 -0.2498 -0.4348
   17MOL     C5 8997   6.969   6.311   7.262  0.4628 -0.2415  0.0674
   17MOL     O6 8998   6.992   6.188   7.203 -0.0832 -0.1954 -0.0763
   17MOL     C7 8999   6.989   6.074   7.271 -0.1371  0.4414  0.1798
   17MOL     O8 9000   6.971   6.071   7.390  0.0773 -0.2451  0.3167
   17MOL     C9 9001   7.017   5.952   7.194 -0.3143  0.6602  0.3203
   17MOL    C10 9002   7.072   5.959   7.065  0.0579 -0.4023 -0.2115
   17MOL    C11 9003   7.087   5.848   6.980 -0.0655  0.1297 -0.0478
   17MOL    C12 9004   7.048   5.723   7.031  0.4047 -0.0736  0.2338
   17MOL    C13 9005   7.056   5.596   6.957  0.3436  0.5804 -0.3116
   17MOL    O14 9006   7.054   5.478   7.005  0.8891 -0.0294 -0.0677
   17MOL    C15 9007   7.000   5.712   7.162  0.3210 -0.0432  0.2899
   17MOL    C16 9008   6.977   5.826   7.241  0.1492 -0.5766 -0.2387
   17MOL    H17 9009   7.348   6.448   7.209 -0.5622 -1.8289 -1.7264
   17MOL    H18 9010   7.242   6.339   7.300  0.4115  0.0060  0.2249
   17MOL    H19 9011   7.161   6.344   7.075 -2.6568 -0.2904 -1.3879
   17MOL    H20 9012   7.157   6.519   7.076 -0.1491 -1.1271 -1.4228
   17MOL    H21 9013   6.985   6.514   7.225  3.9964 -0.8286  2.0736
   17MOL    H22 9014   6.932   6.416   7.091  1.9249 -2.1898 -1.6546
   17MOL    H23 9015   7.017   6.331   7.358  1.0939 -0.6419 -0.1571
   17MOL    H24 9016   6.863   6.317   7.283  0.6881  2.5346  0.5350
   17MOL    H25 9017   7.090   6.057   7.022 -3.1385  0.7711  1.0019
   17MOL    H26 9018   7.125   5.865   6.880  0.2732 -3.7046 -0.6688
   17MOL    H27 9019   6.962   5.620   7.204 -1.9128  0.0320 -1.5073
   17MOL    H28 9020   6.945   5.810   7.343  1.1460 -0.2209  0.1435
   17MOL    H29 9021   7.298   6.544   7.399  0.0069  0.0393 -0.6069
   17MOL    O30 9022   7.082   5.617   6.829  0.0457  0.4499  0.0493
   17MOL    C31 9023   7.110   5.507   6.747  0.0398 -0.3006 -0.1739
   17MOL    C32 9024   6.970   5.452   6.693  0.4389  0.0526 -0.2044
   17MOL    C33 9025   6.936   5.310   6.734 -0.1928  0.2177 -0.2472
   17MOL    C34 9026   6.804   5.255   6.683  0.4907 -0.1823 -0.5627
   17MOL    O35 9027   6.806   5.230   6.546  0.0226 -0.7564 -0.0115
   17MOL    C36 9028   6.698   5.199   6.467  0.3076  0.1910 -0.4356
   17MOL    O37 9029   6.592   5.167   6.518  0.2243  0.4758  0.2894
   17MOL    C38 9030   6.728   5.197   6.320  0.0628  0.1724  0.4480
   17MOL    C39 9031   6.650   5.122   6.233  0.0493  0.3763  0.9087
   17MOL    C40 9032   6.671   5.125   6.091  0.3295  0.3115  0.8067
   17MOL    C41 9033   6.764   5.221   6.041  0.5002 -0.0563  0.3083
   17MOL    C42 9034   6.786   5.241   5.894  1.1148  0.0496 -0.5074
   17MOL    O43 9035   6.857   5.337   5.852  0.4036 -0.2688  0.2125
   17MOL    C44 9036   6.835   5.301   6.132  0.8288  1.1171  0.2325
   17MOL    C45 9037   6.825   5.282   6.271 -0.8647 -0.1413 -0.4449
   17MOL    H46 9038   7.171   5.544   6.664  0.8590  1.5060  1.2083
   17MOL    H47 9039   7.171   5.426   6.787  1.8000  0.9100 -0.3493
   17MOL    H48 9040   6.970   5.463   6.585 -1.6882  1.6615 -0.0736
   17MOL    H49 9041   6.889   5.517   6.726  3.5582  2.8248  2.4210
   17MOL    H50 9042   7.022   5.248   6.707 -0.1749 -0.5681  1.5020
   17MOL    H51 9043   6.933   5.314   6.843  0.2537  0.3713 -0.2381
   17MOL    H52 9044   6.771   5.174   6.747 -0.0324  0.3858 -0.1117
   17MOL    H53 9045   6.728   5.330   6.705  1.0529 -0.1299  1.2513
   17MOL    H54 9046   6.575   5.065   6.286  1.7405  0.9831  4.1408
   17MOL    H55 9047   6.609   5.075   6.018 -0.2255  0.3044  1.2785
   17MOL    H56 9048   6.897   5.378   6.090  0.1844  1.9170  0.7270
   17MOL    H57 9049   6.878   5.345   6.341 -0.3073 -1.3360  0.2145
   17MOL    O58 9050   6.730   5.154   5.815  0.2882 -0.2232  0.1283
   17MOL    C59 9051   6.745   5.173   5.678 -0.2420  0.5181  0.3194
   17MOL    C60 9052   6.620   5.146   5.600  0.2264  0.0049 -0.6243
   17MOL    C61 9053   6.641   5.173   5.452 -0.4163  0.3194  0.4470
   17MOL    C62 9054   6.526   5.140   5.361 -0.2904  0.2086  0.4509
   17MOL    O63 9055   6.418   5.230   5.380  0.2721  0.4423 -0.5256
   17MOL    C64 9056   6.394   5.329   5.294 -0.0626 -0.0216 -0.8618
   17MOL    O65 9057   6.450   5.331   5.188  0.0937  0.2429  0.2480
   17MOL    C66 9058   6.278   5.417   5.330  0.2179  0.2664  0.2198
   17MOL    C67 9059   6.237   5.528   5.246 -0.3776 -0.1950  0.4915
   17MOL    C68 9060   6.130   5.610   5.287 -0.2566 -0.9005 -0.1755
   17MOL    C69 9061   6.071   5.591   5.417 -0.2768 -0.1749 -0.2950
   17MOL    C70 9062   5.969   5.690   5.466 -0.6722 -0.3487 -0.7692
   17MOL    O71 9063   5.924   5.680   5.583 -0.1587 -0.1238  0.1793
   17MOL    C72 9064   6.117   5.487   5.499  0.2776 -0.1393  0.6904
   17MOL    C73 9065   6.215   5.400   5.457 -0.4479  0.1831 -0.1760
   17MOL    H74 9066   6.780   5.272   5.649  2.0193 -0.1079  0.8307
   17MOL    H75 9067   6.817   5.101   5.639 -0.4002  0.3515  0.3352
   17MOL    H76 9068   6.539   5.213   5.630 -1.5376 -1.9365 -1.0060
   17MOL    H77 9069   6.604   5.039   5.598  3.5132 -0.5499 -0.6387
   17MOL    H78 9070   6.689   5.269   5.433 -1.0590  0.3644 -1.0383
   17MOL    H79 9071   6.713   5.103   5.409 -0.6874 -0.3068  1.0045
   17MOL    H80 9072   6.553   5.135   5.255  0.7301  0.2912  0.6986
   17MOL    H81 9073   6.499   5.039   5.391 -0.3346 -0.8855 -2.9785
   17MOL    H82 9074   6.286   5.550   5.153  0.1491  0.7378  0.9822
   17MOL    H83 9075   6.110   5.685   5.213  0.4983  0.6323  1.1503
   17MOL    H84 9076   6.084   5.479   5.602 -0.3217 -0.6622  0.4525
   17MOL    H85 9077   6.252   5.323   5.523  0.7816  1.1768  0.3233
   17MOL    O86 9078   5.935   5.782   5.372  0.8892 -0.4461 -0.2540
   17MOL    C87 9079   5.837   5.878   5.407 -0.1171 -0.4080  0.0037
   17MOL    C88 9080   5.777   5.940   5.288  0.2217  0.6550 -0.0700
   17MOL    C89 9081   5.877   6.037   5.231 -0.0911  0.3583 -0.5010
   17MOL    C90 9082   6.014   5.986   5.163  1.3162  0.4716  0.2912
   17MOL    O91 9083   6.073   6.098   5.097 -0.2130 -0.6723  1.0509
   17MOL    C92 9084   6.114   6.091   4.965  1.4292  0.1490  0.0733
   17MOL    O93 9085   6.090   6.001   4.883 -0.7037 -0.5886 -0.0233
   17MOL    C94 9086   6.182   6.215   4.922  0.2176  0.5778  0.3435
   17MOL    C95 9087   6.227   6.311   5.014 -0.1334 -0.0004  0.2528
   17MOL    C96 9088   6.293   6.426   4.977  0.2155 -1.1023  0.0807
   17MOL    C97 9089   6.323   6.447   4.841 -1.3940 -0.1734  0.1319
   17MOL    C98 9090   6.394   6.574   4.797  0.1313 -0.0832 -0.0586
   17MOL    O99 9091   6.423   6.604   4.682 -0.1606 -0.8221 -0.6336
   17MOL   C100 9092   6.276   6.352   4.742  0.0752  0.8389 -0.5680
   17MOL   C101 9093   6.204   6.235   4.784  0.3736  0.2760  0.5635
   17MOL   H102 9094   5.767   5.829   5.475  0.4406  0.2674  1.0743
   17MOL   H103 9095   5.889   5.951   5.469 -1.5450 -0.3386  1.1436
   17MOL   H104 9096   5.690   5.995   5.325 -0.0296 -1.0650  2.0279
   17MOL   H105 9097   5.740   5.868   5.215  2.2625  1.1421 -1.6107
   17MOL   H106 9098   5.822   6.086   5.150  1.3640  1.4882 -0.8159
   17MOL   H107 9099   5.910   6.111   5.303  0.2487 -1.1296  0.8882
   17MOL   H108 9100   6.089   5.943   5.229  0.6191 -0.7961  0.2627
   17MOL   H109 9101   5.999   5.907   5.090 -0.3884  0.0276  1.1092
   17MOL   H110 9102   6.213   6.300   5.120  0.9287  0.6483  0.4659
   17MOL   H111 9103   6.327   6.493   5.054  0.2780 -1.0060 -0.0312
   17MOL   H112 9104   6.285   6.364   4.635  1.6367 -0.6425 -0.6277
   17MOL   H113 9105   6.154   6.167   4.716  0.5014  1.8196 -1.1273
   17MOL   O114 9106   6.413   6.659   4.906  0.1125  0.0863  0.7359
   17MOL   C115 9107   6.433   6.798   4.882 -0.2263 -0.2770 -0.0090
   17MOL   C116 9108   6.369   6.870   4.998 -0.6377  0.1403  0.3207
   17MOL   C117 9109   6.219   6.849   4.990  0.5108  0.3000  0.8151
   17MOL   C118 9110   6.150   6.845   5.129 -0.1268 -0.1488 -0.4943
   17MOL   O119 9111   6.188   6.962   5.194  0.2725  0.9768  0.3752
   17MOL   C120 9112   6.100   7.062   5.192  0.6221  0.4610  0.0532
   17MOL   O121 9113   5.984   7.055   5.148  0.2088  0.1366 -0.6077
   17MOL   C122 9114   6.152   7.190   5.248 -0.0068 -0.7896  0.2268
   17MOL   C123 9115   6.070   7.301   5.232 -0.1456  0.0887  0.3601
   17MOL   C124 9116   6.103   7.430   5.274 -0.1672  0.2695  0.0612
   17MOL   C125 9117   6.222   7.444   5.348  0.3808 -0.0341  0.1151
   17MOL   C126 9118   6.258   7.591   5.388  0.0801 -0.3174 -0.0398
   17MOL   O127 9119   6.208   7.692   5.340 -0.2456  0.7061  0.6836
   17MOL   C128 9120   6.303   7.332   5.378  0.4993 -0.3765 -0.0655
   17MOL   C129 9121   6.266   7.201   5.328  0.1384  0.6820  0.2335
   17MOL   H130 9122   6.541   6.805   4.890 -0.1716 -1.3634  0.3756
   17MOL   H131 9123   6.389   6.828   4.787  1.2100  0.3040 -0.5086
   17MOL   H132 9124   6.395   6.976   5.004  2.0581 -0.4919  0.8948
   17MOL   H133 9125   6.399   6.826   5.093  0.0511  0.5513  0.3040
   17MOL   H134 9126   6.174   6.928   4.931 -0.0589  0.3339  1.2937
   17MOL   H135 9127   6.182   6.762   4.936  0.5425 -0.1273  1.4717
   17MOL   H136 9128   6.046   6.815   5.129  0.4191 -2.1173  0.1032
   17MOL   H137 9129   6.199   6.765   5.185  1.5759 -0.8714 -2.9200
   17MOL   H138 9130   5.980   7.286   5.176 -0.3804  0.7736  0.5493
   17MOL   H139 9131   6.033   7.510   5.255 -1.4492 -1.8149 -4.4304
   17MOL   H140 9132   6.389   7.355   5.438  1.4705  1.6714 -2.1709
   17MOL   H141 9133   6.327   7.118   5.361  0.1243  1.0652  1.2518
   17MOL   O142 9134   6.353   7.590   5.486  0.4989 -0.1185  0.4321
   17MOL   C143 9135   6.384   7.716   5.536 -0.0603 -0.5255  0.1147
   17MOL   C144 9136   6.500   7.708   5.642 -0.1343 -0.7183  0.6301
   17MOL   C145 9137   6.453   7.676   5.784 -0.2155  0.2202 -0.2047
   17MOL   C146 9138   6.426   7.531   5.818  0.0736 -0.5325  0.0118
   17MOL   O147 9139   6.366   7.534   5.942  0.5687  0.5377 -0.1020
   17MOL   C148 9140   6.379   7.427   6.024 -0.2064 -0.5435 -0.3969
   17MOL   O149 9141   6.412   7.313   5.987  0.3937  0.1464  0.3721
   17MOL   C150 9142   6.351   7.468   6.165 -0.0848  0.2584  0.0119
   17MOL   C151 9143   6.372   7.369   6.266  0.0860  0.1478 -0.5673
   17MOL   C152 9144   6.351   7.396   6.399 -0.0205 -0.3835 -0.1955
   17MOL   C153 9145   6.317   7.532   6.443  0.2947  0.0461 -0.2986
   17MOL   C154 9146   6.308   7.568   6.590 -0.1687  0.6789 -0.0437
   17MOL   O155 9147   6.329   7.678   6.635 -0.1117  0.1093 -0.1677
   17MOL   C156 9148   6.303   7.629   6.343  0.1087  0.3905 -0.1443
   17MOL   C157 9149   6.312   7.598   6.207  0.5527  0.1537  0.0695
   17MOL   H158 9150   6.416   7.769   5.447 -0.0451 -0.4491  0.1650
   17MOL   H159 9151   6.292   7.765   5.568  0.5870  0.8364 -0.1023
   17MOL   H160 9152   6.553   7.803   5.643 -0.1154 -0.7305  0.8434
   17MOL   H161 9153   6.578   7.641   5.604  0.9113  1.5011 -1.2745
   17MOL   H162 9154   6.537   7.708   5.846 -0.5028  0.9281 -0.1808
   17MOL   H163 9155   6.362   7.730   5.813 -1.0134 -0.2918 -1.7182
   17MOL   H164 9156   6.356   7.489   5.746  1.5918 -2.7604 -0.2235
   17MOL   H165 9157   6.521   7.477   5.818  0.9262  0.9353  0.2349
   17MOL   H166 9158   6.419   7.274   6.247 -1.0491 -0.2985 -1.1977
   17MOL   H167 9159   6.367   7.325   6.479  1.9069  1.5672  1.2090
   17MOL   H168 9160   6.285   7.731   6.375  0.1014  0.4157 -0.2275
   17MOL   H169 9161   6.291   7.682   6.143 -3.1627  0.7917  1.9868
   17MOL   O170 9162   6.298   7.459   6.659 -0.4199 -0.6064  0.2111
   17MOL   C171 9163   6.297   7.462   6.798 -0.1225 -0.2163 -0.1654
   17MOL   C172 9164   6.326   7.314   6.834 -1.0183  1.0196  0.0226
   17MOL   C173 9165   6.207   7.223   6.846  0.2928 -0.1526  0.1378
   17MOL   C174 9166   6.260   7.080   6.888  1.0677  0.3271 -0.4266
   17MOL   O175 9167   6.329   7.030   6.773  0.6327  0.1242  0.0712
   17MOL   C176 9168   6.392   6.912   6.783  0.0514  0.0165  0.1402
   17MOL   O177 9169   6.387   6.836   6.880  0.2842  0.3262  0.3498
   17MOL   C178 9170   6.470   6.882   6.658 -0.0314  0.2777  0.5064
   17MOL   C179 9171   6.520   6.757   6.643  0.1799  0.8949  0.5528
   17MOL   C180 9172   6.586   6.719   6.524 -0.2426 -0.3589  0.1794
   17MOL   C181 9173   6.603   6.815   6.423  0.1416 -0.4105 -0.3052
   17MOL   C182 9174   6.659   6.770   6.295  0.0291 -0.0462  0.1186
   17MOL   O183 9175   6.656   6.658   6.247 -0.0398  0.3319 -0.5335
   17MOL   C184 9176   6.559   6.943   6.436  0.3176  0.4101 -0.1274
   17MOL   C185 9177   6.484   6.979   6.551  1.0199  0.4417  0.3641
   17MOL   H186 9178   6.382   7.510   6.846 -0.7697 -0.4506  1.2190
   17MOL   H187 9179   6.202   7.506   6.827  0.8242  1.6018  0.2078
   17MOL   H188 9180   6.384   7.311   6.926 -3.5435  0.4344  1.6585
   17MOL   H189 9181   6.394   7.284   6.755 -0.6463  2.5777 -0.2761
   17MOL   H190 9182   6.143   7.261   6.926 -0.2096 -1.4469  0.3526
   17MOL   H191 9183   6.144   7.211   6.758 -0.2098  0.8496  0.3543
   17MOL   H192 9184   6.311   7.063   6.983  0.4695 -1.0615 -0.3278
   17MOL   H193 9185   6.170   7.022   6.911  2.4289 -1.9227 -0.5687
   17MOL   H194 9186   6.522   6.688   6.726 -1.7663  1.4950  1.1135
   17MOL   H195 9187   6.618   6.616   6.519 -1.2083 -0.7770  1.7911
   17MOL   H196 9188   6.555   7.018   6.358  1.7041 -0.7393 -1.3153
   17MOL   H197 9189   6.438   7.077   6.558  2.5460  1.0794  1.6489
   17MOL   O198 9190   6.711   6.879   6.229  0.3250 -0.0645  0.0959
   17MOL   C199 9191   6.742   6.870   6.091  0.4000 -0.1444  0.0492
   17MOL   C200 9192   6.649   6.966   6.007  0.0543  0.2949 -0.1665
   17MOL   C201 9193   6.661   6.969   5.853 -1.2466  0.6761  0.5400
   17MOL   C202 9194   6.581   7.084   5.793 -0.5988  1.1060 -0.6410
   17MOL   O203 9195   6.574   7.077   5.648  0.0779  0.1264 -0.3129
   17MOL   C204 9196   6.572   7.190   5.581  0.4098 -0.6129  0.6186
   17MOL   O205 9197   6.562   7.301   5.630 -0.3487 -0.0299  1.0727
   17MOL   C206 9198   6.597   7.165   5.430 -0.0873  0.3240 -0.0650
   17MOL   C207 9199   6.628   7.276   5.344  0.4218 -0.3316  0.0667
   17MOL   C208 9200   6.665   7.257   5.211  0.0464  0.4619 -0.4119
   17MOL   C209 9201   6.649   7.127   5.155 -0.5179  0.4139 -0.2362
   17MOL   C210 9202   6.677   7.104   5.010  0.4056 -0.3118 -0.0664
   17MOL   O211 9203   6.658   6.999   4.953 -0.5914 -0.7429  1.0687
   17MOL   C212 9204   6.624   7.016   5.229 -0.0615 -0.2817 -0.7352
   17MOL   C213 9205   6.599   7.037   5.369 -0.4769  0.5654 -0.9538
   17MOL   H214 9206   6.847   6.898   6.082  1.2143 -1.7097  3.6468
   17MOL   H215 9207   6.729   6.770   6.051 -2.0051 -1.3161  3.5566
   17MOL   H216 9208   6.652   7.066   6.050  1.2306 -0.9151  2.6929
   17MOL   H217 9209   6.546   6.947   6.038  0.3243 -0.1945  0.4729
   17MOL   H218 9210   6.765   6.974   5.823 -0.0265  0.1926  4.4287
   17MOL   H219 9211   6.622   6.877   5.809 -0.2974  0.6127 -0.2009
   17MOL   H220 9212   6.478   7.077   5.826 -0.3547  1.3528  0.1738
   17MOL   H221 9213   6.615   7.178   5.836 -0.8847  0.3080  1.3540
   17MOL   H222 9214   6.626   7.375   5.386  0.0825 -0.2589 -0.1232
   17MOL   H223 9215   6.702   7.338   5.149 -1.5728 -0.2592 -2.3914
   17MOL   H224 9216   6.625   6.915   5.190 -0.7260 -0.6186  0.0955
   17MOL   H225 9217   6.588   6.949   5.430  0.8456  1.6104  0.8567
   17MOL   O226 9218   6.732   7.215   4.942 -0.3335  0.4942 -0.5385
   17MOL   C227 9219   6.758   7.208   4.800 -0.1508 -0.0464  0.0375
   17MOL   C228 9220   6.907   7.192   4.783 -0.3970  1.1131 -0.2931
   17MOL   C229 9221   6.995   7.306   4.811  0.0313  0.0541  0.1622
   17MOL   C230 9222   7.141   7.276   4.785 -0.3046  0.4713  0.2001
   17MOL   O231 9223   7.166   7.237   4.647 -0.2168  0.7557  0.2286
   17MOL   C232 9224   7.225   7.325   4.565  0.0142 -0.1309 -0.5710
   17MOL   O233 9225   7.247   7.443   4.593  0.4164  0.2407 -0.5053
   17MOL   C234 9226   7.258   7.266   4.432 -0.7022  0.6723 -0.3299
   17MOL   C235 9227   7.225   7.134   4.408 -0.0905 -0.2876  0.1699
   17MOL   C236 9228   7.261   7.083   4.282  0.4290  0.2398 -0.2031
   17MOL   C237 9229   7.325   7.155   4.186 -0.8265  0.0523 -0.1395
   17MOL   C238 9230   7.358   7.089   4.058 -0.2979 -0.0567  0.5929
   17MOL   O239 9231   7.358   6.963   4.053  0.3444 -0.1497 -0.4131
   17MOL   C240 9232   7.364   7.290   4.212  0.3878  0.0032  0.2854
   17MOL   C241 9233   7.334   7.343   4.338  0.4429  0.7998  0.4320
   17MOL   H242 9234   6.717   7.119   4.753  0.5018 -0.0428 -0.5511
   17MOL   H243 9235   6.710   7.290   4.746  1.9305  2.3798  1.7409
   17MOL   H244 9236   6.919   7.161   4.679  2.5907 -0.0492  0.3522
   17MOL   H245 9237   6.939   7.107   4.844 -0.9515  1.4425  0.4701
   17MOL   H246 9238   6.969   7.391   4.748 -0.9953 -0.3253  0.0587
   17MOL   H247 9239   6.986   7.338   4.915 -0.7094  2.2538 -0.5343
   17MOL   H248 9240   7.212   7.351   4.820  0.7262  0.3430 -1.5746
   17MOL   H249 9241   7.152   7.188   4.849  0.6412 -1.4821 -2.5797
   17MOL   H250 9242   7.167   7.079   4.481 -1.0919  0.0305 -0.3654
   17MOL   H251 9243   7.239   6.977   4.277  1.5024  0.0657 -2.0274
   17MOL   H252 9244   7.420   7.346   4.139 -0.5528 -1.8960 -1.9580
   17MOL   H253 9245   7.368   7.442   4.364  0.6023  0.3254  2.1152
   17MOL   O254 9246   7.378   7.182   3.957 -0.3613  0.3260  0.1721
   17MOL   C255 9247   7.422   7.135   3.832  0.1964 -0.1010  0.3872
   17MOL   C256 9248   7.557   7.210   3.809  0.2574 -0.6909 -0.8550
   17MOL   C257 9249   7.669   7.148   3.896  0.5354 -0.4206  0.6101
   17MOL   C258 9250   7.805   7.207   3.902  0.4758 -0.3096 -0.3138
   17MOL   O259 9251   7.795   7.328   3.977 -0.1496 -0.1031  1.0890
   17MOL   C260 9252   7.828   7.446   3.933 -0.5094  0.2771 -0.5027
   17MOL   O261 9253   7.896   7.474   3.831  0.6035  0.4284 -0.1320
   17MOL   C262 9254   7.767   7.550   4.022  0.6921  0.6397 -0.1651
   17MOL   C263 9255   7.706   7.520   4.147 -0.0726 -0.3325 -0.0260
   17MOL   C264 9256   7.636   7.615   4.219  0.5042 -0.2847  0.0564
   17MOL   C265 9257   7.617   7.745   4.162 -0.1616 -0.5900 -0.2068
   17MOL   C266 9258   7.529   7.844   4.229 -0.2464 -0.2248  0.0087
   17MOL   O267 9259   7.509   7.954   4.181 -0.4787 -0.2598  0.4222
   17MOL   C268 9260   7.688   7.785   4.044 -0.7281  1.1217  0.5467
   17MOL   C269 9261   7.764   7.686   3.975  0.5669  0.4874 -0.4159
   17MOL   H270 9262   7.431   7.027   3.826 -1.1706 -0.1933 -0.2127
   17MOL   H271 9263   7.360   7.171   3.750  0.6747 -0.6705 -0.2259
   17MOL   H272 9264   7.549   7.315   3.837  2.2190 -0.9908  0.8848
   17MOL   H273 9265   7.583   7.210   3.703 -0.3335 -1.3584 -1.0054
   17MOL   H274 9266   7.638   7.129   3.999 -1.8871  2.6429  0.5292
   17MOL   H275 9267   7.671   7.047   3.854 -1.0306 -1.2447  2.4365
   17MOL   H276 9268   7.877   7.149   3.961  0.2794  0.3441  0.5774
   17MOL   H277 9269   7.848   7.231   3.804 -0.7792  1.5392 -0.4299
   17MOL   H278 9270   7.718   7.421   4.189  3.2125  0.4498  1.0630
   17MOL   H279 9271   7.590   7.585   4.312  2.8098 -2.1707  0.6353
   17MOL   H280 9272   7.673   7.879   3.993 -0.2574  1.3266  0.7750
   17MOL   H281 9273   7.809   7.705   3.879 -1.2309  1.1608 -1.1561
   17MOL   O282 9274   7.469   7.802   4.341 -0.0806  0.0433  0.2121
   17MOL   C283 9275   7.361   7.882   4.383  0.1848  0.1197  0.3855
   17MOL   C284 9276   7.280   7.800   4.478 -0.2405  0.2307 -0.1207
   17MOL   C285 9277   7.184   7.698   4.420 -0.4353 -0.1557  0.1179
   17MOL   C286 9278   7.062   7.764   4.355 -0.5771 -0.6012 -0.6563
   17MOL   O287 9279   6.969   7.801   4.458  0.1139  0.1629  0.2598
   17MOL   C288 9280   6.846   7.840   4.426  0.6786  0.1716  0.7113
   17MOL   O289 9281   6.798   7.835   4.311  0.2345  0.4412 -0.5329
   17MOL   C290 9282   6.772   7.890   4.547  0.0899  0.7053  0.0376
   17MOL   C291 9283   6.628   7.892   4.544  0.0645  0.3793  0.1326
   17MOL   C292 9284   6.554   7.940   4.653 -0.2045 -0.5085 -0.5199
   17MOL   C293 9285   6.619   7.968   4.770 -0.5345 -0.7681 -0.5359
   17MOL   C294 9286   6.528   7.983   4.897 -0.4405 -0.0369 -0.4823
   17MOL   O295 9287   6.568   8.031   5.000 -0.5509 -0.1131  0.0424
   17MOL   C296 9288   6.759   7.957   4.785  0.4108 -0.5527  0.9676
   17MOL   C297 9289   6.836   7.929   4.670  0.6016  0.2718  0.2094
   17MOL   H298 9290   7.395   7.978   4.423 -4.1625  2.3431 -0.9755
   17MOL   H299 9291   7.296   7.910   4.300  0.3900 -0.9584 -0.1513
   17MOL   H300 9292   7.230   7.866   4.548 -0.8494  0.0206 -0.3570
   17MOL   H301 9293   7.345   7.737   4.540 -0.8276  0.2980  0.5639
   17MOL   H302 9294   7.237   7.639   4.345  0.8789  0.9111  0.1809
   17MOL   H303 9295   7.147   7.627   4.495  0.3493 -0.1252  0.5430
   17MOL   H304 9296   7.096   7.858   4.310  0.1933  0.1764  1.4956
   17MOL   H305 9297   7.021   7.691   4.285 -0.8188 -1.3716  0.2861
   17MOL   H306 9298   6.571   7.847   4.464  1.6787 -0.3324 -0.6419
   17MOL   H307 9299   6.446   7.938   4.650 -0.3579 -1.0405  3.0337
   17MOL   H308 9300   6.819   7.979   4.872 -0.2112  1.6318  0.8526
   17MOL   H309 9301   6.943   7.921   4.679  0.6895 -1.1662 -1.7223
   17MOL   O310 9302   6.401   7.933   4.886 -0.6021  0.1153  0.6274
   17MOL   C311 9303   6.309   7.940   4.995 -0.0964 -0.0163 -0.2544
   17MOL   C312 9304   6.173   7.870   4.985 -0.4553 -0.2642  0.1967
   17MOL   C313 9305   6.176   7.725   4.992  0.2677  0.3221 -0.6773
   17MOL   C314 9306   6.033   7.670   5.009 -0.5100  0.6247  0.9015
   17MOL   O315 9307   6.024   7.544   4.956 -0.0326  0.6171 -0.3289
   17MOL   C316 9308   5.985   7.529   4.826  0.9232 -0.5356  0.7258
   17MOL   O317 9309   5.945   7.623   4.758 -0.0674 -0.1760  0.9024
   17MOL   C318 9310   6.000   7.390   4.777  0.5854 -0.2607 -0.2484
   17MOL   C319 9311   5.988   7.278   4.860 -0.3097 -0.2842  0.3658
   17MOL   C320 9312   6.009   7.149   4.806  0.1873 -0.0605 -0.1666
   17MOL   C321 9313   6.059   7.125   4.675  0.0647  0.1645  0.1998
   17MOL   C322 9314   6.066   6.983   4.626 -0.1422 -0.2363  0.4145
   17MOL   O323 9315   6.012   6.899   4.693  0.5338 -0.1510 -0.1696
   17MOL   C324 9316   6.078   7.238   4.590  0.1596  0.0357  0.1323
   17MOL   C325 9317   6.047   7.363   4.647 -0.3186  0.1843 -0.2046
   17MOL   H326 9318   6.360   7.894   5.080  2.8164  2.9407 -0.3034
   17MOL   H327 9319   6.302   8.044   5.028 -0.1981  0.0849 -0.5960
   17MOL   H328 9320   6.117   7.909   4.900  0.3687 -0.7442 -0.5789
   17MOL   H329 9321   6.119   7.906   5.073 -2.4364 -1.9681 -0.2804
   17MOL   H330 9322   6.224   7.684   4.904  0.3106  2.1327 -1.5111
   17MOL   H331 9323   6.238   7.695   5.077  0.7749 -0.3073 -1.2618
   17MOL   H332 9324   6.001   7.665   5.113 -2.1317  0.5586  0.4085
   17MOL   H333 9325   5.954   7.736   4.974 -1.0977 -1.4471 -1.7564
   17MOL   H334 9326   5.957   7.290   4.963  0.4377 -0.0699  0.5705
   17MOL   H335 9327   6.004   7.065   4.874 -0.6901  0.1630  0.0448
   17MOL   H336 9328   6.110   7.226   4.488  0.6527  1.1715  0.1487
   17MOL   H337 9329   6.060   7.448   4.581  0.0469 -1.2247 -1.9944
   17MOL   O338 9330   6.122   6.962   4.505  0.4407 -0.3396  0.0136
   17MOL   C339 9331   6.153   6.829   4.464 -0.3886 -0.6582  0.3419
   17MOL   C340 9332   6.284   6.817   4.391  0.1484 -0.4076 -0.2812
   17MOL   C341 9333   6.317   6.671   4.363 -0.0159 -0.6586  0.2060
   17MOL   C342 9334   6.456   6.636   4.340  0.1384  0.6881  0.7180
   17MOL   O343 9335   6.490   6.697   4.217 -0.0163 -0.0605  0.0188
   17MOL   C344 9336   6.622   6.715   4.184  0.0829 -0.1269  0.3334
   17MOL   O345 9337   6.715   6.659   4.246  0.2778 -0.3377 -0.1558
   17MOL   C346 9338   6.640   6.815   4.077 -0.5512  0.2636  1.1259
   17MOL   C347 9339   6.531   6.863   4.001 -0.7730  0.3981 -0.4859
   17MOL   C348 9340   6.543   6.964   3.898 -0.1017  0.1960  0.0311
   17MOL   C349 9341   6.672   7.001   3.850 -0.0392 -0.1499 -0.5019
   17MOL   C350 9342   6.691   7.083   3.724  0.3973  0.2554 -0.2758
   17MOL   O351 9343   6.795   7.084   3.659  0.0964  0.2097 -0.3108
   17MOL   C352 9344   6.782   6.959   3.933  0.9283 -0.2143  0.1729
   17MOL   C353 9345   6.764   6.869   4.047  0.1635 -0.1177 -0.3614
   17MOL   H354 9346   6.162   6.764   4.550 -0.2632  0.6628  1.3359
   17MOL   H355 9347   6.070   6.791   4.403  0.0648 -0.4998 -0.3860
   17MOL   H356 9348   6.359   6.858   4.458  0.1927 -1.1793  0.1501
   17MOL   H357 9349   6.297   6.877   4.301  0.4437  2.6102  1.7046
   17MOL   H358 9350   6.279   6.607   4.443  3.7292 -0.4035  2.3030
   17MOL   H359 9351   6.254   6.655   4.275 -0.8596  1.6541  0.3543
   17MOL   H360 9352   6.530   6.668   4.414 -0.7643  1.4461  1.2907
   17MOL   H361 9353   6.467   6.528   4.330 -0.3562  0.5470  1.6860
   17MOL   H362 9354   6.434   6.822   4.027 -0.1389  0.3628  2.0084
   17MOL   H363 9355   6.452   7.008   3.859 -1.2376  0.3931  2.7937
   17MOL   H364 9356   6.884   6.993   3.923  1.1963 -0.2279  2.4882
   17MOL   H365 9357   6.850   6.830   4.099 -1.0517 -0.6037  1.2964
   17MOL   O366 9358   6.588   7.161   3.696  0.3662  0.0708  0.2531
   17MOL   C367 9359   6.578   7.216   3.562  0.0183 -0.0228 -0.4096
   17MOL   C368 9360   6.445   7.300   3.559 -0.5078  0.5252 -0.5626
   17MOL   C369 9361   6.319   7.220   3.596  0.0252 -0.0557  0.2571
   17MOL   C370 9362   6.198   7.295   3.563  0.6709 -0.6942 -0.4634
   17MOL   O371 9363   6.081   7.219   3.585  0.0608 -0.3118  0.2102
   17MOL   C372 9364   5.964   7.280   3.569  0.4826  0.2041 -0.5620
   17MOL   O373 9365   5.959   7.390   3.512  0.5251  0.3784 -0.2397
   17MOL   C374 9366   5.846   7.204   3.612  0.5763 -0.4304  0.2356
   17MOL   C375 9367   5.858   7.104   3.709 -0.1603  0.0935  0.0387
   17MOL   C376 9368   5.752   7.007   3.719 -0.5746 -0.0954 -0.4040
   17MOL   C377 9369   5.634   7.022   3.640  0.6362 -0.4690 -0.4439
   17MOL   C378 9370   5.526   6.918   3.656 -0.0372 -0.5626 -0.7264
   17MOL   O379 9371   5.538   6.814   3.716 -0.6134  0.2920  0.0757
   17MOL   C380 9372   5.625   7.130   3.549 -0.0051 -0.7951 -0.1896
   17MOL   C381 9373   5.730   7.219   3.535 -0.3409 -0.3568  0.8624
   17MOL   H382 9374   6.670   7.267   3.535  1.1211 -1.8817 -0.2293
   17MOL   H383 9375   6.581   7.134   3.491  1.4504 -1.3746  1.1573
   17MOL   H384 9376   6.421   7.341   3.461 -1.3403  1.5612  0.0644
   17MOL   H385 9377   6.453   7.383   3.630 -1.3024 -0.3303  0.5581
   17MOL   H386 9378   6.323   7.133   3.530 -1.1215 -0.2629  0.4562
   17MOL   H387 9379   6.330   7.191   3.700 -4.2114 -1.0571  0.5434
   17MOL   H388 9380   6.207   7.379   3.631  1.3701 -1.1480  0.0037
   17MOL   H389 9381   6.200   7.345   3.466 -1.1993  1.3293  0.4999
   17MOL   H390 9382   5.953   7.092   3.759 -0.1165 -0.0741 -0.0818
   17MOL   H391 9383   5.759   6.921   3.785 -0.9464  0.8667  0.9137
   17MOL   H392 9384   5.549   7.144   3.474  0.4227 -0.7321 -0.6121
   17MOL   H393 9385   5.723   7.291   3.455 -2.0903 -0.1017  1.2205
   17MOL   O394 9386   5.409   6.955   3.601  0.0935  0.1523  0.6256
   17MOL   C395 9387   5.302   6.868   3.596 -0.2905 -0.3054  0.2727
   17MOL   C396 9388   5.186   6.923   3.678  0.3228  0.3633  0.3485
   17MOL   C397 9389   5.220   6.958   3.821  0.0750 -0.5136 -0.3863
   17MOL   C398 9390   5.101   7.014   3.913  0.3384  0.0984 -0.0247
   17MOL   O399 9391   4.984   6.941   3.913 -0.8617  0.1164 -0.6071
   17MOL   C400 9392   4.983   6.818   3.977  0.3543  0.8569  0.0054
   17MOL   O401 9393   5.073   6.772   4.048  0.5456 -0.4825  0.4021
   17MOL   C402 9394   4.851   6.750   3.961 -0.1679 -0.6735  0.6029
   17MOL   C403 9395   4.737   6.813   3.906  0.5213  0.4078  0.0595
   17MOL   C404 9396   4.615   6.744   3.913 -0.3490 -0.5915  0.6852
   17MOL   C405 9397   4.596   6.615   3.975  0.5064 -0.5035 -0.2581
   17MOL   C406 9398   4.458   6.546   3.968 -0.0122 -0.0649  0.2389
   17MOL   O407 9399   4.360   6.602   3.913 -0.4383 -0.1793  0.5935
   17MOL   C408 9400   4.708   6.558   4.034 -0.0850  0.1495  0.3685
   17MOL   C409 9401   4.834   6.624   4.028 -0.0539  0.2462  0.0115
   17MOL   H410 9402   5.257   6.872   3.497 -0.0683 -0.0241  0.1823
   17MOL   H411 9403   5.316   6.766   3.631  2.0317  0.0762  0.5506
   17MOL   H412 9404   5.104   6.851   3.689 -1.4189  2.4195  1.1038
   17MOL   H413 9405   5.134   6.999   3.622 -0.5615 -0.0592  0.5862
   17MOL   H414 9406   5.261   6.871   3.872  0.1214  0.4150  1.1923
   17MOL   H415 9407   5.301   7.030   3.824 -0.4340  0.0564 -0.0760
   17MOL   H416 9408   5.132   7.035   4.015  0.2357 -0.1709  0.0632
   17MOL   H417 9409   5.076   7.106   3.861  2.1456 -0.0837 -1.2322
   17MOL   H418 9410   4.757   6.897   3.841 -0.5536  2.8179  2.7452
   17MOL   H419 9411   4.533   6.786   3.857  0.9261 -0.0920 -0.8644
   17MOL   H420 9412   4.698   6.459   4.077  3.1610  0.2156  1.4154
   17MOL   H421 9413   4.911   6.573   4.085  0.7897 -0.1367 -1.4379
   17MOL   O422 9414   4.452   6.423   4.021  0.1509  0.4573  0.5860
   17MOL   C423 9415   4.332   6.346   4.021  0.0750  0.4665 -0.3446
   17MOL   C424 9416   4.372   6.199   3.991  0.3227  0.7127 -0.5297
   17MOL   C425 9417   4.410   6.179   3.846  0.2904 -0.2843  0.6560
   17MOL   C426 9418   4.288   6.200   3.752 -0.1232  0.5260  0.1518
   17MOL   O427 9419   4.178   6.107   3.777  0.3561  0.2066  0.0228
   17MOL   C428 9420   4.052   6.137   3.729  0.0577  0.8064 -0.8915
   17MOL   O429 9421   4.025   6.236   3.658 -0.7463 -0.1073  0.0216
   17MOL   C430 9422   3.951   6.043   3.778  0.6204 -0.1262  0.1905
   17MOL   C431 9423   3.814   6.077   3.773  0.0072  0.7496 -0.6219
   17MOL   C432 9424   3.717   5.987   3.832 -0.3682  0.0279  0.7873
   17MOL   C433 9425   3.759   5.863   3.895 -0.3404  0.3033 -0.7564
   17MOL   C434 9426   3.659   5.767   3.942  0.1288 -0.3186 -0.2548
   17MOL   O435 9427   3.537   5.779   3.918  0.5240 -0.3366 -0.0187
   17MOL   C436 9428   3.897   5.830   3.886 -0.7538  0.9427  0.3633
   17MOL   C437 9429   3.989   5.919   3.833  0.1671 -0.0733 -0.3856
   17MOL   H438 9430   4.291   6.329   4.120 -0.3441 -0.3970 -0.6513
   17MOL   H439 9431   4.243   6.386   3.972 -0.6344 -2.0649 -1.2281
   17MOL   H440 9432   4.294   6.126   4.010  0.2570  1.1522  0.9515
   17MOL   H441 9433   4.453   6.167   4.057 -0.1317 -2.7717 -1.5567
   17MOL   H442 9434   4.493   6.244   3.821 -0.6721  0.0263 -1.8778
   17MOL   H443 9435   4.453   6.078   3.846 -0.0110 -0.4173  1.5444
   17MOL   H444 9436   4.263   6.305   3.762 -0.0544  0.3710  2.3103
   17MOL   H445 9437   4.311   6.184   3.647  0.7151  2.2583  0.0576
   17MOL   H446 9438   3.782   6.175   3.742 -2.6649  0.5857  1.4695
   17MOL   H447 9439   3.613   6.015   3.842 -0.3974  0.1852  0.0784
   17MOL   H448 9440   3.932   5.735   3.924 -0.4336  0.2214 -1.6524
   17MOL   H449 9441   4.094   5.892   3.829  1.0422  3.3581 -2.6862
   17MOL   O450 9442   3.713   5.667   4.011 -0.3007 -0.5694  0.2137
   17MOL   C451 9443   3.634   5.567   4.061 -0.0144 -0.1292 -0.1089
   17MOL   C452 9444   3.725   5.464   4.127 -0.0579  0.1155 -0.1641
   17MOL   C453 9445   3.850   5.415   4.046  0.1079 -0.1907 -0.1856
   17MOL   C454 9446   3.807   5.373   3.905 -0.3677  0.7509 -0.0444
   17MOL   O455 9447   3.717   5.265   3.912 -0.1962  0.1278  0.2955
   17MOL   C456 9448   3.756   5.135   3.932  0.4323  0.2602  0.0930
   17MOL   O457 9449   3.872   5.097   3.935  0.6087 -0.0353 -0.0712
   17MOL   C458 9450   3.636   5.037   3.949 -0.4026 -0.8952  0.0387
   17MOL   C459 9451   3.659   4.898   3.941 -0.4368 -0.4728  0.7580
   17MOL   C460 9452   3.551   4.813   3.967 -0.5568  0.6692 -0.4960
   17MOL   C461 9453   3.425   4.858   4.004 -0.1675  0.1801  0.7667
   17MOL   C462 9454   3.316   4.771   4.041 -0.4641  0.1993  0.3183
   17MOL   O463 9455   3.205   4.822   4.055 -0.1677 -0.1829 -0.2917
   17MOL   C464 9456   3.399   5.000   4.012  0.0999  0.7729 -0.5177
   17MOL   C465 9457   3.511   5.088   3.987  0.5024 -1.0675 -0.4387
   17MOL   H466 9458   3.571   5.622   4.131  0.1829 -0.2657  0.1808
   17MOL   H467 9459   3.574   5.516   3.986 -0.1065  2.1937 -1.6555
   17MOL   H468 9460   3.669   5.387   4.182  1.1598  1.0357  2.4583
   17MOL   H469 9461   3.769   5.518   4.211 -1.6000 -0.5490  1.1047
   17MOL   H470 9462   3.918   5.500   4.042 -0.2191  0.5238  5.2192
   17MOL   H471 9463   3.904   5.341   4.106 -0.6016 -0.8445 -0.3473
   17MOL   H472 9464   3.766   5.462   3.856 -2.7576 -0.4146 -0.2084
   17MOL   H473 9465   3.896   5.349   3.847  0.1765  0.3204  0.9464
   17MOL   H474 9466   3.759   4.862   3.917 -0.9093 -1.8703  0.8080
   17MOL   H475 9467   3.569   4.707   3.963  1.4829  0.9304  0.7228
   17MOL   H476 9468   3.307   5.033   4.056  0.1971  1.0114 -0.4911
   17MOL   H477 9469   3.501   5.191   4.018  2.2142 -1.9276  3.2076
   17MOL   O478 9470   3.356   4.639   4.054  0.3273 -0.2250 -0.3060
   17MOL   C479 9471   3.261   4.546   4.108  0.1238 -0.2128  0.2154
   17MOL   C480 9472   3.219   4.464   3.990  0.0837  0.0949 -0.4118
   17MOL   C481 9473   3.132   4.348   4.032 -0.9362  0.8024 -0.4732
   17MOL   C482 9474   2.989   4.384   4.072 -0.3823  0.3216 -0.0069
   17MOL   O483 9475   2.917   4.435   3.952  0.1501 -0.4931 -0.0334
   17MOL   C484 9476   2.854   4.554   3.955  0.2934  0.5527  0.3361
   17MOL   O485 9477   2.864   4.632   4.048  0.2687  0.3841 -0.4502
   17MOL   C486 9478   2.772   4.586   3.835  0.4675 -0.1686  0.0802
   17MOL   C487 9479   2.758   4.496   3.731  0.1438  0.7648 -0.2771
   17MOL   C488 9480   2.677   4.521   3.621 -0.8797  0.3932  0.6247
   17MOL   C489 9481   2.613   4.644   3.609 -1.1176  0.4442 -0.3312
   17MOL   C490 9482   2.550   4.687   3.482 -1.0354 -0.0284 -0.2849
   17MOL   O491 9483   2.547   4.609   3.389  0.0588  0.1109  0.0155
   17MOL   C492 9484   2.631   4.737   3.712 -0.2371  0.3914 -0.7001
   17MOL   C493 9485   2.701   4.710   3.829 -0.6690 -0.1825  0.2681
   17MOL   H494 9486   3.315   4.492   4.185  0.1883 -1.4150 -0.6667
   17MOL   H495 9487   3.177   4.583   4.168 -1.3252 -2.7511 -0.2061
   17MOL   H496 9488   3.295   4.414   3.930 -2.0180 -0.9854 -2.2723
   17MOL   H497 9489   3.166   4.531   3.922 -2.2082 -0.5105  0.7192
   17MOL   H498 9490   3.121   4.274   3.954  0.8507  1.2121 -1.1347
   17MOL   H499 9491   3.176   4.292   4.115  0.9353  1.8843 -0.7093
   17MOL   H500 9492   2.953   4.284   4.096  1.6120 -0.1110  1.3985
   17MOL   H501 9493   2.961   4.450   4.155  0.2943 -0.4397  0.8393
   17MOL   H502 9494   2.817   4.406   3.739 -0.6245  0.2826  0.0291
   17MOL   H503 9495   2.668   4.460   3.532 -1.1243  0.7004  0.4348
   17MOL   H504 9496   2.590   4.837   3.702  1.0036  0.8840 -0.9414
   17MOL   H505 9497   2.706   4.784   3.907  0.9683  1.5146 -1.4113
   17MOL   O506 9498   2.510   4.816   3.480 -0.4304 -0.6211 -0.1210
   17MOL   C507 9499   2.488   4.879   3.354 -0.2061 -0.3456 -0.3756
   17MOL   C508 9500   2.525   5.027   3.348  0.0847 -0.4063 -0.1963
   17MOL   C509 9501   2.415   5.125   3.392  0.7310 -0.0496  0.1865
   17MOL   C510 9502   2.461   5.266   3.348  0.1604 -0.2389  0.6079
   17MOL   O511 9503   2.370   5.373   3.370  0.0367 -0.4056 -0.1128
   17MOL   C512 9504   2.295   5.426   3.265 -1.0256  0.7053 -1.1210
   17MOL   O513 9505   2.297   5.382   3.154 -0.2985 -0.4159  0.1356
   17MOL   C514 9506   2.218   5.548   3.306 -0.1773  0.5548 -0.0628
   17MOL   C515 9507   2.259   5.618   3.424 -1.1989 -0.2369 -0.3384
   17MOL   C516 9508   2.194   5.735   3.460 -0.3402 -0.5584 -0.2038
   17MOL   C517 9509   2.088   5.787   3.384  0.8870  0.2657  0.8825
   17MOL   C518 9510   2.014   5.914   3.415  0.3025 -0.4432 -0.3126
   17MOL   O519 9511   1.906   5.945   3.373  0.6778 -0.5732  0.0877
   17MOL   C520 9512   2.048   5.717   3.265  0.0594  0.1655 -0.3344
   17MOL   C521 9513   2.117   5.603   3.219 -0.2037  1.1284 -0.1564
   17MOL   H522 9514   2.542   4.820   3.281 -0.5770 -0.6480 -0.4036
   17MOL   H523 9515   2.381   4.875   3.336 -0.3288 -0.9873  0.4786
   17MOL   H524 9516   2.536   5.045   3.241 -0.7233  1.5591  0.0251
   17MOL   H525 9517   2.619   5.045   3.398 -0.4918 -1.3319  1.2631
   17MOL   H526 9518   2.327   5.108   3.331 -0.1191  1.2906  1.0241
   17MOL   H527 9519   2.368   5.134   3.490 -1.8177  0.0958 -1.0356
   17MOL   H528 9520   2.549   5.291   3.409  2.2826  0.8164 -2.7548
   17MOL   H529 9521   2.517   5.268   3.255  1.1945  1.6299  1.2330
   17MOL   H530 9522   2.335   5.579   3.491  0.1547  0.9134 -1.1595
   17MOL   H531 9523   2.221   5.781   3.554  2.3317 -1.0004 -0.7175
   17MOL   H532 9524   1.974   5.762   3.200 -1.9501 -0.2145  1.6417
   17MOL   H533 9525   2.094   5.557   3.124 -0.4209  0.1877  0.3515
   17MOL   O534 9526   2.090   5.999   3.499 -0.5341  0.3101 -0.4986
   17MOL   C535 9527   2.042   6.123   3.538  0.1565 -0.2368  0.5703
   17MOL   C536 9528   2.146   6.189   3.621  0.5819  0.0640  0.5376
   17MOL   C537 9529   2.288   6.225   3.550 -1.0495  0.1688  0.0540
   17MOL   C538 9530   2.397   6.257   3.647 -0.2606  0.1928  0.0216
   17MOL   O539 9531   2.465   6.134   3.693 -0.3539  0.6673  0.0620
   17MOL   C540 9532   2.498   6.113   3.819  0.4766  0.0966 -0.0772
   17MOL   O541 9533   2.464   6.191   3.907 -1.0810 -0.2375 -0.6206
   17MOL   C542 9534   2.568   5.982   3.848  0.3349  0.0764  0.0194
   17MOL   C543 9535   2.600   5.952   3.986 -0.0497 -0.2985 -0.1395
   17MOL   C544 9536   2.648   5.821   4.018 -0.1069  0.4024 -0.1323
   17MOL   C545 9537   2.677   5.728   3.912 -0.6030  0.3483 -0.0765
   17MOL   C546 9538   2.743   5.595   3.933  0.1365  0.0399 -0.4220
   17MOL   O547 9539   2.766   5.497   3.860 -0.6858 -0.8622  0.6915
   17MOL   C548 9540   2.642   5.757   3.779  0.1177  0.2076 -0.6012
   17MOL   C549 9541   2.589   5.884   3.748  0.3360 -0.3440 -0.0144
   17MOL   H550 9542   2.017   6.165   3.440 -1.9285 -2.0044  0.2916
   17MOL   H551 9543   1.961   6.100   3.608 -0.2350 -3.3021 -0.8016
   17MOL   H552 9544   2.177   6.126   3.705  0.0358  0.6122  1.1526
   17MOL   H553 9545   2.096   6.277   3.661 -0.8681 -0.1973 -0.6930
   17MOL   H554 9546   2.318   6.140   3.490 -1.3733 -1.0084  1.5388
   17MOL   H555 9547   2.263   6.298   3.473  0.8641  1.0958  0.3010
   17MOL   H556 9548   2.479   6.307   3.595  0.7896  1.6250  2.9578
   17MOL   H557 9549   2.372   6.318   3.734 -1.4477 -0.1333 -0.0761
   17MOL   H558 9550   2.594   6.021   4.069  1.9413 -0.8826  0.5115
   17MOL   H559 9551   2.668   5.779   4.115  1.2136  0.5352 -0.3271
   17MOL   H560 9552   2.653   5.685   3.700 -3.1396 -0.6200 -0.3825
   17MOL   H561 9553   2.557   5.907   3.648 -3.0655 -0.1278  1.0703
   17MOL   H562 9554   2.775   5.585   4.037 -0.6809 -1.8211 -0.3375
   18MOL     O1 9555   2.847   0.564   6.430 -0.5297 -0.9130 -0.1749
   18MOL     C2 9556   2.812   0.684   6.363  0.1238 -0.5657 -0.7106
   18MOL     C3 9557   2.724   0.781   6.448  0.0965 -0.1988  0.1641
   18MOL     C4 9558   2.581   0.722   6.461  0.3906  0.1940 -0.2555
   18MOL     C5 9559   2.496   0.816   6.545  0.5597  0.0690  0.1582
   18MOL     O6 9560   2.543   0.848   6.673 -0.5479 -0.0596  0.5881
   18MOL     C7 9561   2.544   0.977   6.721 -1.1480  0.0127 -0.7444
   18MOL     O8 9562   2.483   1.072   6.666 -0.3514 -0.5032 -0.8286
   18MOL     C9 9563   2.639   0.982   6.835  0.0759 -1.2882  0.0500
   18MOL    C10 9564   2.671   1.112   6.888 -0.2251  0.3062  0.1088
   18MOL    C11 9565   2.764   1.129   6.991 -0.0696  0.3175  0.0333
   18MOL    C12 9566   2.822   1.013   7.048  0.4087 -0.4460  0.0413
   18MOL    C13 9567   2.915   1.029   7.178  0.2476  0.5178  0.1638
   18MOL    O14 9568   2.976   0.930   7.227 -0.4468  0.6721  0.3231
   18MOL    C15 9569   2.795   0.891   6.993  0.7032 -0.4560 -0.1292
   18MOL    C16 9570   2.700   0.871   6.892 -0.3346  0.1598 -0.3361
   18MOL    H17 9571   2.908   0.733   6.345  0.7230 -0.6088  2.1351
   18MOL    H18 9572   2.766   0.684   6.264  1.3726  2.6339 -1.3475
   18MOL    H19 9573   2.734   0.882   6.409 -2.6718 -0.4146 -1.1775
   18MOL    H20 9574   2.762   0.797   6.549  2.6826  0.2177 -0.8215
   18MOL    H21 9575   2.532   0.705   6.365 -0.3347 -1.2225  0.3453
   18MOL    H22 9576   2.591   0.634   6.525  0.6127  0.1847 -0.3026
   18MOL    H23 9577   2.493   0.912   6.494  0.0233 -0.1165 -0.1536
   18MOL    H24 9578   2.391   0.791   6.555  0.5328  0.2187  0.2590
   18MOL    H25 9579   2.626   1.197   6.838 -0.4849 -0.8958 -1.7466
   18MOL    H26 9580   2.793   1.228   7.022  2.2068 -0.1904 -0.4101
   18MOL    H27 9581   2.855   0.807   7.027 -2.0813 -2.2379  0.5146
   18MOL    H28 9582   2.676   0.773   6.855 -2.9719  0.9878 -0.9470
   18MOL    H29 9583   2.764   0.523   6.446 -0.6396 -1.1590 -1.3739
   18MOL    O30 9584   2.930   1.159   7.216 -0.1184  0.2938  0.1567
   18MOL    C31 9585   3.015   1.180   7.328  0.4824 -0.3519  0.3435
   18MOL    C32 9586   3.019   1.317   7.386  0.0857  0.7173  0.4783
   18MOL    C33 9587   3.049   1.306   7.536 -0.2320 -0.0051  1.0756
   18MOL    C34 9588   3.097   1.442   7.589 -0.2981  0.3287  0.0557
   18MOL    O35 9589   3.001   1.534   7.625  0.0827  0.2833 -0.7686
   18MOL    C36 9590   3.031   1.653   7.664 -0.7765 -0.0572  0.3908
   18MOL    O37 9591   3.142   1.701   7.646 -0.4976  0.0127  0.0869
   18MOL    C38 9592   2.923   1.725   7.742 -0.3531 -0.5387  0.1059
   18MOL    C39 9593   2.970   1.843   7.801 -0.2048  0.6353  0.2393
   18MOL    C40 9594   2.875   1.914   7.885  0.1849  0.1712  0.1505
   18MOL    C41 9595   2.749   1.856   7.915  0.7388  0.4585  0.3121
   18MOL    C42 9596   2.659   1.923   8.012 -0.4150 -0.0442 -0.3125
   18MOL    O43 9597   2.548   1.881   8.040 -0.3784  0.5236  0.5942
   18MOL    C44 9598   2.715   1.732   7.861 -0.0657  0.3558 -0.3741
   18MOL    C45 9599   2.798   1.673   7.772 -0.2149 -0.0135  0.2274
   18MOL    H46 9600   2.968   1.121   7.407  1.2937 -1.0285  0.3310
   18MOL    H47 9601   3.118   1.149   7.316 -0.2820 -3.1383  0.7186
   18MOL    H48 9602   2.925   1.365   7.361 -1.4189 -2.0949  0.4757
   18MOL    H49 9603   3.108   1.368   7.347 -0.8320  0.4425 -2.0528
   18MOL    H50 9604   2.960   1.275   7.590 -0.6246 -0.3979  0.2067
   18MOL    H51 9605   3.125   1.229   7.551  1.0731  0.7681 -1.2103
   18MOL    H52 9606   3.163   1.418   7.673  0.2493  1.9524  0.0949
   18MOL    H53 9607   3.167   1.491   7.522 -0.0616  0.6693  0.5505
   18MOL    H54 9608   3.069   1.882   7.784  0.6456 -0.6118  2.2070
   18MOL    H55 9609   2.905   2.002   7.939 -1.4621  0.3838  0.7299
   18MOL    H56 9610   2.622   1.678   7.876 -0.4749  1.0532 -0.3603
   18MOL    H57 9611   2.763   1.581   7.728 -0.3125  0.6860 -1.1865
   18MOL    O58 9612   2.718   2.031   8.074  0.0163 -0.1350  0.1424
   18MOL    C59 9613   2.644   2.104   0.069  0.5148 -0.6588  0.1657
   18MOL    C60 9614   2.593   2.236   0.008 -0.0171 -0.2501  0.0750
   18MOL    C61 9615   2.495   2.227   7.988 -0.5012  0.0500 -0.5893
   18MOL    C62 9616   2.508   2.361   7.918  0.0099 -0.1092  0.6932
   18MOL    O63 9617   2.482   2.475   8.004  0.0983 -0.4608 -0.0870
   18MOL    C64 9618   2.362   2.519   8.021 -0.3713 -0.0356 -0.7101
   18MOL    O65 9619   2.267   2.470   7.960 -0.2170 -0.0253  0.1468
   18MOL    C66 9620   2.363   2.641   0.005  0.0444  0.0571  0.2773
   18MOL    C67 9621   2.251   2.731   8.096  0.1421  0.3223 -0.8607
   18MOL    C68 9622   2.252   2.851   0.063  0.7132  0.5730 -0.7709
   18MOL    C69 9623   2.359   2.893   0.141 -0.5241 -0.0803 -0.1772
   18MOL    C70 9624   2.366   3.028   0.200 -0.7475  0.1432  0.3496
   18MOL    O71 9625   2.264   3.089   0.237 -0.0676  0.1128 -0.0741
   18MOL    C72 9626   2.467   2.800   0.158 -0.9666  0.3257  0.3416
   18MOL    C73 9627   2.467   2.675   0.089 -0.9903  0.2301 -0.0532
   18MOL    H74 9628   2.558   2.057   0.117 -0.5610  1.0007 -0.0850
   18MOL    H75 9629   2.720   2.115   0.147 -0.0886  1.1223  0.5437
   18MOL    H76 9630   2.685   2.289   8.082  0.3977 -0.9105  0.1923
   18MOL    H77 9631   2.531   2.281   0.086  2.2691  2.1179  0.5993
   18MOL    H78 9632   2.533   2.149   7.922 -1.0861 -1.0344  0.3232
   18MOL    H79 9633   2.394   2.205   8.025 -0.2652  1.6666  1.0946
   18MOL    H80 9634   2.600   2.380   7.863  1.5806 -1.3080  2.8691
   18MOL    H81 9635   2.443   2.350   7.831 -1.1382 -1.7254  1.7240
   18MOL    H82 9636   2.168   2.704   8.032  0.6798 -0.4561 -1.2462
   18MOL    H83 9637   2.177   2.926   0.041 -0.0321  0.5822  1.6202
   18MOL    H84 9638   2.552   2.831   0.218 -1.0391 -0.2723  0.7621
   18MOL    H85 9639   2.555   2.613   0.103 -0.2434  1.4493  0.7212
   18MOL    O86 9640   2.492   3.070   0.199 -0.1429  0.1109 -0.5372
   18MOL    C87 9641   2.518   3.200   0.266 -0.8959  0.1045 -0.6667
   18MOL    C88 9642   2.665   3.192   0.300 -0.0876 -0.2584 -0.2893
   18MOL    C89 9643   2.705   3.110   0.435  0.0174 -0.9600 -0.1076
   18MOL    C90 9644   2.696   2.962   0.407  0.9176  0.4405 -0.3199
   18MOL    O91 9645   2.762   2.899   0.520  0.4585  0.1585  0.1784
   18MOL    C92 9646   2.811   2.782   0.501 -0.4032  0.0887 -0.0740
   18MOL    O93 9647   2.798   2.717   0.397  0.4357  0.8958  0.3283
   18MOL    C94 9648   2.888   2.739   0.623 -0.7244 -0.1575  0.0567
   18MOL    C95 9649   2.931   2.607   0.641  0.2128  0.8552  0.1548
   18MOL    C96 9650   3.013   2.562   0.742 -0.1580  0.2054 -1.1598
   18MOL    C97 9651   3.064   2.654   0.837 -0.3177  0.1860  0.5297
   18MOL    C98 9652   3.142   2.621   0.958  0.3388 -0.1763  0.0449
   18MOL    O99 9653   3.206   2.694   1.035  0.7401 -0.2053 -0.1625
   18MOL   C100 9654   3.022   2.786   0.825  0.2231  0.3599 -0.5854
   18MOL   C101 9655   2.935   2.829   0.720  0.2694  0.9233  0.0691
   18MOL   H102 9656   2.503   3.278   0.190  0.1852  1.0883  0.1097
   18MOL   H103 9657   2.458   3.212   0.356  1.1427 -0.7992  0.8288
   18MOL   H104 9658   2.705   3.292   0.319  1.2881 -0.9379  0.4366
   18MOL   H105 9659   2.728   3.148   0.222  0.8264 -1.3976  1.0748
   18MOL   H106 9660   2.805   3.139   0.469  0.7658 -0.1596 -2.8241
   18MOL   H107 9661   2.638   3.140   0.515 -0.6244  1.5551 -1.5114
   18MOL   H108 9662   2.591   2.932   0.395  0.6371  1.0214  0.6388
   18MOL   H109 9663   2.743   2.932   0.313  1.8589  2.0162 -0.3751
   18MOL   H110 9664   2.906   2.538   0.562 -0.3823  1.4060 -0.1408
   18MOL   H111 9665   3.043   2.458   0.743 -0.8975 -0.0086  0.2126
   18MOL   H112 9666   3.063   2.857   0.895 -1.6608 -0.2366  1.1520
   18MOL   H113 9667   2.919   2.936   0.715  1.8700  1.1967  0.4901
   18MOL   O114 9668   3.142   2.486   0.973  0.2347 -0.2433  0.3408
   18MOL   C115 9669   3.201   2.430   1.091 -0.2540 -0.3840 -0.0174
   18MOL   C116 9670   3.221   2.279   1.080  0.6615 -0.7371  0.1219
   18MOL   C117 9671   3.097   2.203   1.048  0.3189  0.0500 -0.7611
   18MOL   C118 9672   2.967   2.250   1.113 -0.2854  0.1694 -0.2022
   18MOL   O119 9673   2.985   2.235   1.258  1.0357  0.5671 -0.1288
   18MOL   C120 9674   2.879   2.198   1.334  0.0270  0.0001  0.2957
   18MOL   O121 9675   2.772   2.159   1.285 -0.2582 -0.0688 -0.5150
   18MOL   C122 9676   2.913   2.192   1.477  0.3588  0.5228 -0.1533
   18MOL   C123 9677   2.807   2.140   1.561 -0.0770 -0.5225  0.9154
   18MOL   C124 9678   2.839   2.114   1.697  0.1368 -0.4572 -0.6585
   18MOL   C125 9679   2.962   2.136   1.753  0.8229 -0.0933  0.1634
   18MOL   C126 9680   2.989   2.109   1.898  1.2116  0.3792  0.1800
   18MOL   O127 9681   3.107   2.088   1.937 -0.3067  0.2100  0.0589
   18MOL   C128 9682   3.067   2.177   1.665 -0.3705 -0.9016  0.2110
   18MOL   C129 9683   3.041   2.209   1.531 -0.4839  0.9107 -0.3887
   18MOL   H130 9684   3.295   2.481   1.113  0.1419 -0.4171 -1.5393
   18MOL   H131 9685   3.135   2.466   1.170 -0.8578  1.5031 -1.3572
   18MOL   H132 9686   3.261   2.234   1.171  1.0407  1.9017  1.3075
   18MOL   H133 9687   3.284   2.264   0.992 -0.3940  1.1469 -0.9930
   18MOL   H134 9688   3.069   2.226   0.945 -2.1374 -0.3976 -0.2271
   18MOL   H135 9689   3.108   2.096   1.062 -1.5142  0.0333  0.7198
   18MOL   H136 9690   2.950   2.355   1.090  1.4454  0.2033 -1.4093
   18MOL   H137 9691   2.892   2.179   1.080 -0.3715 -0.4070  1.1740
   18MOL   H138 9692   2.709   2.122   1.521 -0.4718  3.2311  0.0270
   18MOL   H139 9693   2.769   2.089   1.775 -0.6082  4.5876  0.4546
   18MOL   H140 9694   3.164   2.205   1.704 -0.5900  0.8422 -0.4387
   18MOL   H141 9695   3.130   2.253   1.488  1.3046 -1.4741  0.7653
   18MOL   O142 9696   2.881   2.129   1.980  0.1865  0.0634 -0.3845
   18MOL   C143 9697   2.894   2.144   2.121  0.4057 -0.2113 -0.4581
   18MOL   C144 9698   2.865   2.287   2.165  0.1310  0.2940  0.5471
   18MOL   C145 9699   2.884   2.298   2.315 -0.7858 -0.0232 -0.1963
   18MOL   C146 9700   3.016   2.267   2.377 -0.2095 -0.0630 -0.0854
   18MOL   O147 9701   3.026   2.331   2.503 -0.1433 -0.6593  0.9472
   18MOL   C148 9702   2.982   2.266   2.612 -0.3531  1.0998  0.0811
   18MOL   O149 9703   2.924   2.160   2.608  0.5630  0.7492 -0.3088
   18MOL   C150 9704   3.010   2.344   2.734 -0.2177  0.1994 -0.1111
   18MOL   C151 9705   3.072   2.469   2.739  0.3902 -1.1431  0.2742
   18MOL   C152 9706   3.091   2.541   2.862 -0.0038  0.4473  0.6405
   18MOL   C153 9707   3.045   2.485   2.983  0.3513  0.0838  0.7609
   18MOL   C154 9708   3.052   2.567   3.109 -0.5745  0.3468 -0.2782
   18MOL   O155 9709   3.096   2.680   3.108  0.5747  0.0320  0.2779
   18MOL   C156 9710   2.984   2.358   2.977  0.1628  0.2483  0.7440
   18MOL   C157 9711   2.969   2.285   2.861 -0.7739  0.1925 -0.1693
   18MOL   H158 9712   2.820   2.082   2.170 -0.0050  0.7474  0.1490
   18MOL   H159 9713   2.995   2.121   2.154  0.4807  1.0010  0.1879
   18MOL   H160 9714   2.762   2.314   2.142  0.0117 -0.6100 -0.0160
   18MOL   H161 9715   2.923   2.360   2.109 -0.2324  0.9359  0.9996
   18MOL   H162 9716   2.869   2.405   2.328 -1.1717  0.0542 -1.2212
   18MOL   H163 9717   2.798   2.259   2.370  0.6251 -1.4144  1.0494
   18MOL   H164 9718   3.032   2.159   2.385 -0.8376 -0.2439 -1.0905
   18MOL   H165 9719   3.096   2.297   2.309 -0.3129  1.0583  0.2829
   18MOL   H166 9720   3.100   2.514   2.645 -0.7957  2.0370  1.3462
   18MOL   H167 9721   3.145   2.634   2.855 -1.6852  1.2531 -2.1710
   18MOL   H168 9722   2.950   2.305   3.065 -0.3844  0.6820  0.7939
   18MOL   H169 9723   2.923   2.188   2.860  1.3946 -0.8935  0.3790
   18MOL   O170 9724   3.011   2.503   3.217  0.1736 -0.1308 -0.2420
   18MOL   C171 9725   3.010   2.568   3.339  0.1379  1.1417 -0.2691
   18MOL   C172 9726   2.958   2.483   3.447  0.5782 -0.3491 -0.3063
   18MOL   C173 9727   2.816   2.424   3.422  0.2605  0.0325 -0.2648
   18MOL   C174 9728   2.754   2.350   3.546 -0.6723 -0.9174  0.0684
   18MOL   O175 9729   2.724   2.449   3.644  0.2845 -0.1524 -0.4618
   18MOL   C176 9730   2.609   2.449   3.703  0.2459 -0.5299 -0.0288
   18MOL   O177 9731   2.520   2.364   3.681  0.0129 -0.8312  0.1074
   18MOL   C178 9732   2.585   2.554   3.809 -0.1785  0.0236  0.5082
   18MOL   C179 9733   2.478   2.547   3.900  0.5335  0.0137  0.9484
   18MOL   C180 9734   2.475   2.638   4.007 -0.0045  0.7057 -0.2170
   18MOL   C181 9735   2.584   2.728   4.028  0.0796  0.2188  0.0478
   18MOL   C182 9736   2.573   2.820   4.138  0.1064  0.4591  0.1533
   18MOL   O183 9737   2.472   2.844   4.206  0.4681 -0.1681 -0.0869
   18MOL   C184 9738   2.684   2.732   3.934 -0.6876 -0.2755 -0.0421
   18MOL   C185 9739   2.682   2.656   3.819 -0.1361  0.4205  0.3877
   18MOL   H186 9740   3.107   2.606   3.368  0.9270 -0.9140 -0.1297
   18MOL   H187 9741   2.939   2.650   3.341 -0.2480  0.7975  0.6999
   18MOL   H188 9742   2.943   2.557   3.526 -1.4450 -0.4730 -0.5433
   18MOL   H189 9743   3.036   2.419   3.488 -0.6329 -0.7620  1.3965
   18MOL   H190 9744   2.753   2.511   3.406  0.3417  0.2229  0.4377
   18MOL   H191 9745   2.815   2.364   3.332  1.0990  0.7074 -0.7355
   18MOL   H192 9746   2.670   2.289   3.515 -2.4956  1.7998 -0.5724
   18MOL   H193 9747   2.832   2.285   3.583 -0.7762 -0.4557  1.1027
   18MOL   H194 9748   2.409   2.465   3.890  0.5922 -0.2467  2.5254
   18MOL   H195 9749   2.394   2.634   4.078 -0.3455  4.7908 -0.2422
   18MOL   H196 9750   2.757   2.811   3.930 -0.5566 -0.5019 -3.1850
   18MOL   H197 9751   2.756   2.669   3.742 -1.0128  0.5957 -0.4308
   18MOL   O198 9752   2.690   2.890   4.155  0.0466 -0.0770  0.0084
   18MOL   C199 9753   2.693   2.984   4.266 -0.3053 -0.1039 -0.3401
   18MOL   C200 9754   2.826   3.055   4.274  1.0461 -0.0955  0.4139
   18MOL   C201 9755   2.812   3.190   4.190 -0.3700 -0.1479 -0.0460
   18MOL   C202 9756   2.925   3.283   4.200  0.3151 -0.1215  0.2946
   18MOL   O203 9757   2.897   3.409   4.133 -0.5033 -0.5041  0.2591
   18MOL   C204 9758   2.985   3.508   4.162 -0.1687  0.9756 -0.0114
   18MOL   O205 9759   3.082   3.491   4.246  0.0467 -0.2184 -0.5019
   18MOL   C206 9760   2.958   3.627   4.073 -0.4015 -0.5517 -0.6286
   18MOL   C207 9761   3.036   3.747   4.095  0.0126 -0.4328 -0.9299
   18MOL   C208 9762   3.015   3.864   4.010  0.2332 -0.4911 -0.0538
   18MOL   C209 9763   2.918   3.864   3.912 -0.6481  0.0163  0.6694
   18MOL   C210 9764   2.892   3.983   3.829  0.2854 -0.3399  0.1250
   18MOL   O211 9765   2.963   4.082   3.825 -1.0913 -0.5014 -0.2481
   18MOL   C212 9766   2.837   3.746   3.895 -0.3003 -0.2090  0.4711
   18MOL   C213 9767   2.865   3.630   3.972  0.1763  0.5653  0.0524
   18MOL   H214 9768   2.614   3.056   4.246  1.3831  0.7558 -4.5945
   18MOL   H215 9769   2.672   2.930   4.358  1.0443  2.1507  1.3505
   18MOL   H216 9770   2.914   2.999   4.242  0.5716 -0.7835  0.2989
   18MOL   H217 9771   2.834   3.081   4.379 -2.7909  0.0147  0.7350
   18MOL   H218 9772   2.791   3.159   4.088  0.9955 -1.0315 -0.0741
   18MOL   H219 9773   2.725   3.244   4.227 -0.7112  0.1631 -1.2818
   18MOL   H220 9774   2.944   3.303   4.306 -0.0737  1.3571  0.1043
   18MOL   H221 9775   3.017   3.246   4.155 -0.4522  1.3792 -2.6244
   18MOL   H222 9776   3.116   3.748   4.167 -0.9694 -0.7691  0.1697
   18MOL   H223 9777   3.069   3.956   4.028 -0.4169  0.1674 -1.4607
   18MOL   H224 9778   2.756   3.759   3.826 -0.2131  1.3691  0.6581
   18MOL   H225 9779   2.816   3.537   3.950  3.6629 -0.8433 -2.2655
   18MOL   O226 9780   2.782   3.978   3.746  0.3476 -0.1011  0.0292
   18MOL   C227 9781   2.739   4.093   3.672  0.0753  0.2756 -0.0463
   18MOL   C228 9782   2.628   4.160   3.753  0.2309 -0.0166 -0.4631
   18MOL   C229 9783   2.499   4.078   3.758 -0.3261 -0.5732 -0.0397
   18MOL   C230 9784   2.420   4.094   3.883  0.5230 -0.7660 -1.3530
   18MOL   O231 9785   2.392   4.236   3.884  0.2828  0.1745  0.2961
   18MOL   C232 9786   2.289   4.273   3.969 -0.2654 -0.7689 -0.4820
   18MOL   O233 9787   2.223   4.201   4.043 -0.0803  0.6319 -0.6802
   18MOL   C234 9788   2.269   4.421   3.973 -0.0659 -0.1438  0.2923
   18MOL   C235 9789   2.342   4.507   3.892 -0.3125 -0.0040  0.1629
   18MOL   C236 9790   2.329   4.644   3.908 -0.3993  0.6243 -0.0605
   18MOL   C237 9791   2.232   4.704   3.993 -0.6516  0.8663  0.4301
   18MOL   C238 9792   2.238   4.855   4.009  0.0644  0.6385 -0.1586
   18MOL   O239 9793   2.316   4.932   3.959 -0.1405  0.4675  0.8198
   18MOL   C240 9794   2.150   4.612   4.058 -0.6982  0.4284  0.5899
   18MOL   C241 9795   2.164   4.473   4.051 -0.1464  0.2821  0.9758
   18MOL   H242 9796   2.810   4.175   3.660 -1.3284  1.1747 -2.4145
   18MOL   H243 9797   2.692   4.076   3.575  2.4114  0.6801 -1.3045
   18MOL   H244 9798   2.606   4.260   3.715  0.2017 -0.3378 -1.3060
   18MOL   H245 9799   2.669   4.192   3.849  0.2619  1.8311 -1.0730
   18MOL   H246 9800   2.447   4.112   3.668 -0.2777 -0.8376 -0.1690
   18MOL   H247 9801   2.526   3.973   3.746 -0.3711 -0.7025  0.9971
   18MOL   H248 9802   2.329   4.035   3.871  0.0381 -0.5464  1.1525
   18MOL   H249 9803   2.478   4.053   3.966 -1.6219 -0.7196  0.1947
   18MOL   H250 9804   2.423   4.481   3.825 -0.5186  0.5532 -0.3056
   18MOL   H251 9805   2.389   4.704   3.841  0.4363 -1.4117 -1.1974
   18MOL   H252 9806   2.079   4.654   4.128  1.0322 -0.4500  2.9429
   18MOL   H253 9807   2.113   4.408   4.120  0.2433  0.9090  1.8769
   18MOL   O254 9808   2.148   4.896   4.097 -0.4340  0.1034  0.0967
   18MOL   C255 9809   2.161   5.021   4.163  0.1533  0.3496 -0.1245
   18MOL   C256 9810   2.058   5.045   4.275 -0.2157 -0.0107  0.2909
   18MOL   C257 9811   2.109   5.155   4.373 -0.2489  0.4499 -0.3928
   18MOL   C258 9812   2.019   5.212   4.478 -0.2802  0.6216  0.6602
   18MOL   O259 9813   1.882   5.232   4.425 -0.2527  0.1198  0.0172
   18MOL   C260 9814   1.798   5.313   4.497  0.7636  0.3091  0.2743
   18MOL   O261 9815   1.839   5.364   4.603  0.2670  0.2972 -0.1930
   18MOL   C262 9816   1.665   5.328   4.428 -0.8392  0.4616  0.4291
   18MOL   C263 9817   1.565   5.403   4.496 -0.3970 -0.1326  0.0296
   18MOL   C264 9818   1.435   5.411   4.437  0.0011  0.5234  0.8865
   18MOL   C265 9819   1.410   5.346   4.315 -0.9794 -0.3993 -0.6354
   18MOL   C266 9820   1.273   5.372   4.258 -0.2813  1.0121  0.0455
   18MOL   O267 9821   1.191   5.457   4.300 -0.5152 -0.3732  0.4255
   18MOL   C268 9822   1.513   5.262   4.255 -0.0121 -0.7467  0.0066
   18MOL   C269 9823   1.636   5.268   4.304 -0.9919  0.9318  0.7212
   18MOL   H270 9824   2.263   5.027   4.200  0.6531 -2.0140 -1.0263
   18MOL   H271 9825   2.139   5.105   4.097 -0.7109 -1.4629 -2.2385
   18MOL   H272 9826   2.036   4.956   4.334 -0.3225 -1.1325 -1.4261
   18MOL   H273 9827   1.959   5.076   4.241 -0.0289  2.0409  1.4757
   18MOL   H274 9828   2.196   5.114   4.423 -2.1046  0.3290  2.8521
   18MOL   H275 9829   2.133   5.251   4.326 -1.3523  0.8520 -0.1588
   18MOL   H276 9830   2.008   5.142   4.561 -3.1501 -0.5328 -0.6234
   18MOL   H277 9831   2.063   5.305   4.513  0.1068  0.9161 -0.5822
   18MOL   H278 9832   1.584   5.454   4.589 -1.3348 -1.6456  1.0747
   18MOL   H279 9833   1.372   5.488   4.480 -1.4245 -1.0050  1.6139
   18MOL   H280 9834   1.488   5.196   4.173  1.5544 -0.1249 -0.9813
   18MOL   H281 9835   1.711   5.213   4.249 -2.4769 -0.0264 -0.3730
   18MOL   O282 9836   1.253   5.287   4.154  0.1101  0.5488  0.1287
   18MOL   C283 9837   1.119   5.285   4.101 -0.0708 -0.1854 -0.6258
   18MOL   C284 9838   1.096   5.148   4.029  0.9510 -0.2095 -0.1253
   18MOL   C285 9839   0.955   5.140   3.967 -0.5898  0.6359  0.2821
   18MOL   C286 9840   0.923   5.000   3.907 -0.0547  0.2645 -0.2753
   18MOL   O287 9841   0.999   4.957   3.795  0.0040  0.1160 -0.6604
   18MOL   C288 9842   0.951   4.965   3.670 -0.0036 -0.3778 -0.3277
   18MOL   O289 9843   0.838   5.007   3.643  0.3945 -0.2709 -0.7931
   18MOL   C290 9844   1.046   4.913   3.563 -0.6077 -0.4998  0.5631
   18MOL   C291 9845   0.988   4.848   3.454  0.3306  0.6556  0.4995
   18MOL   C292 9846   1.066   4.809   3.343  0.5508  0.3706 -0.4733
   18MOL   C293 9847   1.206   4.831   3.344 -0.4703  0.1383  0.0538
   18MOL   C294 9848   1.298   4.773   3.239 -0.1563 -0.7133 -1.0297
   18MOL   O295 9849   1.246   4.692   3.157  0.0965 -0.0577 -0.8546
   18MOL   C296 9850   1.260   4.903   3.453 -0.3074 -0.6341  0.8357
   18MOL   C297 9851   1.184   4.934   3.569 -0.2841  0.3642  1.0426
   18MOL   H298 9852   1.043   5.303   4.177  0.0041 -0.7213 -0.4198
   18MOL   H299 9853   1.113   5.366   4.028 -1.5229 -0.1700 -0.5039
   18MOL   H300 9854   1.103   5.059   4.092 -4.3768 -0.6748  0.0637
   18MOL   H301 9855   1.173   5.145   3.953 -0.7760 -1.6570 -1.8641
   18MOL   H302 9856   0.876   5.171   4.037  0.2388 -0.0415  1.5390
   18MOL   H303 9857   0.941   5.214   3.889 -0.3866  1.8987  1.4150
   18MOL   H304 9858   0.937   4.924   3.984 -1.7161 -0.4372 -0.6572
   18MOL   H305 9859   0.817   5.000   3.882  0.2214  0.2228 -1.4607
   18MOL   H306 9860   0.882   4.830   3.447  0.6002 -0.4538 -1.0971
   18MOL   H307 9861   1.020   4.764   3.256 -0.8016 -1.0709  0.9644
   18MOL   H308 9862   1.367   4.923   3.453  0.0658 -2.4763  1.3439
   18MOL   H309 9863   1.235   4.995   3.642 -0.7458  2.7330 -0.5449
   18MOL   O310 9864   1.419   4.812   3.247  0.0881  0.5618  0.3321
   18MOL   C311 9865   1.512   4.749   3.166 -0.0333  0.0167 -0.3813
   18MOL   C312 9866   1.654   4.785   3.210 -0.8215 -0.3990 -0.0791
   18MOL   C313 9867   1.763   4.737   3.105 -0.2155  0.6370 -0.1797
   18MOL   C314 9868   1.748   4.598   3.044  0.1230 -0.1832 -0.7097
   18MOL   O315 9869   1.861   4.571   2.960  0.6135  0.4645  0.5936
   18MOL   C316 9870   1.864   4.467   2.873 -0.4780 -0.1186 -0.0083
   18MOL   O317 9871   1.775   4.381   2.856 -0.1003 -0.2619 -0.2326
   18MOL   C318 9872   2.001   4.460   2.810  0.7471  0.1576 -0.3125
   18MOL   C319 9873   2.100   4.555   2.845 -0.7326  0.3478  0.5896
   18MOL   C320 9874   2.233   4.547   2.786 -0.0148  0.3013  0.5046
   18MOL   C321 9875   2.262   4.438   2.699  0.0104 -0.6596 -0.0009
   18MOL   C322 9876   2.404   4.415   2.663  0.3158  0.1852  0.1876
   18MOL   O323 9877   2.491   4.483   2.712 -0.0568 -0.1059 -0.1067
   18MOL   C324 9878   2.156   4.352   2.659 -0.7312  0.1433 -0.4354
   18MOL   C325 9879   2.032   4.358   2.717  0.2047  0.2101  0.7665
   18MOL   H326 9880   1.502   4.642   3.154 -0.8950  0.0085  0.3016
   18MOL   H327 9881   1.500   4.797   3.069  2.8146 -1.1811 -1.3654
   18MOL   H328 9882   1.667   4.736   3.307  0.8130  0.2496  0.0340
   18MOL   H329 9883   1.680   4.889   3.229  1.5841 -0.9000 -0.4378
   18MOL   H330 9884   1.768   4.808   3.022 -1.7449  0.8226 -0.1329
   18MOL   H331 9885   1.865   4.748   3.142  0.2636 -0.4873 -1.1520
   18MOL   H332 9886   1.754   4.529   3.128 -0.0313  1.2256  0.4715
   18MOL   H333 9887   1.663   4.586   2.977 -1.3051  1.7819  0.7241
   18MOL   H334 9888   2.083   4.630   2.921 -3.1731  0.7902 -0.3402
   18MOL   H335 9889   2.300   4.628   2.811  0.0402  0.0031  1.3362
   18MOL   H336 9890   2.176   4.270   2.591  0.1598 -1.6822  1.9455
   18MOL   H337 9891   1.957   4.291   2.678  1.2231  0.7648 -2.1980
   18MOL   O338 9892   2.439   4.312   2.577 -0.0841 -0.9868  0.5570
   18MOL   C339 9893   2.579   4.303   2.542 -0.0247  0.0727  0.1490
   18MOL   C340 9894   2.609   4.166   2.493  0.4830 -0.1023 -0.0133
   18MOL   C341 9895   2.518   4.120   2.381  0.0934 -0.7484  1.2966
   18MOL   C342 9896   2.531   4.216   2.255 -0.5119  0.6462 -0.3923
   18MOL   O343 9897   2.421   4.300   2.267  0.4620 -0.2552 -0.8138
   18MOL   C344 9898   2.344   4.335   2.162  0.2297 -0.0669  0.4423
   18MOL   O345 9899   2.364   4.298   2.049 -0.3586 -0.3980 -0.4722
   18MOL   C346 9900   2.226   4.418   2.196 -0.2485  0.1834  0.2687
   18MOL   C347 9901   2.210   4.483   2.321 -0.2119 -0.1049 -0.3998
   18MOL   C348 9902   2.097   4.559   2.345 -0.3369  0.4001 -0.2424
   18MOL   C349 9903   1.996   4.579   2.249 -0.1490 -0.0877  0.2218
   18MOL   C350 9904   1.877   4.659   2.280  1.0318 -0.9613 -0.6252
   18MOL   O351 9905   1.785   4.696   2.198  0.2949  0.2293  0.2975
   18MOL   C352 9906   2.006   4.508   2.127  0.0865 -0.1461 -0.0965
   18MOL   C353 9907   2.122   4.429   2.098 -0.2246 -0.5089 -0.0365
   18MOL   H354 9908   2.593   4.375   2.462  0.2936  0.8273  0.8749
   18MOL   H355 9909   2.643   4.321   2.628  0.8292  1.0726 -0.6919
   18MOL   H356 9910   2.594   4.102   2.580  1.8360  1.2956  1.2789
   18MOL   H357 9911   2.714   4.162   2.465  0.4983 -0.2243  0.0606
   18MOL   H358 9912   2.542   4.018   2.354 -0.4067 -0.4666 -0.2543
   18MOL   H359 9913   2.415   4.123   2.419  0.3487  0.3811  1.9477
   18MOL   H360 9914   2.627   4.268   2.255 -0.3740  0.3989 -0.6223
   18MOL   H361 9915   2.534   4.149   2.169  2.0782  0.0159  0.1237
   18MOL   H362 9916   2.283   4.468   2.399 -1.2709  2.0683  1.0678
   18MOL   H363 9917   2.096   4.612   2.439  0.9446  2.6507 -1.4497
   18MOL   H364 9918   1.923   4.513   2.058 -2.1230  1.0508  2.5603
   18MOL   H365 9919   2.127   4.375   2.005  0.1684  0.5575 -0.6514
   18MOL   O366 9920   1.870   4.695   2.412  0.0414  0.2039 -0.0628
   18MOL   C367 9921   1.759   4.759   2.474 -0.3908  0.7944  0.5669
   18MOL   C368 9922   1.750   4.703   2.621  0.2568  1.0534 -0.0879
   18MOL   C369 9923   1.646   4.777   2.702  0.0742 -0.0834  0.0253
   18MOL   C370 9924   1.652   4.927   2.722  0.0386 -0.2368  0.4439
   18MOL   O371 9925   1.549   4.974   2.810 -0.3088 -0.3653 -0.2722
   18MOL   C372 9926   1.574   5.023   2.940 -0.6134  0.5231 -0.6317
   18MOL   O373 9927   1.690   5.032   2.989  0.0646 -0.7574  0.1627
   18MOL   C374 9928   1.449   5.065   3.011  0.2174  1.4686  0.1408
   18MOL   C375 9929   1.320   5.044   2.955 -0.5127  0.2324  0.3076
   18MOL   C376 9930   1.206   5.080   3.028 -0.0422  0.0835 -0.2453
   18MOL   C377 9931   1.214   5.135   3.156 -0.0647 -0.4476 -0.5598
   18MOL   C378 9932   1.095   5.162   3.247  0.7926 -0.5635  0.8533
   18MOL   O379 9933   1.094   5.184   3.368  0.0758 -0.1879 -0.0956
   18MOL   C380 9934   1.339   5.165   3.206  0.2692 -0.1278  0.0641
   18MOL   C381 9935   1.451   5.117   3.140 -0.1836  0.2140 -0.1554
   18MOL   H382 9936   1.772   4.868   2.472 -2.0869  1.0947  3.1547
   18MOL   H383 9937   1.667   4.726   2.426  0.4696  1.3427 -1.5176
   18MOL   H384 9938   1.850   4.712   2.665  1.1583  1.0190 -2.0572
   18MOL   H385 9939   1.728   4.597   2.633 -2.1967  1.4625 -0.7976
   18MOL   H386 9940   1.548   4.747   2.663  0.8168  0.3647 -2.3033
   18MOL   H387 9941   1.649   4.729   2.800 -1.2030  0.4026  0.3125
   18MOL   H388 9942   1.755   4.949   2.752  0.7677 -1.4917 -1.0376
   18MOL   H389 9943   1.655   4.973   2.623 -1.4993 -0.4670  0.2918
   18MOL   H390 9944   1.318   5.017   2.851 -2.5936  2.0063 -0.1586
   18MOL   H391 9945   1.111   5.055   2.982  0.0579  0.7434 -0.8212
   18MOL   H392 9946   1.351   5.200   3.308 -1.3725 -1.2072  0.6351
   18MOL   H393 9947   1.548   5.112   3.188 -0.6365  1.5447  0.9228
   18MOL   O394 9948   0.982   5.125   3.179  0.4809 -0.0971 -0.4059
   18MOL   C395 9949   0.864   5.104   3.255 -0.0145 -1.0453  0.9304
   18MOL   C396 9950   0.760   5.053   3.158 -0.2345  0.3486 -0.2740
   18MOL   C397 9951   0.641   4.992   3.241 -0.6306 -0.1223  0.9370
   18MOL   C398 9952   0.574   5.078   3.356 -0.3717  0.0225  0.5504
   18MOL   O399 9953   0.585   5.212   3.331 -0.3626 -0.2428  0.5405
   18MOL   C400 9954   0.479   5.304   3.349  0.3757  0.2573  0.4942
   18MOL   O401 9955   0.373   5.269   3.397  0.5955  0.3657  0.4470
   18MOL   C402 9956   0.511   5.438   3.296 -0.6538 -0.1536  0.6225
   18MOL   C403 9957   0.636   5.467   3.233 -0.1298 -0.4981  0.0073
   18MOL   C404 9958   0.670   5.604   3.203  0.3558 -1.0126  0.0382
   18MOL   C405 9959   0.568   5.705   3.216 -0.3630 -0.4303 -0.1881
   18MOL   C406 9960   0.599   5.846   3.195  0.3272 -0.0992  0.0147
   18MOL   O407 9961   0.533   5.941   3.233  0.1411 -0.1491 -0.7417
   18MOL   C408 9962   0.436   5.667   3.261 -0.0206 -0.7840 -0.1660
   18MOL   C409 9963   0.408   5.534   3.303 -0.6991 -0.7492  0.0762
   18MOL   H410 9964   0.885   5.015   3.315 -0.6097 -0.8678  1.4057
   18MOL   H411 9965   0.832   5.183   3.322 -3.5014 -0.6124 -1.0899
   18MOL   H412 9966   0.794   4.977   3.088 -0.6664  1.6572 -1.9554
   18MOL   H413 9967   0.721   5.139   3.102 -1.1071  0.8498  1.0754
   18MOL   H414 9968   0.554   4.975   3.178 -0.0900  0.5385 -0.0215
   18MOL   H415 9969   0.666   4.895   3.282 -0.4507 -0.5015 -0.0430
   18MOL   H416 9970   0.469   5.052   3.370 -1.2371  1.5722 -2.5877
   18MOL   H417 9971   0.619   5.057   3.453  0.6483  2.1921  0.5727
   18MOL   H418 9972   0.712   5.392   3.215  0.3567  0.0178 -0.0979
   18MOL   H419 9973   0.766   5.637   3.167  0.8902  0.6639  2.8119
   18MOL   H420 9974   0.359   5.743   3.273 -1.5200 -2.4050  0.7249
   18MOL   H421 9975   0.316   5.519   3.358 -1.4261  0.2974 -0.8344
   18MOL   O422 9976   0.732   5.868   3.147 -0.6654  0.1778  0.1920
   18MOL   C423 9977   0.772   6.010   3.129  0.4299  0.3700 -0.1954
   18MOL   C424 9978   0.921   6.029   3.093 -0.4472  0.2123 -0.1072
   18MOL   C425 9979   0.951   5.990   2.953  0.1699  0.4902 -0.0362
   18MOL   C426 9980   1.099   5.991   2.912 -0.4657  0.2215 -0.0526
   18MOL   O427 9981   1.146   6.130   2.913 -0.5005  0.3486  1.1551
   18MOL   C428 9982   1.276   6.152   2.870 -0.6254 -0.7572  0.0644
   18MOL   O429 9983   1.360   6.066   2.858  0.0139  0.6680  0.4733
   18MOL   C430 9984   1.299   6.299   2.851  0.0530  0.6942 -0.5275
   18MOL   C431 9985   1.210   6.401   2.870  0.1472 -0.7204 -0.4650
   18MOL   C432 9986   1.249   6.534   2.860  0.3973 -1.1272  0.3191
   18MOL   C433 9987   1.387   6.570   2.839  0.4118  0.1544  0.1928
   18MOL   C434 9988   1.426   6.715   2.861 -0.9583 -0.9177 -0.3018
   18MOL   O435 9989   1.541   6.755   2.880 -0.7303  0.7523 -0.5043
   18MOL   C436 9990   1.485   6.470   2.822  0.5936 -0.2247  0.7956
   18MOL   C437 9991   1.439   6.336   2.831 -0.1724 -0.5319 -0.2372
   18MOL   H438 9992   0.718   6.055   3.046 -0.5825 -1.6868 -0.6855
   18MOL   H439 9993   0.764   6.076   3.216  0.4314  1.0278 -0.6942
   18MOL   H440 9994   0.978   5.981   3.172  1.4081  1.4876 -0.6446
   18MOL   H441 9995   0.951   6.134   3.097  1.9154 -0.4086 -0.8267
   18MOL   H442 9996   0.922   5.887   2.929  2.8954  0.0175 -1.5976
   18MOL   H443 9997   0.906   6.056   2.879 -2.1124  0.2801  1.1283
   18MOL   H444 9998   1.166   5.938   2.979 -0.5343  0.3000  0.0790
   18MOL   H445 9999   1.117   5.941   2.817  0.5806 -2.6393  1.6004
   18MOL   H44610000   1.107   6.382   2.897 -0.3222  0.8733 -1.0320
   18MOL   H44710001   1.178   6.614   2.879  0.2034 -1.6195  1.7424
   18MOL   H44810002   1.588   6.500   2.815  0.3604  0.9037  2.1071
   18MOL   H44910003   1.510   6.254   2.825 -0.9898 -1.1241 -2.2777
   18MOL   O45010004   1.326   6.798   2.832 -0.3364  0.1907  0.4864
   18MOL   C45110005   1.350   6.938   2.825 -0.2634 -0.7295 -0.5417
   18MOL   C45210006   1.227   7.021   2.786  0.2122 -0.0906  0.2477
   18MOL   C45310007   1.132   7.071   2.896 -0.4585 -0.4158  0.4904
   18MOL   C45410008   1.021   7.165   2.845  0.2448  0.0805  1.0884
   18MOL   O45510009   1.067   7.282   2.773 -0.2071  0.2266  0.0646
   18MOL   C45610010   1.090   7.401   2.839  0.1022 -0.7295  0.2242
   18MOL   O45710011   1.094   7.412   2.962 -0.4635 -0.6337  0.1357
   18MOL   C45810012   1.112   7.506   2.739 -0.4298  0.0598  0.8580
   18MOL   C45910013   1.139   7.641   2.773  0.2498  0.3578  0.8886
   18MOL   C46010014   1.143   7.739   2.673 -0.2708  0.3980  1.1492
   18MOL   C46110015   1.133   7.712   2.535 -0.1922 -0.4503 -0.3233
   18MOL   C46210016   1.118   7.822   2.443  0.3591  0.2522  0.5602
   18MOL   O46310017   1.104   7.937   2.482  0.3634  0.1934 -0.1744
   18MOL   C46410018   1.115   7.578   2.500  0.1286  1.0338  0.1808
   18MOL   C46510019   1.101   7.480   2.599  0.6410 -0.2227  0.1466
   18MOL   H46610020   1.398   6.974   2.916 -1.3244  0.3114 -0.3824
   18MOL   H46710021   1.417   6.946   2.738  1.5589  0.2907  0.9123
   18MOL   H46810022   1.164   6.968   2.715  0.3628  2.4009 -1.8451
   18MOL   H46910023   1.270   7.109   2.737 -0.9190 -0.1646 -0.9005
   18MOL   H47010024   1.074   6.989   2.938 -0.3173 -0.4595  0.5990
   18MOL   H47110025   1.185   7.126   2.974  0.3181 -0.3463 -0.0796
   18MOL   H47210026   0.963   7.098   2.781  0.0308 -0.7955  2.1756
   18MOL   H47310027   0.963   7.195   2.933 -2.6468  2.0045 -1.3958
   18MOL   H47410028   1.148   7.670   2.877  1.2341 -2.1257  1.5498
   18MOL   H47510029   1.154   7.844   2.695  2.8256  0.7709 -1.7752
   18MOL   H47610030   1.091   7.553   2.398 -2.0061  2.0588  0.4070
   18MOL   H47710031   1.071   7.386   2.557 -0.5532  0.5730 -0.8240
   18MOL   O47810032   1.106   7.785   2.312 -0.1723 -0.2770 -0.0598
   18MOL   C47910033   1.091   7.877   2.205 -0.0374 -0.6677  0.6026
   18MOL   C48010034   1.082   7.802   2.068 -0.1681  0.4620  0.1891
   18MOL   C48110035   0.976   7.701   2.064  0.5416  0.5216  0.0172
   18MOL   C48210036   0.953   7.641   1.929  0.2608  0.0014  0.6085
   18MOL   O48310037   0.882   7.727   1.840 -0.0798  0.0193  0.0440
   18MOL   C48410038   0.849   7.693   1.717 -0.4406  0.3623 -0.5344
   18MOL   O48510039   0.871   7.580   1.672 -0.1793 -0.4218  0.0398
   18MOL   C48610040   0.802   7.803   1.628  0.3237 -0.7469 -0.2712
   18MOL   C48710041   0.780   7.778   1.492  0.1346 -0.3770 -0.2250
   18MOL   C48810042   0.748   7.881   1.399 -0.4412 -0.0678  0.0778
   18MOL   C48910043   0.739   8.014   1.448  0.0627 -0.6768 -0.1469
   18MOL   C49010044   0.714   0.023   1.353  0.3903  0.3051  0.3802
   18MOL   O49110045   0.699   0.138   1.389  0.9141 -0.0280  0.0538
   18MOL   C49210046   0.743   8.045   1.590  0.5954  0.0149 -0.0360
   18MOL   C49310047   0.781   7.933   1.674 -0.0151 -0.4306 -0.0856
   18MOL   H49410048   1.004   7.943   2.207  1.9707  2.1596 -1.2813
   18MOL   H49510049   1.179   7.942   2.204 -0.0103 -0.7151 -0.3334
   18MOL   H49610050   1.173   7.744   2.051 -1.0576 -0.8585 -0.1470
   18MOL   H49710051   1.089   7.877   1.989  0.7030  0.3667  0.1638
   18MOL   H49810052   1.010   7.624   2.134  3.0125 -0.5476 -2.2617
   18MOL   H49910053   0.880   7.741   2.097  0.2246 -0.9825  0.9899
   18MOL   H50010054   1.037   7.608   1.868 -1.3038 -0.5360 -1.3092
   18MOL   H50110055   0.885   7.556   1.939  0.5219  0.0094  2.5199
   18MOL   H50210056   0.777   7.675   1.459 -2.6419 -0.4881  0.2532
   18MOL   H50310057   0.747   7.854   1.294  1.4671 -2.4839  0.6383
   18MOL   H50410058   0.741   0.050   1.619  0.4393 -0.5410  1.9731
   18MOL   H50510059   0.789   7.966   1.776 -2.7845  1.5254 -0.4735
   18MOL   O50610060   0.721   0.000   1.225 -0.4110  0.0724  0.3692
   18MOL   C50710061   0.661   0.088   1.124 -0.5488 -0.5189 -0.3994
   18MOL   C50810062   0.750   0.116   1.005 -0.1860  0.5312  0.1125
   18MOL   C50910063   0.878   0.199   1.018  0.6255  0.4388 -0.2793
   18MOL   C51010064   0.996   0.116   1.065  0.1728  0.3539 -0.1960
   18MOL   O51110065   1.020   8.092   0.991  0.7084  0.8150 -0.3059
   18MOL   C51210066   1.076   7.987   1.056  0.3317  0.1106 -0.4169
   18MOL   O51310067   1.130   7.997   1.168 -0.1993  0.0153  0.9084
   18MOL   C51410068   1.044   7.859   0.984 -0.2778  0.1271 -0.1230
   18MOL   C51510069   1.116   7.740   1.024 -0.4902 -0.3032 -0.6469
   18MOL   C51610070   1.094   7.614   0.964  0.6003 -0.2783  0.3406
   18MOL   C51710071   0.984   7.607   0.871 -0.3585 -0.6066  0.3353
   18MOL   C51810072   0.959   7.466   0.823  0.8946 -0.2562 -0.6606
   18MOL   O51910073   0.892   7.453   0.718 -0.5139 -0.7556 -0.0308
   18MOL   C52010074   0.906   7.720   0.840  0.1217  0.4891  0.0834
   18MOL   C52110075   0.940   7.847   0.891 -0.1653 -0.3182  0.4165
   18MOL   H52210076   0.565   0.045   1.096 -2.1450  1.1547  2.3698
   18MOL   H52310077   0.635   0.187   1.160 -0.1986 -0.7574  0.5106
   18MOL   H52410078   0.696   0.160   0.921  2.7587  3.4191 -0.3588
   18MOL   H52510079   0.776   0.024   0.954 -3.9033 -0.3737 -0.2852
   18MOL   H52610080   0.903   0.244   0.921  0.4279 -0.2564 -0.6569
   18MOL   H52710081   0.855   0.283   1.084  1.0143  0.5515 -0.2896
   18MOL   H52810082   1.089   0.174   1.060  0.8151 -0.6505 -0.1095
   18MOL   H52910083   0.989   0.086   1.169  3.2969 -0.4868 -0.1541
   18MOL   H53010084   1.189   7.746   1.103  0.5386  0.8660 -1.6681
   18MOL   H53110085   1.150   7.525   0.988 -0.3357 -1.2739 -1.0868
   18MOL   H53210086   0.825   7.709   0.770  0.9023 -0.8494 -0.6511
   18MOL   H53310087   0.872   7.926   0.864  1.4938  1.1270  0.3170
   18MOL   O53410088   1.003   7.365   0.898 -0.1125  0.3175  0.0147
   18MOL   C53510089   0.983   7.232   0.853  0.0915  0.2366 -0.9024
   18MOL   C53610090   0.842   7.174   0.869  0.0474  0.4520 -0.4602
   18MOL   C53710091   0.819   7.152   1.018  0.0254 -0.4185  0.0769
   18MOL   C53810092   0.673   7.124   1.050  0.2593 -0.0972  0.0954
   18MOL   O53910093   0.573   7.227   1.022 -0.4083  0.5474 -0.3231
   18MOL   C54010094   0.493   7.214   0.919 -0.7675 -1.0664 -0.2590
   18MOL   O54110095   0.515   7.140   0.824 -0.5477  0.2117 -0.1931
   18MOL   C54210096   0.370   7.295   0.931 -0.3447  0.3417 -0.6987
   18MOL   C54310097   0.323   7.324   1.056 -1.1455  1.2823 -0.7482
   18MOL   C54410098   0.202   7.398   1.068  0.3762  0.0124  0.6882
   18MOL   C54510099   0.126   7.437   0.957  1.1917 -0.1002  0.3821
   18MOL   C54610100   8.096   7.495   0.977 -0.0831  0.3026  0.0030
   18MOL   O54710101   8.014   7.529   0.886 -0.1793  0.3522  0.1023
   18MOL   C54810102   0.183   7.429   0.828  0.4167 -0.0888 -0.2915
   18MOL   C54910103   0.300   7.348   0.821 -0.0854 -0.1262 -0.1694
   18MOL   H55010104   1.033   7.242   0.757  2.5559  2.5691  0.5356
   18MOL   H55110105   1.046   7.168   0.916  0.0227  0.8514 -0.2057
   18MOL   H55210106   0.832   7.079   0.816 -3.4330  0.5566 -0.0705
   18MOL   H55310107   0.767   7.243   0.830 -0.1854  0.1409 -0.5639
   18MOL   H55410108   0.880   7.067   1.049 -0.2496 -2.0442 -3.5877
   18MOL   H55510109   0.851   7.234   1.082 -2.1214 -1.1406  2.1994
   18MOL   H55610110   0.646   7.035   0.994 -1.4849  0.0792  0.6211
   18MOL   H55710111   0.652   7.108   1.156  1.8536  0.3217  0.4900
   18MOL   H55810112   0.370   7.285   1.145 -1.0610  0.1506 -1.2720
   18MOL   H55910113   0.165   7.419   1.168  0.6951  1.6720  0.4752
   18MOL   H56010114   0.130   7.467   0.742 -0.4724 -1.4442 -0.3611
   18MOL   H56110115   0.341   7.333   0.722 -0.9611 -1.4379 -0.3559
   18MOL   H56210116   8.072   7.543   1.072 -0.8981  2.3977 -1.2323
   19MOL     O110117   4.987   5.122   0.161 -0.1587  0.5801 -0.1411
   19MOL     C210118   4.948   4.995   0.150  0.1788 -0.3098  0.0125
   19MOL     C310119   4.991   4.906   0.269  0.1281 -0.1853  0.9358
   19MOL     C410120   5.134   4.854   0.245  0.5036  0.5019  0.3073
   19MOL     C510121   5.190   4.792   0.369  0.3094 -0.9606  0.3429
   19MOL     O610122   5.324   4.743   0.353 -0.0019  0.0116  0.0984
   19MOL     C710123   5.388   4.708   0.458 -0.5431  0.2254 -0.7728
   19MOL     O810124   5.343   4.710   0.573 -0.0219 -0.0771 -0.8065
   19MOL     C910125   5.527   4.660   0.437  0.3527 -0.4030 -0.7151
   19MOL    C1010126   5.600   4.636   0.560 -0.2168 -0.1469 -0.4328
   19MOL    C1110127   5.727   4.577   0.553  0.3213  0.5889 -0.0629
   19MOL    C1210128   5.777   4.537   0.430 -0.2653 -0.0041  0.1199
   19MOL    C1310129   5.914   4.463   0.422 -0.3994 -0.2039 -0.2263
   19MOL    O1410130   5.981   4.441   0.519 -0.0915  0.9419  0.0131
   19MOL    C1510131   5.704   4.571   0.312 -0.4696  0.1563  0.3902
   19MOL    C1610132   5.579   4.629   0.316  0.7465 -0.3158 -0.4487
   19MOL    H1710133   4.840   5.009   0.147 -0.0384 -1.7562  0.3937
   19MOL    H1810134   4.959   4.951   0.051 -1.7894 -4.3023  1.4639
   19MOL    H1910135   4.932   4.814   0.265  1.9540 -1.4077  1.3742
   19MOL    H2010136   4.995   4.962   0.363  2.6682  1.1528  0.0751
   19MOL    H2110137   5.140   4.785   0.161 -1.4162  0.9222 -0.2077
   19MOL    H2210138   5.195   4.940   0.217 -1.0455  1.5189  0.0059
   19MOL    H2310139   5.178   4.870   0.445 -1.2508 -0.4212 -0.4251
   19MOL    H2410140   5.124   4.713   0.405 -1.9618  0.9564  0.5590
   19MOL    H2510141   5.557   4.662   0.656 -0.3007 -1.6635 -0.0487
   19MOL    H2610142   5.782   4.573   0.647  1.4646 -1.9413 -0.7917
   19MOL    H2710143   5.744   4.545   0.216 -1.2979 -0.5310  0.2259
   19MOL    H2810144   5.518   4.643   0.228 -0.2190  1.9536  0.5344
   19MOL    H2910145   5.081   5.132   0.154 -0.0178 -0.4744  0.1140
   19MOL    O3010146   5.944   4.417   0.293 -0.3875  0.0726 -0.2811
   19MOL    C3110147   6.054   4.346   0.265  0.4569  0.0887  0.0687
   19MOL    C3210148   6.045   4.265   0.142  0.0768 -0.0177 -0.0303
   19MOL    C3310149   6.166   4.183   0.129 -0.5585  0.7949  0.3301
   19MOL    C3410150   6.180   4.096   8.096 -0.2711 -0.5714  0.2556
   19MOL    O3510151   6.319   4.072   8.074 -0.0631  0.6119  0.1266
   19MOL    C3610152   6.380   4.110   7.957  0.0923  0.1497  0.4343
   19MOL    O3710153   6.314   4.169   7.868  0.1736  0.9060  0.0309
   19MOL    C3810154   6.528   4.081   7.950 -0.6849 -1.1490  0.0303
   19MOL    C3910155   6.598   4.006   8.044 -0.5671  0.6008  0.5209
   19MOL    C4010156   6.732   3.977   8.032 -0.1595 -0.4445 -0.2606
   19MOL    C4110157   6.805   4.029   7.923 -0.0938 -0.5049 -0.5082
   19MOL    C4210158   6.958   4.008   7.912  0.2574  0.0259 -0.5567
   19MOL    O4310159   7.037   3.961   8.001  0.5688  0.0122 -0.6165
   19MOL    C4410160   6.735   4.104   7.821 -0.5647  0.5067  0.3163
   19MOL    C4510161   6.597   4.125   7.837 -0.0131 -0.0050 -0.1323
   19MOL    H4610162   6.137   4.415   0.251 -1.4264  1.8076 -3.3564
   19MOL    H4710163   6.072   4.280   0.349 -2.7897  0.2524  0.9693
   19MOL    H4810164   6.025   4.330   0.057  1.2943 -0.7242 -0.8707
   19MOL    H4910165   5.959   4.199   0.154 -1.2619  1.6689 -0.1700
   19MOL    H5010166   6.250   4.251   0.120  1.5894 -1.9435 -1.1580
   19MOL    H5110167   6.180   4.121   0.217 -2.4755  0.7176  0.6002
   19MOL    H5210168   6.122   4.005   0.014  1.6824 -1.8027  0.5353
   19MOL    H5310169   6.134   4.147   8.012  0.8477 -3.1093 -1.9728
   19MOL    H5410170   6.540   3.973   0.030 -0.2764 -0.1005  0.4432
   19MOL    H5510171   6.788   3.920   0.005  1.5970  2.5018  0.7839
   19MOL    H5610172   6.781   4.148   7.733  0.3412 -1.5975 -0.2814
   19MOL    H5710173   6.552   4.175   7.753 -0.8502  0.1706  0.4132
   19MOL    O5810174   6.999   4.032   7.789 -0.3981 -0.2977  0.3289
   19MOL    C5910175   7.136   4.049   7.753  0.9941 -0.4767  0.2008
   19MOL    C6010176   7.134   4.142   7.629  0.1747 -0.2865 -0.2776
   19MOL    C6110177   7.066   4.075   7.511 -0.9911 -0.0879  0.7939
   19MOL    C6210178   7.059   4.168   7.392  0.7040 -0.1818  0.1612
   19MOL    O6310179   6.957   4.263   7.398  0.0526 -0.2562 -0.4332
   19MOL    C6410180   6.970   4.365   7.310  0.6587  0.0891  0.6291
   19MOL    O6510181   7.053   4.377   7.221  0.0585  0.7677 -0.7293
   19MOL    C6610182   6.871   4.472   7.343 -0.4607  0.3505 -0.0610
   19MOL    C6710183   6.775   4.458   7.448  0.3903  0.5158  0.4395
   19MOL    C6810184   6.693   4.561   7.489 -0.0571 -0.0258  0.0276
   19MOL    C6910185   6.698   4.683   7.419 -0.4890 -0.0178 -0.2190
   19MOL    C7010186   6.612   4.801   7.456  0.0464 -0.5711  0.0786
   19MOL    O7110187   6.606   4.903   7.384 -0.5050  0.0883 -0.2586
   19MOL    C7210188   6.782   4.701   7.311 -0.2589 -0.0215  0.0331
   19MOL    C7310189   6.875   4.595   7.272 -0.1996  0.1690 -0.0058
   19MOL    H7410190   7.190   4.099   7.833 -0.7421 -0.3205  1.3120
   19MOL    H7510191   7.178   3.949   7.744  0.0296 -0.7789 -1.1333
   19MOL    H7610192   7.238   4.164   7.607  0.0628  0.4903 -0.0487
   19MOL    H7710193   7.083   4.232   7.662 -0.1807 -0.1582 -1.1601
   19MOL    H7810194   7.117   3.981   7.490 -0.7211  0.4477 -1.0267
   19MOL    H7910195   6.961   4.052   7.527 -1.2852 -0.6568 -1.7854
   19MOL    H8010196   7.154   4.218   7.371  1.0463 -0.9828 -0.2199
   19MOL    H8110197   7.039   4.109   7.303  0.0153 -0.0224  0.2082
   19MOL    H8210198   6.766   4.366   7.504  0.5076  1.1388  1.4925
   19MOL    H8310199   6.627   4.554   7.575  1.1036  3.9322  1.3223
   19MOL    H8410200   6.776   4.789   7.248  0.9450 -0.6148 -0.9312
   19MOL    H8510201   6.948   4.603   7.193 -0.4986  0.0047 -0.2989
   19MOL    O8610202   6.537   4.780   7.570 -0.2427 -0.9817 -0.2143
   19MOL    C8710203   6.465   4.897   7.630 -0.5614  0.7222 -0.9118
   19MOL    C8810204   6.321   4.885   7.583 -0.7855 -0.3379 -0.2973
   19MOL    C8910205   6.230   4.774   7.643 -0.5519 -0.2025 -0.0632
   19MOL    C9010206   6.276   4.637   7.585 -0.2473  0.0306  0.2191
   19MOL    O9110207   6.174   4.542   7.607 -0.5803  0.2744 -0.4653
   19MOL    C9210208   6.077   4.512   7.511  0.4907  0.1825  0.0277
   19MOL    O9310209   6.067   4.574   7.406 -0.1568 -0.7770  0.4375
   19MOL    C9410210   5.973   4.410   7.556  0.3692 -0.0092 -0.6607
   19MOL    C9510211   5.843   4.419   7.519 -0.1174 -0.0275  0.5324
   19MOL    C9610212   5.747   4.321   7.559 -0.6954 -0.2111  0.2100
   19MOL    C9710213   5.785   4.210   7.640 -0.3434  0.0812  0.0813
   19MOL    C9810214   5.687   4.115   7.674  0.1961  0.4320 -0.0756
   19MOL    O9910215   5.592   4.088   7.603 -0.3175 -0.3630  0.2385
   19MOL   C10010216   5.925   4.203   7.679 -0.2150 -0.2864 -0.4973
   19MOL   C10110217   6.014   4.303   7.637  0.4125  0.1438 -0.1372
   19MOL   H10210218   6.484   4.897   7.737 -0.9116  0.6028 -0.8473
   19MOL   H10310219   6.515   4.988   7.596  2.6597 -0.7556 -0.2690
   19MOL   H10410220   6.322   4.864   7.476  1.0377 -0.9570 -0.1783
   19MOL   H10510221   6.280   4.986   7.589  2.3365  0.8749  1.6276
   19MOL   H10610222   6.222   4.771   7.751  1.5119  1.2906  0.1695
   19MOL   H10710223   6.130   4.804   7.612 -0.6499 -0.0079  0.4341
   19MOL   H10810224   6.308   4.635   7.481 -0.9531 -0.6314  0.0062
   19MOL   H10910225   6.368   4.603   7.632  0.3207  1.8083  0.4261
   19MOL   H11010226   5.816   4.503   7.456 -2.9841  0.2032  2.0084
   19MOL   H11110227   5.644   4.340   7.536 -0.4296  1.9214  0.6033
   19MOL   H11210228   5.960   4.120   7.739 -0.7966 -1.9002 -2.3139
   19MOL   H11310229   6.117   4.285   7.664  0.5372 -0.6706 -1.1356
   19MOL   O11410230   5.735   4.031   7.767 -0.3035  0.3756 -0.3453
   19MOL   C11510231   5.675   3.908   7.801  0.1606 -0.0823 -0.0822
   19MOL   C11610232   5.702   3.796   7.695 -0.7431  0.1169 -0.1551
   19MOL   C11710233   5.851   3.759   7.664  0.6491  0.1292  0.5680
   19MOL   C11810234   5.927   3.721   7.793  0.0725 -0.5539  0.0100
   19MOL   O11910235   6.058   3.693   7.758 -0.4506  0.3259  0.2885
   19MOL   C12010236   6.161   3.779   7.761 -0.2579 -0.2955  0.2798
   19MOL   O12110237   6.141   3.899   7.769 -0.1799  0.0574  0.0003
   19MOL   C12210238   6.294   3.721   7.763  0.3117 -0.5924  0.2528
   19MOL   C12310239   6.316   3.586   7.790  0.8909 -0.5859 -0.2534
   19MOL   C12410240   6.445   3.537   7.786  0.1901  1.5341  0.2557
   19MOL   C12510241   6.554   3.626   7.774 -1.4818  1.0716 -0.3751
   19MOL   C12610242   6.693   3.573   7.781 -0.3752  0.4619  0.0184
   19MOL   O12710243   6.723   3.466   7.829 -0.1879  0.5865  0.5723
   19MOL   C12810244   6.539   3.763   7.744  0.0246  0.0023  1.3124
   19MOL   C12910245   6.407   3.805   7.738  0.1825  0.0930  0.3941
   19MOL   H13010246   5.741   3.872   7.879  0.3727 -1.7798 -1.0244
   19MOL   H13110247   5.568   3.905   7.822  0.0240 -2.9397 -1.0358
   19MOL   H13210248   5.661   3.834   7.601 -1.1752  1.9076  0.7219
   19MOL   H13310249   5.648   3.705   7.721  0.9295 -0.8493 -0.0315
   19MOL   H13410250   5.858   3.683   7.587 -0.0028 -1.8803  2.4409
   19MOL   H13510251   5.909   3.840   7.618 -0.7999  0.4112 -0.8026
   19MOL   H13610252   5.929   3.805   7.862  0.0630 -0.5488  0.0040
   19MOL   H13710253   5.886   3.640   7.853  1.3160  0.3841  2.1788
   19MOL   H13810254   6.242   3.511   7.815  2.1771 -1.6902  0.3639
   19MOL   H13910255   6.465   3.431   7.794 -0.9373  1.4606  2.3898
   19MOL   H14010256   6.625   3.824   7.718  0.6336 -0.8963  1.1820
   19MOL   H14110257   6.392   3.906   7.703 -1.1208 -0.7180 -1.4226
   19MOL   O14210258   6.780   3.658   7.738 -0.7975  0.1420  0.1262
   19MOL   C14310259   6.923   3.648   7.748 -0.5673 -0.1536 -0.3012
   19MOL   C14410260   6.982   3.715   7.628  0.0314 -0.1850  0.3806
   19MOL   C14510261   6.975   3.643   7.490 -0.0760  0.2916  0.8004
   19MOL   C14610262   7.008   3.728   7.364 -0.3221  0.1454  0.2045
   19MOL   O14710263   6.902   3.825   7.354 -0.5431 -0.1810 -0.1504
   19MOL   C14810264   6.876   3.884   7.234  0.7893 -0.6405 -0.0313
   19MOL   O14910265   6.921   3.847   7.124  0.1935  0.1585 -0.3660
   19MOL   C15010266   6.781   3.997   7.254  1.0703 -0.4429 -0.0294
   19MOL   C15110267   6.780   4.093   7.153  0.3535  0.0178 -0.1729
   19MOL   C15210268   6.687   4.199   7.159  0.3016  0.1799  0.8444
   19MOL   C15310269   6.600   4.213   7.272 -0.1950 -0.3017 -0.4980
   19MOL   C15410270   6.509   4.332   7.281 -0.3960  0.5372 -0.1730
   19MOL   O15510271   6.453   4.373   7.385 -0.1721  0.2418  0.2375
   19MOL   C15610272   6.606   4.125   7.376 -0.0372 -0.1638  0.3926
   19MOL   C15710273   6.693   4.015   7.363 -0.0451 -0.1692 -0.2377
   19MOL   H15810274   6.949   3.700   7.840 -0.1111 -2.0271  0.6691
   19MOL   H15910275   6.946   3.542   7.764 -1.5257 -0.2952  0.1421
   19MOL   H16010276   7.087   3.730   7.655  0.6253 -1.9756 -0.8307
   19MOL   H16110277   6.938   3.814   7.618  3.3154  1.1190 -2.5820
   19MOL   H16210278   7.026   3.547   7.491 -0.7375 -0.1199 -1.7184
   19MOL   H16310279   6.869   3.621   7.481  0.2244 -1.4795  1.4447
   19MOL   H16410280   7.105   3.779   7.366  0.2036 -0.8435  0.0325
   19MOL   H16510281   7.016   3.667   7.275  0.1313  1.0983 -0.4214
   19MOL   H16610282   6.835   4.077   7.061 -3.2828  0.1390 -2.4861
   19MOL   H16710283   6.692   4.272   7.079  0.1440 -0.6741  0.0559
   19MOL   H16810284   6.544   4.140   7.463 -1.0252  0.5990 -0.4203
   19MOL   H16910285   6.688   3.936   7.437  0.3406 -0.9312 -1.0189
   19MOL   O17010286   6.514   4.404   7.167 -0.3629 -0.1889 -0.5329
   19MOL   C17110287   6.452   4.532   7.171  0.3549  0.1981 -0.1828
   19MOL   C17210288   6.462   4.604   7.036 -0.2848  0.1848  0.7885
   19MOL   C17310289   6.603   4.616   6.971  0.1791 -0.2682 -0.5381
   19MOL   C17410290   6.599   4.729   6.870 -0.7753  0.2239 -0.3436
   19MOL   O17510291   6.583   4.855   6.932  0.2010  0.0004 -0.1947
   19MOL   C17610292   6.544   4.965   6.865  0.0778 -0.0653  0.5087
   19MOL   O17710293   6.524   4.975   6.742  0.0344 -0.6334  0.0044
   19MOL   C17810294   6.557   5.084   6.954 -0.4864 -0.0022  0.8911
   19MOL   C17910295   6.560   5.217   6.901 -0.4105  0.2088 -0.2964
   19MOL   C18010296   6.606   5.320   6.977  0.8633 -0.3333  0.5068
   19MOL   C18110297   6.638   5.303   7.112 -0.3054 -0.5642 -0.3053
   19MOL   C18210298   6.697   5.418   7.188 -0.8078 -0.1561 -0.6216
   19MOL   O18310299   6.739   5.524   7.144 -0.6090 -0.2387  0.0566
   19MOL   C18410300   6.620   5.177   7.176 -0.1421  0.2833 -0.0609
   19MOL   C18510301   6.587   5.067   7.096  0.1769 -0.3519 -0.7012
   19MOL   H18610302   6.352   4.533   7.215  0.5637 -1.3743  0.3536
   19MOL   H18710303   6.520   4.586   7.238 -0.5456 -0.3538  1.2028
   19MOL   H18810304   6.413   4.701   7.046 -1.2025 -0.0830 -0.9797
   19MOL   H18910305   6.397   4.556   6.963  0.4419  0.6768 -0.1772
   19MOL   H19010306   6.677   4.649   7.044 -3.3315  0.4479  2.8806
   19MOL   H19110307   6.644   4.525   6.927 -3.0374 -1.9219 -0.2094
   19MOL   H19210308   6.692   4.741   6.814  0.0940 -0.2133  0.9629
   19MOL   H19310309   6.524   4.708   6.794  0.5753 -1.4222 -1.2349
   19MOL   H19410310   6.536   5.230   6.796 -0.3399  0.3559 -0.2949
   19MOL   H19510311   6.616   5.410   6.917 -0.4683 -1.3308 -1.2460
   19MOL   H19610312   6.644   5.164   7.281 -1.0009  0.7323  0.1963
   19MOL   H19710313   6.596   4.967   7.136 -1.5949 -0.6534 -1.0296
   19MOL   O19810314   6.709   5.392   7.325  0.3643 -0.3384 -0.2951
   19MOL   C19910315   6.796   5.468   7.414  0.0606  0.3026  0.5731
   19MOL   C20010316   6.806   5.411   7.561 -0.1818  0.1577 -0.2743
   19MOL   C20110317   6.676   5.419   7.644  0.1566 -0.2101 -0.0494
   19MOL   C20210318   6.570   5.321   7.605  1.1320  0.3004 -0.2722
   19MOL   O20310319   6.477   5.338   7.711 -0.1446  0.4967 -0.2748
   19MOL   C20410320   6.441   5.244   7.799  0.3215  1.0901  0.4877
   19MOL   O20510321   6.506   5.140   7.805  0.4320 -0.0871 -0.0602
   19MOL   C20610322   6.337   5.288   7.898 -0.2085 -0.1624 -0.9588
   19MOL   C20710323   6.290   5.200   7.994  0.3120  0.7725  0.7418
   19MOL   C20810324   6.198   5.237   8.089  0.2812 -0.3319 -0.5376
   19MOL   C20910325   6.146   5.370   8.094 -0.0078  0.3766  0.5467
   19MOL   C21010326   6.049   5.413   0.098 -0.3365  0.2144  0.6407
   19MOL   O21110327   5.999   5.524   0.105  0.0169  0.1440  1.1143
   19MOL   C21210328   6.198   5.463   7.996 -0.1543 -0.1296  0.1749
   19MOL   C21310329   6.288   5.420   7.904  0.5730 -0.7913  0.5602
   19MOL   H21410330   6.895   5.446   7.375  0.3981 -0.0763  1.6304
   19MOL   H21510331   6.777   5.575   7.401  0.8411  0.7895  3.2327
   19MOL   H21610332   6.886   5.465   7.611  1.1627 -0.8645 -1.3016
   19MOL   H21710333   6.844   5.309   7.550 -2.2097 -0.7258  0.6403
   19MOL   H21810334   6.702   5.394   7.747 -3.1063  1.2506  1.2110
   19MOL   H21910335   6.632   5.519   7.635 -2.3863 -1.2343  0.5484
   19MOL   H22010336   6.533   5.344   7.505 -3.7707 -2.7029  0.6810
   19MOL   H22110337   6.599   5.216   7.595 -0.5715 -0.1717 -0.3426
   19MOL   H22210338   6.330   5.100   8.004 -1.0317  0.0503 -0.8699
   19MOL   H22310339   6.169   5.162   0.061 -0.7633 -0.4208 -1.0460
   19MOL   H22410340   6.164   5.566   7.990 -2.7648 -1.0155 -1.2803
   19MOL   H22510341   6.320   5.494   7.831 -0.0240 -0.4351  0.6549
   19MOL   O22610342   6.007   5.309   0.172  0.1063 -0.2489  0.0320
   19MOL   C22710343   5.902   5.326   0.259 -0.1733  0.0563  0.5467
   19MOL   C22810344   5.955   5.402   0.381  0.2978 -0.4241 -0.7107
   19MOL   C22910345   6.017   5.298   0.479 -0.0213 -0.2832 -0.0735
   19MOL   C23010346   6.015   5.369   0.616 -0.0230  0.4981  0.5354
   19MOL   O23110347   5.883   5.390   0.655  0.6719 -0.0454 -0.0758
   19MOL   C23210348   5.834   5.343   0.766  0.2271 -0.1643 -0.0053
   19MOL   O23310349   5.908   5.273   0.838 -0.5824 -0.3160  0.0509
   19MOL   C23410350   5.700   5.401   0.806  0.6327 -0.2861 -0.3171
   19MOL   C23510351   5.645   5.365   0.931  0.2451  0.4111  0.0591
   19MOL   C23610352   5.512   5.404   0.960 -1.0266  0.3448 -0.0241
   19MOL   C23710353   5.436   5.480   0.870  0.2747 -0.4750 -0.5512
   19MOL   C23810354   5.293   5.505   0.904  0.6630  0.8915  0.2959
   19MOL   O23910355   5.213   5.536   0.815  0.2746 -0.1423 -0.3151
   19MOL   C24010356   5.496   5.517   0.747  0.0001 -0.7399 -0.9957
   19MOL   C24110357   5.629   5.485   0.717  0.4629  0.2049 -0.3045
   19MOL   H24210358   5.819   5.374   0.206  0.5390 -0.7633 -1.3251
   19MOL   H24310359   5.867   5.229   0.294  2.8523 -1.0797  0.5636
   19MOL   H24410360   5.866   5.449   0.422  1.7551  3.3763 -1.6834
   19MOL   H24510361   6.029   5.479   0.356 -0.5278  1.0366  1.2549
   19MOL   H24610362   5.959   5.206   0.493 -0.0930 -0.1705  0.3787
   19MOL   H24710363   6.120   5.276   0.453 -0.0681 -1.1277  0.4266
   19MOL   H24810364   6.080   5.321   0.689 -1.1098 -2.7285 -0.5774
   19MOL   H24910365   6.044   5.474   0.605 -0.8442  1.1826  3.9463
   19MOL   H25010366   5.702   5.310   1.005  2.2305  1.5943 -0.5706
   19MOL   H25110367   5.470   5.381   1.057 -1.0223  1.2902  0.2076
   19MOL   H25210368   5.439   5.575   0.677  0.8185  0.3515 -0.7656
   19MOL   H25310369   5.670   5.530   0.627  0.4558 -0.9493 -0.8977
   19MOL   O25410370   5.260   5.484   1.029  0.2232 -0.3147 -0.2717
   19MOL   C25510371   5.129   5.506   1.079  0.2642  0.2724  0.2954
   19MOL   C25610372   5.133   5.463   1.218 -0.0277 -0.0247 -0.1855
   19MOL   C25710373   5.226   5.557   1.293 -0.1099  0.2660 -0.1733
   19MOL   C25810374   5.261   5.500   1.431  0.5398 -0.3311 -0.0291
   19MOL   O25910375   5.338   5.383   1.414  0.1026  0.0372  0.1553
   19MOL   C26010376   5.419   5.356   1.511  0.4334  0.3819 -0.2205
   19MOL   O26110377   5.432   5.421   1.616  0.7378  0.3440  0.0886
   19MOL   C26210378   5.489   5.226   1.486 -0.2046 -0.6200  0.0077
   19MOL   C26310379   5.454   5.127   1.387 -0.0504 -0.4464  0.0238
   19MOL   C26410380   5.503   5.001   1.406  0.0562 -0.7914 -0.1038
   19MOL   C26510381   5.601   4.961   1.500  0.4637 -0.1312  0.9490
   19MOL   C26610382   5.659   4.823   1.505  0.1891  0.5482 -0.0540
   19MOL   O26710383   5.610   4.726   1.447  0.0682 -0.0223 -0.3192
   19MOL   C26810384   5.638   5.061   1.588  0.5685  1.3667 -0.2669
   19MOL   C26910385   5.584   5.190   1.582  0.5374 -0.0964 -0.1080
   19MOL   H27010386   5.096   5.610   1.073 -0.7395 -0.1503 -2.6616
   19MOL   H27110387   5.056   5.451   1.020  0.4935 -0.9066  1.0966
   19MOL   H27210388   5.173   5.361   1.224  2.9739  1.1422  0.6006
   19MOL   H27310389   5.033   5.454   1.260 -1.0806 -1.5641 -2.8846
   19MOL   H27410390   5.311   5.590   1.233 -0.4685  0.4113 -0.6057
   19MOL   H27510391   5.169   5.650   1.304  1.4826  0.9978  2.3469
   19MOL   H27610392   5.308   5.583   1.484  2.0180 -0.0967 -1.6520
   19MOL   H27710393   5.166   5.490   1.483  0.7561 -2.0394  0.0760
   19MOL   H27810394   5.376   5.151   1.316 -1.1474  1.5371  1.8768
   19MOL   H27910395   5.498   4.927   1.328 -0.4319 -2.3629  1.3857
   19MOL   H28010396   5.695   5.032   1.675  1.5023  0.5254 -1.1557
   19MOL   H28110397   5.608   5.258   1.662  1.0025  1.2260 -1.3305
   19MOL   O28210398   5.758   4.815   1.594  0.0030 -0.2932  0.1921
   19MOL   C28310399   5.828   4.695   1.614  0.3682  0.0537  0.7761
   19MOL   C28410400   5.879   4.707   1.760 -0.3280  0.2503 -0.2692
   19MOL   C28510401   5.999   4.796   1.772  0.0407 -0.4548 -0.3983
   19MOL   C28610402   6.085   4.769   1.892  0.8574 -0.2142  0.1164
   19MOL   O28710403   6.170   4.882   1.911  0.0510  0.2249 -0.5120
   19MOL   C28810404   6.235   4.884   2.031  0.3506 -0.5618  0.2337
   19MOL   O28910405   6.231   4.799   2.119 -0.3913  0.3536  0.4800
   19MOL   C29010406   6.324   5.006   2.038  0.2787  0.4043  0.1151
   19MOL   C29110407   6.306   5.112   1.948  0.6501 -0.1879 -0.4261
   19MOL   C29210408   6.389   5.226   1.957  0.4565 -0.1087 -0.1713
   19MOL   C29310409   6.480   5.240   2.064 -0.4261 -0.5792 -0.1238
   19MOL   C29410410   6.548   5.373   2.090  0.0144 -0.2590  0.2814
   19MOL   O29510411   6.645   5.383   2.157  0.4355 -0.5313  0.1926
   19MOL   C29610412   6.509   5.131   2.150  0.3515  0.0610 -0.2028
   19MOL   C29710413   6.429   5.014   2.129  0.0323 -0.3694 -1.2385
   19MOL   H29810414   5.766   4.605   1.613  1.8250 -0.9880  1.6607
   19MOL   H29910415   5.900   4.674   1.535 -0.2824 -0.4514  0.3095
   19MOL   H30010416   5.918   4.611   1.794 -2.9047 -1.5909 -2.1982
   19MOL   H30110417   5.802   4.739   1.830  1.4720  1.1704  1.3027
   19MOL   H30210418   6.072   4.807   1.692  0.3899 -0.0024 -0.0151
   19MOL   H30310419   5.962   4.896   1.790  0.2470 -0.3674 -0.4666
   19MOL   H30410420   6.029   4.748   1.983  1.2362  2.6484  1.0416
   19MOL   H30510421   6.144   4.681   1.864  0.7783 -0.3457  0.3642
   19MOL   H30610422   6.231   5.095   1.872 -1.1174  2.1805  0.7131
   19MOL   H30710423   6.392   5.305   1.884 -0.5035 -2.2696 -2.6302
   19MOL   H30810424   6.575   5.145   2.235 -0.7786 -1.8653  1.0374
   19MOL   H30910425   6.452   4.924   2.184 -0.1222  0.2768 -0.1140
   19MOL   O31010426   6.502   5.478   2.017 -0.6225  0.5967  0.3341
   19MOL   C31110427   6.562   5.600   2.024 -0.0893 -0.0966 -0.1582
   19MOL   C31210428   6.452   5.688   2.066  0.9454  0.5022 -0.2320
   19MOL   C31310429   6.490   5.838   2.065 -0.5486  0.0244 -0.4248
   19MOL   C31410430   6.370   5.932   2.031  0.4932  0.3820 -0.6831
   19MOL   O31510431   6.258   5.895   2.097  0.4526 -0.0630  0.3962
   19MOL   C31610432   6.227   5.944   2.225 -0.4077  0.3205  0.3045
   19MOL   O31710433   6.299   6.019   2.283  0.0193  0.2137  0.6618
   19MOL   C31810434   6.094   5.894   2.276  0.2473  0.3117  0.7259
   19MOL   C31910435   6.062   5.933   2.410  0.0731  0.4207  0.4830
   19MOL   C32010436   5.939   5.890   2.462 -0.5231 -0.3443  0.4042
   19MOL   C32110437   5.855   5.803   2.393 -0.0537  0.3641  0.3283
   19MOL   C32210438   5.733   5.740   2.463 -0.5529 -0.6887  1.1829
   19MOL   O32310439   5.647   5.675   2.406  0.3328 -0.1096  0.7622
   19MOL   C32410440   5.876   5.776   2.257 -0.4291  0.3046  0.4674
   19MOL   C32510441   6.000   5.816   2.198  0.4329 -0.0338 -0.1200
   19MOL   H32610442   6.650   5.606   2.088 -0.2535 -0.0899  0.0670
   19MOL   H32710443   6.594   5.622   1.922  0.7116  0.1162  0.1339
   19MOL   H32810444   6.417   5.656   2.164  0.8766  1.2205 -0.0190
   19MOL   H32910445   6.363   5.684   2.003  0.2529  0.5076  0.7366
   19MOL   H33010446   6.527   5.867   2.164 -3.0093 -0.8667  0.7890
   19MOL   H33110447   6.565   5.849   1.986  1.9574 -3.2945  1.3398
   19MOL   H33210448   6.392   6.037   2.050  2.3568  0.0654 -0.9965
   19MOL   H33310449   6.355   5.925   1.923 -0.4434  1.8935 -0.6704
   19MOL   H33410450   6.135   5.980   2.474  1.7636 -1.1970 -0.2009
   19MOL   H33510451   5.920   5.918   2.565 -0.3725 -1.3896  0.7215
   19MOL   H33610452   5.818   5.706   2.198 -0.8609  1.9087 -1.0691
   19MOL   H33710453   6.018   5.788   2.095 -2.3420 -0.3814 -0.5324
   19MOL   O33810454   5.733   5.762   2.595 -0.2612 -0.3609  0.0045
   19MOL   C33910455   5.618   5.724   2.659  0.1411  0.5304 -1.1605
   19MOL   C34010456   5.608   5.772   2.808 -0.5679  0.0755  0.7528
   19MOL   C34110457   5.469   5.816   2.848 -0.4287 -0.5042 -0.2661
   19MOL   C34210458   5.479   5.874   2.992 -0.3768 -0.0773 -0.3825
   19MOL   O34310459   5.533   6.006   3.004  0.1721 -0.2319 -0.1415
   19MOL   C34410460   5.544   6.070   3.134 -0.6923 -0.1870 -0.0896
   19MOL   O34510461   5.494   6.025   3.237  0.4495 -0.0888  0.5852
   19MOL   C34610462   5.624   6.190   3.123 -0.4983  0.1759  0.6679
   19MOL   C34710463   5.724   6.203   3.028 -0.3050  0.1205  0.6271
   19MOL   C34810464   5.802   6.320   3.012 -0.0438 -0.1883 -0.8576
   19MOL   C34910465   5.770   6.432   3.086  0.0623  0.0585  0.1467
   19MOL   C35010466   5.833   6.564   3.067 -0.2501  0.1063  0.5073
   19MOL   O35110467   5.799   6.662   3.135  0.8687  0.1578 -0.4345
   19MOL   C35210468   5.676   6.417   3.189 -0.1708  0.2031 -0.0708
   19MOL   C35310469   5.599   6.302   3.206  0.0557  0.3578 -0.2326
   19MOL   H35410470   5.535   5.762   2.600 -0.4143  1.6253  0.2995
   19MOL   H35510471   5.597   5.617   2.659  2.5302 -0.0324  2.1457
   19MOL   H35610472   5.684   5.849   2.816 -0.1016 -0.1379 -1.4507
   19MOL   H35710473   5.633   5.692   2.878 -1.2732  0.5178  1.5275
   19MOL   H35810474   5.434   5.893   2.779 -1.7228 -0.9757 -0.1553
   19MOL   H35910475   5.402   5.731   2.841 -0.6459 -0.2544 -1.3011
   19MOL   H36010476   5.383   5.856   3.040  0.0068 -1.2854 -0.0491
   19MOL   H36110477   5.541   5.802   3.045  0.3274  1.7938  1.4290
   19MOL   H36210478   5.746   6.120   2.962 -1.2337 -1.0059  1.7063
   19MOL   H36310479   5.875   6.310   2.933  0.0068 -2.3772 -0.5803
   19MOL   H36410480   5.647   6.499   3.252  1.6116  0.1185  0.8836
   19MOL   H36510481   5.516   6.298   3.275  1.2962 -0.5450  1.2349
   19MOL   O36610482   5.945   6.558   2.993  0.3414 -0.0071  0.8603
   19MOL   C36710483   6.029   6.672   2.984 -0.2097  0.2612  0.0325
   19MOL   C36810484   6.168   6.616   3.002 -0.0073 -0.4166  0.4770
   19MOL   C36910485   6.215   6.541   3.128  0.0639  0.4148  0.1631
   19MOL   C37010486   6.364   6.485   3.137  0.5280  0.1316  0.6255
   19MOL   O37110487   6.457   6.592   3.113  0.8995 -0.0885 -0.6720
   19MOL   C37210488   6.590   6.553   3.090  0.6276  0.4341 -0.1463
   19MOL   O37310489   6.625   6.434   3.105  0.7885  0.0618  0.3023
   19MOL   C37410490   6.676   6.670   3.048  0.4417 -0.4034 -0.0573
   19MOL   C37510491   6.612   6.798   3.040  0.3550  0.0605  0.4242
   19MOL   C37610492   6.689   6.900   2.984  0.0030 -0.9450  1.1733
   19MOL   C37710493   6.821   6.882   2.931  0.1068 -0.6351  0.2872
   19MOL   C37810494   6.888   6.993   2.870 -0.1725  0.1101  0.2328
   19MOL   O37910495   7.008   7.000   2.850  0.1863  0.4141  0.2136
   19MOL   C38010496   6.878   6.757   2.948 -0.7016  0.2742 -0.0800
   19MOL   C38110497   6.808   6.647   2.997 -0.0697 -0.2259  0.2812
   19MOL   H38210498   6.012   6.718   2.887  0.1024 -1.0417 -0.6482
   19MOL   H38310499   6.006   6.759   3.046  2.1383 -0.4797  1.9993
   19MOL   H38410500   6.236   6.700   2.989  2.0070 -1.9923  0.5028
   19MOL   H38510501   6.186   6.562   2.909 -2.7967 -1.6445  0.6035
   19MOL   H38610502   6.211   6.612   3.211 -1.3413 -0.2829  0.7127
   19MOL   H38710503   6.134   6.477   3.164 -0.0726  1.0472  1.0021
   19MOL   H38810504   6.384   6.442   3.235 -1.1439  1.8877  1.7728
   19MOL   H38910505   6.376   6.411   3.057  0.2280  0.7684 -0.0167
   19MOL   H39010506   6.511   6.815   3.073 -0.5164  0.6743 -2.4399
   19MOL   H39110507   6.637   6.994   2.977  0.5560 -0.6741  0.6233
   19MOL   H39210508   6.983   6.744   2.923 -0.7782 -0.7434  0.1107
   19MOL   H39310509   6.850   6.549   2.982 -2.2421 -1.4228  1.9587
   19MOL   O39410510   6.810   7.090   2.816 -0.5305 -0.1332  0.5761
   19MOL   C39510511   6.868   7.210   2.769  0.6700 -0.5230 -0.0745
   19MOL   C39610512   6.768   7.304   2.709 -0.3913  0.2207 -0.4453
   19MOL   C39710513   6.742   7.275   2.553 -0.3101 -0.4251 -0.4127
   19MOL   C39810514   6.657   7.374   2.476  0.4750 -0.8655  0.5122
   19MOL   O39910515   6.518   7.336   2.476 -0.3483 -0.0612  0.2290
   19MOL   C40010516   6.472   7.251   2.388 -0.0642  0.7028  0.0344
   19MOL   O40110517   6.540   7.199   2.302  0.1883 -0.4908 -0.4540
   19MOL   C40210518   6.327   7.229   2.400 -0.2773  0.4636 -0.3340
   19MOL   C40310519   6.263   7.157   2.297  0.4328  0.2481  0.4803
   19MOL   C40410520   6.123   7.132   2.305  0.0507 -0.3436  0.7168
   19MOL   C40510521   6.046   7.186   2.413  0.6337 -0.0380 -0.0406
   19MOL   C40610522   5.897   7.169   2.427 -0.1553  0.3009 -1.0044
   19MOL   O40710523   5.832   7.242   2.504  0.4369 -0.3061  0.5390
   19MOL   C40810524   6.110   7.261   2.513  0.0792  0.3661  0.2286
   19MOL   C40910525   6.251   7.275   2.511 -0.2175 -0.6136 -0.2569
   19MOL   H41010526   6.899   7.264   2.859 -1.7638  2.2767 -0.8132
   19MOL   H41110527   6.954   7.191   2.704 -0.9911 -1.1521 -2.1353
   19MOL   H41210528   6.806   7.406   2.715  2.2862 -0.8611  2.0606
   19MOL   H41310529   6.682   7.307   2.776 -0.3400  0.1283 -0.3755
   19MOL   H41410530   6.830   7.258   2.490  0.9769 -0.7088  1.3904
   19MOL   H41510531   6.694   7.178   2.541 -0.1348 -0.5379 -0.2195
   19MOL   H41610532   6.673   7.476   2.510 -1.2919 -0.7064  0.8870
   19MOL   H41710533   6.699   7.378   2.376  1.3957 -1.0931  0.8873
   19MOL   H41810534   6.315   7.118   2.211 -0.7928  0.0318 -0.1704
   19MOL   H41910535   6.073   7.076   2.228  0.0659 -0.1503  0.5682
   19MOL   H42010536   6.053   7.306   2.592  1.2084 -0.3405  1.4830
   19MOL   H42110537   6.302   7.334   2.586  2.8235 -2.4748 -0.7452
   19MOL   O42210538   5.852   7.066   2.354  0.8700  0.0980  0.5127
   19MOL   C42310539   5.719   7.061   2.322 -0.3549 -0.0395  0.7521
   19MOL   C42410540   5.698   7.111   2.178  0.6112  0.4136  0.5705
   19MOL   C42510541   5.712   6.985   2.093  0.0134  0.1915  0.4203
   19MOL   C42610542   5.753   7.009   1.946 -0.0130  0.2673  0.6647
   19MOL   O42710543   5.890   7.063   1.935  0.1109  0.2745 -0.0447
   19MOL   C42810544   5.990   6.974   1.934  0.6120  0.2150 -0.7752
   19MOL   O42910545   5.968   6.851   1.933 -0.7544  0.6605 -0.2572
   19MOL   C43010546   6.125   7.041   1.939  0.1555 -0.1171 -0.3347
   19MOL   C43110547   6.237   6.966   1.956  0.5109  0.1583  0.2293
   19MOL   C43210548   6.362   7.023   1.949  0.5520 -0.0745 -0.0807
   19MOL   C43310549   6.383   7.163   1.947 -0.6752  0.0022 -0.1778
   19MOL   C43410550   6.518   7.220   1.961  0.0493  0.2863 -0.7149
   19MOL   O43510551   6.621   7.163   1.992  0.3503 -0.0721 -0.0446
   19MOL   C43610552   6.273   7.244   1.934  0.8831 -0.4108  0.5152
   19MOL   C43710553   6.144   7.181   1.927  0.2294 -0.1078 -0.0525
   19MOL   H43810554   5.687   6.957   2.327  1.3179 -0.5423  1.2822
   19MOL   H43910555   5.657   7.105   2.400  1.6675  1.4162  1.5764
   19MOL   H44010556   5.769   7.191   2.159  0.2772  0.8290  1.0531
   19MOL   H44110557   5.601   7.160   2.167  0.4435  0.1596  0.9098
   19MOL   H44210558   5.795   6.936   2.143 -0.2670  1.2724  2.0081
   19MOL   H44310559   5.622   6.925   2.110  0.6447 -0.4383  1.6184
   19MOL   H44410560   5.760   6.913   1.896 -0.5606  0.5252  0.0853
   19MOL   H44510561   5.687   7.068   1.882 -0.3562 -1.1915 -0.3355
   19MOL   H44610562   6.219   6.861   1.975  1.0741 -0.2506 -1.4785
   19MOL   H44710563   6.448   6.960   1.967  0.0939 -0.3495  1.1544
   19MOL   H44810564   6.283   7.351   1.940  3.0019 -0.3514 -2.5167
   19MOL   H44910565   6.065   7.253   1.916 -0.2011 -0.6470 -0.5612
   19MOL   O45010566   6.518   7.351   1.947 -0.0379 -0.3726  0.0726
   19MOL   C45110567   6.636   7.426   1.968  0.5406  0.1334  0.7335
   19MOL   C45210568   6.604   7.545   2.072 -0.0563 -0.4874  0.0003
   19MOL   C45310569   6.743   7.623   2.111  0.2708 -0.6642 -0.1312
   19MOL   C45410570   6.708   7.748   2.184  0.2183 -0.0840 -0.4092
   19MOL   O45510571   6.638   7.732   2.302 -0.3914  0.2698  0.0534
   19MOL   C45610572   6.656   7.802   2.410 -0.3093 -0.0934 -0.1264
   19MOL   O45710573   6.765   7.850   2.443 -0.2107 -0.2226  0.0927
   19MOL   C45810574   6.528   7.818   2.490  0.8320 -0.2369 -0.7981
   19MOL   C45910575   6.424   7.732   2.463  0.2676 -0.4232  0.0007
   19MOL   C46010576   6.301   7.734   2.532  0.5631 -0.1421  0.2092
   19MOL   C46110577   6.294   7.806   2.651  0.5427 -0.3508 -0.0554
   19MOL   C46210578   6.174   7.804   2.733 -0.0571 -0.4410  0.1770
   19MOL   O46310579   6.165   7.869   2.836 -0.5880 -0.6707 -0.0862
   19MOL   C46410580   6.404   7.890   2.689 -0.6021 -0.1972 -0.6900
   19MOL   C46510581   6.521   7.901   2.606  1.1364 -0.0251  0.1817
   19MOL   H46610582   6.718   7.367   2.008  0.3899 -0.8445 -0.3873
   19MOL   H46710583   6.664   7.460   1.868 -0.6585  1.1421  0.7254
   19MOL   H46810584   6.568   7.510   2.169 -1.0374  0.1724 -0.1175
   19MOL   H46910585   6.525   7.614   2.042  0.0101 -0.8513 -1.0345
   19MOL   H47010586   6.801   7.562   2.179 -0.2450  0.8298  1.6848
   19MOL   H47110587   6.792   7.650   2.018 -1.0108 -0.6892 -0.8359
   19MOL   H47210588   6.801   7.800   2.206 -0.1734  0.2625  0.4498
   19MOL   H47310589   6.659   7.818   2.117 -3.6179  0.3343  2.6377
   19MOL   H47410590   6.438   7.663   2.382  1.4058  1.4680 -1.4863
   19MOL   H47510591   6.223   7.665   2.503  0.0061 -0.2912  2.0090
   19MOL   H47610592   6.393   7.953   2.776 -1.8789 -0.8164 -0.3965
   19MOL   H47710593   6.602   7.955   2.653  0.4852  0.6109  0.5975
   19MOL   O47810594   6.073   7.720   2.677 -0.1717  0.2740 -0.0349
   19MOL   C47910595   5.959   7.695   2.761 -0.3227  0.2956  0.1286
   19MOL   C48010596   5.883   7.580   2.695 -0.5405  0.0631 -0.4105
   19MOL   C48110597   5.797   7.511   2.802  0.8401  0.0057 -0.3401
   19MOL   C48210598   5.711   7.386   2.765 -0.1051 -0.4323 -0.2710
   19MOL   O48310599   5.615   7.359   2.871 -0.0090  0.0845 -0.4704
   19MOL   C48410600   5.506   7.434   2.891  0.0966 -0.3677  0.5392
   19MOL   O48510601   5.473   7.527   2.814 -0.2415  0.3839 -0.4373
   19MOL   C48610602   5.432   7.401   3.012  0.0948 -0.1951 -0.1426
   19MOL   C48710603   5.477   7.292   3.092 -0.8101  0.6254 -0.2507
   19MOL   C48810604   5.415   7.268   3.214  0.3040 -0.8042 -0.5467
   19MOL   C48910605   5.312   7.350   3.268  0.6127  0.2414  0.3803
   19MOL   C49010606   5.264   7.323   3.405  0.2324  0.2126 -0.1310
   19MOL   O49110607   5.295   7.229   3.477 -0.3274  0.3460 -0.5715
   19MOL   C49210608   5.267   7.457   3.188 -0.0851  0.5253  0.2073
   19MOL   C49310609   5.328   7.486   3.062  0.8093 -0.5169  0.4101
   19MOL   H49410610   5.999   7.669   2.859  1.1142  1.3328 -0.1687
   19MOL   H49510611   5.901   7.788   2.766  0.3161  0.9706 -3.4057
   19MOL   H49610612   5.956   7.510   2.655 -0.6319  0.3464 -1.0936
   19MOL   H49710613   5.821   7.628   2.619 -0.3355 -0.8883 -1.1907
   19MOL   H49810614   5.845   7.494   2.898 -1.4049  1.2084  1.0406
   19MOL   H49910615   5.722   7.585   2.833 -0.8313 -1.0700 -1.7115
   19MOL   H50010616   5.668   7.397   2.665  2.2087  1.3085 -1.1313
   19MOL   H50110617   5.779   7.302   2.752 -1.0323 -1.1264 -0.7444
   19MOL   H50210618   5.554   7.224   3.058 -1.3137  1.1683 -2.5834
   19MOL   H50310619   5.454   7.185   3.272 -0.7705  0.2659  1.7382
   19MOL   H50410620   5.188   7.525   3.216  0.8080  1.7349 -0.1609
   19MOL   H50510621   5.296   7.576   3.010 -3.2551 -1.7419  0.6035
   19MOL   O50610622   5.172   7.420   3.442 -0.5323  0.1092 -0.5806
   19MOL   C50710623   5.126   7.428   3.580  0.2350  0.6784 -0.4565
   19MOL   C50810624   5.004   7.342   3.611  0.2265  0.4684 -0.0501
   19MOL   C50910625   4.880   7.374   3.531 -0.2692  0.3018  0.2806
   19MOL   C51010626   4.783   7.253   3.520  0.1708 -0.1570  0.6560
   19MOL   O51110627   4.679   7.233   3.619  0.0241  0.4338 -0.1925
   19MOL   C51210628   4.705   7.187   3.745  0.6787  0.2348  0.2681
   19MOL   O51310629   4.806   7.127   3.770 -0.4346  0.0229 -0.7348
   19MOL   C51410630   4.588   7.205   3.838  0.7246  0.5563  0.4975
   19MOL   C51510631   4.602   7.150   3.970 -0.5427  0.8113  0.5177
   19MOL   C51610632   4.490   7.175   4.063  0.7600  0.5028 -0.5680
   19MOL   C51710633   4.373   7.244   4.027 -1.0150 -0.0617 -0.2774
   19MOL   C51810634   4.259   7.254   4.123 -0.2646  0.3449  0.2317
   19MOL   O51910635   4.267   7.219   4.237 -0.0171 -0.1458  0.5012
   19MOL   C52010636   4.365   7.308   3.901  0.3876 -0.2629  0.8061
   19MOL   C52110637   4.469   7.281   3.806 -0.9324 -0.1945  0.0501
   19MOL   H52210638   5.208   7.400   3.646  0.6179  2.5213 -0.1173
   19MOL   H52310639   5.101   7.532   3.601 -0.8079  0.2843  0.2544
   19MOL   H52410640   4.973   7.342   3.715 -1.5629 -0.6638 -0.5538
   19MOL   H52510641   5.035   7.240   3.592  0.5651  0.2319  1.7271
   19MOL   H52610642   4.824   7.452   3.582 -1.7013  1.3585 -2.8035
   19MOL   H52710643   4.911   7.404   3.431  0.3870  1.1600  0.7382
   19MOL   H52810644   4.739   7.272   3.422  0.1913  0.5183  0.7726
   19MOL   H52910645   4.845   7.164   3.507  1.2591  0.5593  0.8406
   19MOL   H53010646   4.691   7.096   3.997 -0.6743  0.2218 -0.2346
   19MOL   H53110647   4.516   7.140   4.162  2.6045 -2.0495 -1.9009
   19MOL   H53210648   4.284   7.370   3.867  2.9787  3.7623  1.6574
   19MOL   H53310649   4.465   7.334   3.712  2.7286  0.5895  0.2410
   19MOL   O53410650   4.158   7.322   4.074 -0.3236  0.2026  0.2398
   19MOL   C53510651   4.039   7.335   4.153 -0.6258  0.4828 -0.5775
   19MOL   C53610652   3.945   7.454   4.107 -0.1913 -0.1549 -0.1873
   19MOL   C53710653   3.824   7.481   4.203 -0.2566 -0.0075  0.3867
   19MOL   C53810654   3.720   7.570   4.132 -0.7659  0.7647 -0.3502
   19MOL   O53910655   3.591   7.574   4.190 -0.1729  0.2172 -0.3742
   19MOL   C54010656   3.482   7.571   4.117 -0.3270  0.3925  0.0415
   19MOL   O54110657   3.474   7.541   4.001  0.8065 -0.1039 -0.6183
   19MOL   C54210658   3.358   7.604   4.194  0.1307  0.5330  0.1829
   19MOL   C54310659   3.360   7.609   4.336 -0.1366 -0.0925 -0.1859
   19MOL   C54410660   3.245   7.654   4.403  0.0431 -0.1409 -0.7344
   19MOL   C54510661   3.126   7.689   4.336  0.1876  0.1687  0.2847
   19MOL   C54610662   3.004   7.725   4.411 -0.0276 -0.2201 -0.8540
   19MOL   O54710663   2.902   7.772   4.366  0.4900  0.0064 -0.2319
   19MOL   C54810664   3.125   7.675   4.194  0.4121 -0.9648 -0.2154
   19MOL   C54910665   3.243   7.636   4.123  0.2381 -0.3094  0.6161
   19MOL   H55010666   4.001   7.234   4.141  0.7317 -0.4955  2.7366
   19MOL   H55110667   4.067   7.351   4.257  1.8336  2.0994 -1.4402
   19MOL   H55210668   3.899   7.435   4.010  0.8849 -0.2028 -0.7076
   19MOL   H55310669   4.007   7.544   4.106  1.2069 -1.0500  1.9251
   19MOL   H55410670   3.768   7.392   4.228  0.5411 -0.3936  0.8133
   19MOL   H55510671   3.858   7.515   4.301  0.0146 -0.3924  0.4280
   19MOL   H55610672   3.765   7.668   4.120 -1.6163  1.1523 -0.4141
   19MOL   H55710673   3.703   7.540   4.029 -0.1049  1.2686 -0.6069
   19MOL   H55810674   3.445   7.577   4.395  0.4358 -0.1736 -1.0459
   19MOL   H55910675   3.253   7.658   4.511 -1.0560  1.6746 -0.7074
   19MOL   H56010676   3.035   7.703   4.142 -0.1178 -0.4901  0.9314
   19MOL   H56110677   3.244   7.627   4.016  2.3001  0.3457  0.5571
   19MOL   H56210678   3.005   7.716   4.520 -0.3311 -1.0790 -0.9141
   20MOL     O110679   0.092   1.592   0.544  0.1596  0.3792  0.2613
   20MOL     C210680   0.080   1.463   0.484 -0.2567  0.2034 -0.8878
   20MOL     C310681   0.105   1.460   0.333 -0.5909  0.1908  0.5716
   20MOL     C410682   8.095   1.540   0.257  0.4405  0.4284 -0.1654
   20MOL     C510683   0.028   1.580   0.117 -0.1967  0.1203 -0.3893
   20MOL     O610684   0.059   1.478   0.021 -0.5550 -0.3513 -0.1227
   20MOL     C710685   0.180   1.421   0.013  0.0060 -0.3775 -0.3952
   20MOL     O810686   0.274   1.442   0.086 -0.3074  0.1817 -0.4058
   20MOL     C910687   0.184   1.327   7.995 -0.1315 -0.2268  0.3585
   20MOL    C1010688   0.286   1.233   7.989 -0.4342 -0.2293  0.0389
   20MOL    C1110689   0.291   1.139   7.889 -0.0581 -0.1746 -0.0192
   20MOL    C1210690   0.212   1.162   7.771 -0.5477  0.5134  0.0009
   20MOL    C1310691   0.234   1.075   7.654  0.2673  0.0982 -0.2645
   20MOL    O1410692   0.158   1.077   7.558 -0.2480 -1.0481  0.0002
   20MOL    C1510693   0.106   1.253   7.777  0.0895  0.4812 -0.2720
   20MOL    C1610694   0.088   1.332   7.890  0.3054 -0.0887 -0.7729
   20MOL    H1710695   0.151   1.396   0.531 -0.7447 -1.8491 -2.9955
   20MOL    H1810696   8.080   1.426   0.513 -0.3228  2.0351  1.3975
   20MOL    H1910697   0.090   1.356   0.307 -1.2802  0.5690 -0.6207
   20MOL    H2010698   0.206   1.495   0.313 -0.5676  0.2076  0.7208
   20MOL    H2110699   7.992   1.505   0.265  0.4988  0.4379  0.7274
   20MOL    H2210700   8.085   1.630   0.317  0.5021  0.0900  0.3555
   20MOL    H2310701   8.036   1.624   0.075 -0.5952  1.1834  1.5022
   20MOL    H2410702   0.113   1.649   0.126 -1.0656  1.2804 -0.9928
   20MOL    H2510703   0.359   1.223   8.067  0.5819 -2.2010 -1.1033
   20MOL    H2610704   0.371   1.067   7.889  2.1425  2.1836  0.2830
   20MOL    H2710705   0.040   1.261   7.692 -0.2335 -2.9017 -0.4334
   20MOL    H2810706   0.006   1.402   7.894 -1.5426 -2.2367 -0.6794
   20MOL    H2910707   0.011   1.601   0.591  0.4327 -2.0965  1.3067
   20MOL    O3010708   0.346   0.995   7.662  0.6148 -0.3561  0.1537
   20MOL    C3110709   0.349   0.875   7.583 -0.1841 -0.1901 -0.0850
   20MOL    C3210710   0.442   0.888   7.454 -0.0716 -0.1462 -0.2334
   20MOL    C3310711   0.462   0.753   7.384 -0.6925 -0.1291 -0.8758
   20MOL    C3410712   0.562   0.754   7.269  0.0779 -0.4089  0.0072
   20MOL    O3510713   0.526   0.837   7.166  0.2964 -0.3197  0.3053
   20MOL    C3610714   0.571   0.812   7.035  0.0222  0.7692 -0.0136
   20MOL    O3710715   0.640   0.719   6.998 -0.1488  0.4571  0.4354
   20MOL    C3810716   0.525   0.916   6.941 -0.3211 -0.1591  0.4468
   20MOL    C3910717   0.555   0.903   6.805  0.2863  0.2204  0.1357
   20MOL    C4010718   0.502   0.986   6.705  0.1185 -0.5219  0.1809
   20MOL    C4110719   0.433   1.102   6.750  0.8873 -0.3600  0.4153
   20MOL    C4210720   0.393   1.208   6.655  0.5006 -0.0604 -0.4389
   20MOL    O4310721   0.334   1.314   6.683 -0.0767  0.6508  0.0114
   20MOL    C4410722   0.393   1.113   6.885 -0.2360 -0.7651 -0.1360
   20MOL    C4510723   0.451   1.027   6.984  0.6640  0.1869 -0.0239
   20MOL    H4610724   0.373   0.789   7.646  1.2245 -1.7983 -2.7285
   20MOL    H4710725   0.246   0.845   7.563 -0.7001 -0.2358  2.3869
   20MOL    H4810726   0.537   0.930   7.486 -0.6617  2.2946 -1.5412
   20MOL    H4910727   0.404   0.958   7.380  2.3707 -2.2112 -3.5725
   20MOL    H5010728   0.482   0.672   7.454 -0.8780  0.4874 -0.0994
   20MOL    H5110729   0.365   0.727   7.341 -1.2999 -0.2844  0.5584
   20MOL    H5210730   0.660   0.771   7.313  1.4582  0.6788 -3.3273
   20MOL    H5310731   0.571   0.658   7.217 -1.3824 -1.1005  0.9749
   20MOL    H5410732   0.611   0.816   6.773  2.1689  1.1805  0.7582
   20MOL    H5510733   0.518   0.971   6.599  0.3649 -2.5962  0.4967
   20MOL    H5610734   0.336   1.197   6.921 -0.6187 -0.9014 -0.4318
   20MOL    H5710735   0.422   1.046   7.086  1.3747 -1.5362  0.5238
   20MOL    O5810736   0.420   1.176   6.531  0.4923 -0.0387  0.1749
   20MOL    C5910737   0.369   1.249   6.418  0.1872  0.2417  0.1978
   20MOL    C6010738   0.391   1.159   6.295 -0.5671  0.4256 -0.0363
   20MOL    C6110739   0.537   1.170   6.259 -0.2668 -0.1492  0.0509
   20MOL    C6210740   0.554   1.076   6.138  0.8276 -0.0743  0.3595
   20MOL    O6310741   0.686   1.101   6.078  0.3167  0.0343  0.1468
   20MOL    C6410742   0.706   1.115   5.940 -0.7427 -0.3461 -0.2142
   20MOL    O6510743   0.610   1.129   5.867  0.0310 -0.0542 -0.2181
   20MOL    C6610744   0.849   1.121   5.893  0.7595 -1.1274 -0.9006
   20MOL    C6710745   0.863   1.120   5.759 -0.1793 -0.2150 -0.3024
   20MOL    C6810746   0.986   1.133   5.702 -0.1810  0.4399 -0.0041
   20MOL    C6910747   1.103   1.137   5.783 -0.5201  0.2164 -0.4940
   20MOL    C7010748   1.239   1.150   5.722 -0.4596  0.0341  0.0220
   20MOL    O7110749   1.264   1.107   5.608 -0.5465 -0.3622  0.0473
   20MOL    C7210750   1.085   1.126   5.928 -0.8401 -0.5623  0.2766
   20MOL    C7310751   0.959   1.122   5.982 -0.0880 -0.3208  0.8737
   20MOL    H7410752   0.262   1.270   6.429  0.6142  2.3776  0.3785
   20MOL    H7510753   0.421   1.343   6.405 -0.1314  0.1729 -1.6954
   20MOL    H7610754   0.339   1.198   6.208 -0.8078  1.0933  0.3986
   20MOL    H7710755   0.366   1.055   6.310 -1.2458  0.2856 -2.1046
   20MOL    H7810756   0.572   1.270   6.232  1.6758 -1.1082 -1.1346
   20MOL    H7910757   0.603   1.136   6.338  1.9179  0.0413 -1.6497
   20MOL    H8010758   0.554   0.978   6.185  1.2489 -0.2228  0.0546
   20MOL    H8110759   0.481   1.080   6.057 -0.7529  2.3480  1.8619
   20MOL    H8210760   0.780   1.117   5.689  0.2358 -2.8483 -0.7404
   20MOL    H8310761   0.988   1.138   5.594 -0.3073 -0.0861 -0.0334
   20MOL    H8410762   1.164   1.128   6.002  1.6044 -0.3250 -2.2434
   20MOL    H8510763   0.949   1.113   6.090 -0.9950 -1.4906  0.6998
   20MOL    O8610764   1.326   1.219   5.796 -0.5386  0.1521  0.0337
   20MOL    C8710765   1.458   1.245   5.749 -0.1642  0.6453  0.0439
   20MOL    C8810766   1.538   1.309   5.861  0.2079  0.6059 -0.1189
   20MOL    C8910767   1.578   1.198   5.966  0.2704 -0.5803  0.2556
   20MOL    C9010768   1.647   1.261   6.083 -0.5396 -0.0675 -0.2875
   20MOL    O9110769   1.561   1.349   6.155  0.1381 -0.3727 -1.3106
   20MOL    C9210770   1.576   1.486   6.151 -0.8387 -0.0350  0.0620
   20MOL    O9310771   1.664   1.541   6.082  0.7718 -0.8352  0.2138
   20MOL    C9410772   1.466   1.561   6.221 -0.3963  0.3869 -0.1682
   20MOL    C9510773   1.364   1.491   6.288 -0.5200  0.0604 -0.4038
   20MOL    C9610774   1.261   1.562   6.356  0.5041 -0.2914 -0.6863
   20MOL    C9710775   1.259   1.703   6.360 -0.5859 -0.1674 -0.1112
   20MOL    C9810776   1.141   1.764   6.430  0.4878  0.9760  0.4516
   20MOL    O9910777   1.044   1.695   6.467  0.2824  0.0017  0.1476
   20MOL   C10010778   1.360   1.777   6.285 -0.3863 -0.3996 -0.5192
   20MOL   C10110779   1.466   1.708   6.226  0.0515  0.7876  0.3931
   20MOL   H10210780   1.501   1.147   5.730 -0.9286  0.7775 -2.4751
   20MOL   H10310781   1.454   1.304   5.658 -2.2340 -0.6963 -0.7661
   20MOL   H10410782   1.483   1.387   5.913  1.7314  1.5132  0.1584
   20MOL   H10510783   1.628   1.356   5.820  0.7506  1.0329  1.5152
   20MOL   H10610784   1.488   1.152   6.005  1.2763 -1.4455  1.5842
   20MOL   H10710785   1.626   1.113   5.917  2.9192  1.2441 -0.4533
   20MOL   H10810786   1.676   1.182   6.152 -5.6078 -1.8685 -0.0302
   20MOL   H10910787   1.743   1.307   6.059 -0.1949 -0.1599  0.9165
   20MOL   H11010788   1.360   1.385   6.310  1.1046  0.0458 -0.1190
   20MOL   H11110789   1.194   1.512   6.424  1.9397 -0.8552  0.3305
   20MOL   H11210790   1.364   1.885   6.278  1.9973 -0.4488 -0.0367
   20MOL   H11310791   1.545   1.760   6.174 -0.0985 -0.1111 -0.7708
   20MOL   O11410792   1.139   1.898   6.434  0.3289  0.4141 -0.4792
   20MOL   C11510793   1.051   1.949   6.533 -0.5239  0.0925 -0.4240
   20MOL   C11610794   1.070   2.101   6.543 -0.2175 -0.5982 -0.5332
   20MOL   C11710795   0.959   2.165   6.629 -0.1136 -0.6941  0.2949
   20MOL   C11810796   0.961   2.314   6.608 -0.1741 -0.1756 -0.7474
   20MOL   O11910797   0.854   2.379   6.671  0.1996  0.9611 -0.2026
   20MOL   C12010798   0.757   2.449   6.605 -0.0307  0.1754  0.2238
   20MOL   O12110799   0.749   2.455   6.482 -0.2749  0.2267 -0.0921
   20MOL   C12210800   0.652   2.513   6.692 -0.4030 -0.1566  0.0530
   20MOL   C12310801   0.551   2.592   6.639 -0.1664  0.3801  0.2466
   20MOL   C12410802   0.455   2.657   6.712  1.6833 -0.6373 -0.0658
   20MOL   C12510803   0.441   2.628   6.848 -0.4764  0.0467 -0.4391
   20MOL   C12610804   0.317   2.679   6.923  0.2567  0.0333  0.3535
   20MOL   O12710805   0.227   2.738   6.876 -0.5388 -0.0524  0.4073
   20MOL   C12810806   0.543   2.553   6.910 -1.1792  0.5238  0.2515
   20MOL   C12910807   0.645   2.493   6.833 -0.3955  0.0545 -0.1597
   20MOL   H13010808   0.944   1.932   6.519 -1.2611  2.4575  1.9677
   20MOL   H13110809   1.061   1.905   6.633 -1.8648  0.2987 -0.1920
   20MOL   H13210810   1.054   2.147   6.446  1.0118  0.2981 -0.3231
   20MOL   H13310811   1.163   2.136   6.587 -0.8355 -0.4498  0.6748
   20MOL   H13410812   0.861   2.133   6.593 -0.8977  1.1735  0.7373
   20MOL   H13510813   0.969   2.139   6.734  0.2310 -0.8233  0.2287
   20MOL   H13610814   1.055   2.345   6.653 -0.3195  2.6509 -2.3082
   20MOL   H13710815   0.961   2.355   6.507 -0.8510  0.5364 -0.4644
   20MOL   H13810816   0.539   2.603   6.532 -1.7816 -0.3289  0.3430
   20MOL   H13910817   0.383   2.712   6.654  1.4106  1.5399  2.1957
   20MOL   H14010818   0.537   2.525   7.015  0.7256 -1.2510 -0.0961
   20MOL   H14110819   0.722   2.431   6.875 -0.9654 -1.0372 -0.6989
   20MOL   O14210820   0.325   2.650   7.053 -0.0153  0.1331  0.2821
   20MOL   C14310821   0.235   2.709   7.151  0.1362 -0.6449 -0.0215
   20MOL   C14410822   0.325   2.771   7.265 -0.3303 -0.9160  0.0934
   20MOL   C14510823   0.240   2.850   7.365 -0.5449 -0.0567 -0.1007
   20MOL   C14610824   0.317   2.893   7.494  0.6104 -0.2467  0.2972
   20MOL   O14710825   0.357   2.782   7.565  0.4207  0.3571 -0.6096
   20MOL   C14810826   0.456   2.799   7.655 -0.1045  0.2248 -0.6039
   20MOL   O14910827   0.520   2.902   7.662 -0.6557  0.2394 -0.1500
   20MOL   C15010828   0.470   2.682   7.747  0.0060 -0.1376  0.7214
   20MOL   C15110829   0.407   2.562   7.726 -0.6146  0.5129 -0.5233
   20MOL   C15210830   0.420   2.450   7.815  0.1618 -0.2502  0.4418
   20MOL   C15310831   0.517   2.453   7.917 -0.3024 -0.3141 -0.2245
   20MOL   C15410832   0.527   2.340   8.007  0.2022 -0.0336  0.8423
   20MOL   O15510833   0.503   2.223   7.969  0.2430  0.4597  0.6886
   20MOL   C15610834   0.594   2.572   7.930 -0.4907 -0.3127 -0.3459
   20MOL   C15710835   0.564   2.692   7.853 -0.7535  0.2656  0.2848
   20MOL   H15810836   0.172   2.785   7.105  0.3468  0.1653  0.9864
   20MOL   H15910837   0.160   2.639   7.187  0.5269 -0.3124  1.4860
   20MOL   H16010838   0.393   2.844   7.221 -0.1595 -0.2298  1.4559
   20MOL   H16110839   0.375   2.693   7.322  0.4519  0.1540  0.8789
   20MOL   H16210840   0.225   2.950   7.325  0.5366  0.7270  1.4207
   20MOL   H16310841   0.143   2.814   7.397 -0.6008  0.4075  0.2495
   20MOL   H16410842   0.403   2.948   7.454  0.4104 -1.3562 -1.7618
   20MOL   H16510843   0.257   2.961   7.554 -1.1165 -0.4898 -1.1064
   20MOL   H16610844   0.349   2.538   7.638 -1.5063 -0.0093  0.2003
   20MOL   H16710845   0.368   2.357   7.801  1.0883 -0.6193 -0.5951
   20MOL   H16810846   0.671   2.580   8.006  0.3027 -0.5944 -1.0963
   20MOL   H16910847   0.621   2.783   7.868  1.3614 -0.9855  0.0493
   20MOL   O17010848   0.584   2.373   0.030  0.3467 -0.0275  0.1407
   20MOL   C17110849   0.589   2.288   0.144  0.2452  0.3057  1.0761
   20MOL   C17210850   0.473   2.316   0.238  0.6534 -0.2785  0.9468
   20MOL   C17310851   0.486   2.452   0.310  0.4170  0.1868 -0.2790
   20MOL   C17410852   0.375   2.492   0.404  0.6204  0.1533 -0.4347
   20MOL   O17510853   0.392   2.620   0.469  0.3651 -0.1300 -0.5277
   20MOL   C17610854   0.314   2.646   0.578 -0.4398 -0.4230  0.9832
   20MOL   O17710855   0.228   2.571   0.619  0.2945 -0.4832  0.4633
   20MOL   C17810856   0.350   2.781   0.639  0.2898  0.4236 -0.0021
   20MOL   C17910857   0.462   2.863   0.604  0.1323  0.3125  0.4546
   20MOL   C18010858   0.489   2.984   0.675  0.8828 -0.4672  0.3849
   20MOL   C18110859   0.402   3.030   0.780 -0.6727  0.5971  0.1003
   20MOL   C18210860   0.430   3.151   0.864 -0.2620 -0.7658 -0.4170
   20MOL   O18310861   0.356   3.205   0.944 -0.8114 -0.9447  0.4197
   20MOL   C18410862   0.295   2.952   0.810 -0.4310  0.1215  0.7111
   20MOL   C18510863   0.266   2.830   0.749 -0.3955  0.5066  0.1042
   20MOL   H18610864   0.574   2.184   0.115 -3.4493  0.6695  1.3958
   20MOL   H18710865   0.686   2.299   0.192  1.2638 -0.7954 -0.6845
   20MOL   H18810866   0.469   2.241   0.317 -0.7248 -2.3713 -1.0653
   20MOL   H18910867   0.378   2.320   0.184  1.2232 -0.5292 -0.0625
   20MOL   H19010868   0.580   2.453   0.365  0.2991 -1.3978 -0.0091
   20MOL   H19110869   0.493   2.524   0.228 -2.8432 -1.0027 -1.6731
   20MOL   H19210870   0.276   2.502   0.361 -0.7634 -1.6035  2.2115
   20MOL   H19310871   0.362   2.409   0.474  1.7923  1.4243  1.3213
   20MOL   H19410872   0.512   2.826   0.516 -1.4000  0.4477 -0.4834
   20MOL   H19510873   0.576   3.039   0.644 -1.3842  3.5599  0.8708
   20MOL   H19610874   0.222   2.984   0.884 -1.4115 -0.0607 -0.1653
   20MOL   H19710875   0.180   2.772   0.780 -0.2444  0.4626  0.4471
   20MOL   O19810876   0.559   3.192   0.827 -0.5175 -0.5702  0.1654
   20MOL   C19910877   0.625   3.302   0.885 -0.2098 -0.2441  0.5511
   20MOL   C20010878   0.589   3.416   0.797 -0.2875 -0.0786 -0.2411
   20MOL   C20110879   0.606   3.393   0.639 -0.0409  0.5625 -0.5699
   20MOL   C20210880   0.600   3.527   0.561 -0.3082 -0.3229 -0.7124
   20MOL   O20310881   0.607   3.521   0.420 -0.0467  0.1527 -0.0221
   20MOL   C20410882   0.724   3.509   0.353  1.0089 -0.3251  0.7401
   20MOL   O20510883   0.834   3.496   0.417 -0.0656  0.1567 -0.0481
   20MOL   C20610884   0.714   3.504   0.206 -0.9218 -0.4077  0.2813
   20MOL   C20710885   0.823   3.514   0.122 -0.2707  0.0311 -0.3799
   20MOL   C20810886   0.816   3.536   8.076  0.5116 -0.2835 -0.6990
   20MOL   C20910887   0.691   3.528   8.014  0.1012 -0.9724  0.1191
   20MOL   C21010888   0.680   3.555   7.869 -0.5005  0.5220 -0.1847
   20MOL   O21110889   0.579   3.540   7.802 -0.1666  0.0339  0.1074
   20MOL   C21210890   0.577   3.503   8.097 -0.0338 -0.1076  0.3855
   20MOL   C21310891   0.592   3.494   0.139 -0.2598 -0.3344 -0.1835
   20MOL   H21410892   0.579   3.315   0.983 -0.1171  1.4034  0.3977
   20MOL   H21510893   0.729   3.271   0.873 -0.3482  0.1806 -1.9951
   20MOL   H21610894   0.648   3.501   0.832  0.2517  0.3825 -2.2287
   20MOL   H21710895   0.488   3.452   0.816  0.2831  1.4136  0.0504
   20MOL   H21810896   0.703   3.347   0.617  0.4529  0.5296  1.5849
   20MOL   H21910897   0.527   3.327   0.604  0.7327 -1.0425  0.6837
   20MOL   H22010898   0.506   3.577   0.584  0.4244  1.5815 -1.7336
   20MOL   H22110899   0.685   3.590   0.587  2.2281 -4.0216  0.3708
   20MOL   H22210900   0.922   3.528   0.162 -0.4190 -1.8648  0.7236
   20MOL   H22310901   0.903   3.564   8.018  2.1679  0.2622  1.9692
   20MOL   H22410902   0.477   3.498   8.055 -0.6425  0.2832  1.7739
   20MOL   H22510903   0.504   3.497   0.201 -1.3103 -1.5879 -1.5904
   20MOL   O22610904   0.787   3.620   7.814  0.2725  0.3711 -0.2636
   20MOL   C22710905   0.780   3.667   7.677 -1.2783 -0.0363  0.1762
   20MOL   C22810906   0.905   3.748   7.641 -0.0594  0.2316  0.4642
   20MOL   C22910907   1.032   3.648   7.631 -0.4107 -0.6192 -0.2068
   20MOL   C23010908   1.164   3.706   7.594  0.0424  0.0461  0.4055
   20MOL   O23110909   1.146   3.751   7.463 -0.0634 -0.0035 -0.4808
   20MOL   C23210910   1.223   3.843   7.415 -0.2034 -0.0790 -0.2182
   20MOL   O23310911   1.317   3.895   7.477  0.2714 -0.3198  0.5846
   20MOL   C23410912   1.178   3.882   7.281  0.3486  0.0778 -0.1287
   20MOL   C23510913   1.213   4.009   7.225 -0.4344 -0.2246  0.6717
   20MOL   C23610914   1.162   4.053   7.099 -1.5061  0.4539  0.4211
   20MOL   C23710915   1.057   3.984   7.035 -0.4498 -0.4089 -1.0765
   20MOL   C23810916   0.983   4.043   6.920  0.0893  0.4428  0.2698
   20MOL   O23910917   1.016   4.151   6.870  0.4881  0.2493 -0.6312
   20MOL   C24010918   1.025   3.862   7.089 -0.7581  0.5647  0.5813
   20MOL   C24110919   1.083   3.808   7.205  0.7537  0.2687 -0.0548
   20MOL   H24210920   0.771   3.588   7.602  0.9965 -1.1354  1.0067
   20MOL   H24310921   0.701   3.740   7.657 -1.2726 -0.5874 -1.9808
   20MOL   H24410922   0.936   3.831   7.704 -0.0731 -0.9327  2.0360
   20MOL   H24510923   0.894   3.779   7.537  2.2609 -1.8058 -0.4486
   20MOL   H24610924   1.040   3.581   7.717 -1.2281  0.7744  0.9821
   20MOL   H24710925   1.003   3.580   7.551  0.2803  0.6712 -1.5713
   20MOL   H24810926   1.182   3.789   7.661 -1.6439 -1.6226  3.0050
   20MOL   H24910927   1.248   3.636   7.594 -0.0162 -0.0722 -1.4099
   20MOL   H25010928   1.276   4.080   7.276 -0.2040 -0.9179  1.3721
   20MOL   H25110929   1.188   4.149   7.056 -3.8131  1.8673  2.0808
   20MOL   H25210930   0.955   3.806   7.028  0.5577  0.6469 -1.0242
   20MOL   H25310931   1.038   3.713   7.234 -0.4204  0.7488 -0.2791
   20MOL   O25410932   0.874   3.973   6.881 -0.0915 -0.6045  0.3378
   20MOL   C25510933   0.800   4.031   6.781 -0.3699  0.7587  0.2073
   20MOL   C25610934   0.706   3.928   6.709 -0.0237  0.6786  1.0160
   20MOL   C25710935   0.589   3.888   6.797 -0.0573  0.1015  0.3307
   20MOL   C25810936   0.513   3.775   6.732  0.0975  0.4695 -0.5691
   20MOL   O25910937   0.397   3.752   6.814  0.1983 -0.5440  0.0272
   20MOL   C26010938   0.406   3.669   6.912 -0.2835 -0.0888 -0.2057
   20MOL   O26110939   0.501   3.594   6.927 -0.2326  1.1596 -0.8361
   20MOL   C26210940   0.278   3.669   6.994 -0.0010 -0.5345 -0.0998
   20MOL   C26310941   0.260   3.585   7.105  0.2009  0.1869  0.0362
   20MOL   C26410942   0.138   3.575   7.183  0.5647 -0.6808 -0.1061
   20MOL   C26510943   0.034   3.664   7.153  0.3791  0.7101  0.2798
   20MOL   C26610944   8.010   3.669   7.230  0.6469  0.5603  0.0425
   20MOL   O26710945   7.992   3.591   7.319  0.6320  0.1309  0.2612
   20MOL   C26810946   0.056   3.754   7.047  0.3636 -0.6292  0.2096
   20MOL   C26910947   0.173   3.759   6.964 -0.1617  0.2595  0.2397
   20MOL   H27010948   0.747   4.119   6.818 -0.8648  0.0526  1.2096
   20MOL   H27110949   0.851   4.072   6.695 -1.8326  1.1293 -0.4873
   20MOL   H27210950   0.748   3.834   6.673  1.9019  1.8884 -0.0055
   20MOL   H27310951   0.669   3.973   6.617  1.6873 -2.7461 -1.4798
   20MOL   H27410952   0.619   3.848   6.894  0.2985  1.2094  0.6761
   20MOL   H27510953   0.518   3.967   6.823 -0.2868 -0.5000  1.5827
   20MOL   H27610954   0.481   3.800   6.630  0.5125  0.1018 -0.7920
   20MOL   H27710955   0.577   3.688   6.726 -0.5710 -0.0489 -0.2347
   20MOL   H27810956   0.348   3.530   7.136 -0.9267 -0.0626  2.9526
   20MOL   H27910957   0.121   3.503   7.263  0.0949  0.4182  0.7942
   20MOL   H28010958   8.081   3.829   7.023  3.1242  2.2953  0.5671
   20MOL   H28110959   0.180   3.827   6.881  0.4415 -1.5476 -1.2303
   20MOL   O28210960   7.919   3.763   7.183  0.1714  0.2442 -0.5006
   20MOL   C28310961   7.784   3.755   7.195 -1.4151 -0.3997 -0.2721
   20MOL   C28410962   7.726   3.858   7.088 -0.1236  0.3397 -0.0027
   20MOL   C28510963   7.777   4.001   7.107  0.1167  0.1271 -0.0440
   20MOL   C28610964   7.717   4.072   7.227  0.1230  0.0274 -0.7132
   20MOL   O28710965   7.776   4.201   7.234  0.1185  0.3686 -0.1754
   20MOL   C28810966   7.726   4.309   7.171 -0.1945  0.3020 -0.2952
   20MOL   O28910967   7.606   4.312   7.148  0.8780 -0.2391 -0.1325
   20MOL   C29010968   7.820   4.416   7.140  0.3444 -0.0706  0.3094
   20MOL   C29110969   7.953   4.394   7.171 -0.5056  0.1368  0.0208
   20MOL   C29210970   8.055   4.489   7.142  0.7018 -0.4121 -0.7410
   20MOL   C29310971   8.010   4.614   7.086  0.5740  0.0279 -0.3731
   20MOL   C29410972   0.005   4.726   7.067 -0.3227  0.6552  0.0111
   20MOL   O29510973   0.122   4.707   7.039  0.3721 -0.2223 -0.0548
   20MOL   C29610974   7.874   4.630   7.047 -0.3265 -0.2510 -0.0160
   20MOL   C29710975   7.778   4.533   7.075 -0.1260  0.2224 -0.3370
   20MOL   H29810976   7.747   3.655   7.172  0.8534 -1.8969  2.3716
   20MOL   H29910977   7.762   3.777   7.299  1.0572  0.6189  0.0726
   20MOL   H30010978   7.617   3.846   7.081 -0.1651  1.2515 -0.9914
   20MOL   H30110979   7.758   3.820   6.991 -0.7301  2.1832 -0.9570
   20MOL   H30210980   7.886   3.999   7.117  0.3345  1.5310 -1.7762
   20MOL   H30310981   7.757   4.068   7.023  2.5485  2.3197  1.0265
   20MOL   H30410982   7.609   4.082   7.217  0.2019  1.2959 -0.3548
   20MOL   H30510983   7.737   4.011   7.315 -1.3424 -0.8902 -1.0067
   20MOL   H30610984   7.990   4.304   7.219  1.9509  1.0289 -0.1151
   20MOL   H30710985   0.057   4.475   7.179  0.8832 -0.9684 -1.4260
   20MOL   H30810986   7.849   4.725   7.001  0.2988  1.1823  2.4789
   20MOL   H30910987   7.680   4.552   7.036 -0.2416  2.5703  1.0274
   20MOL   O31010988   8.056   4.835   7.120 -0.6108 -0.4126 -0.2160
   20MOL   C31110989   0.044   4.942   7.161 -0.1697 -0.5046 -0.0136
   20MOL   C31210990   8.063   5.073   7.187  0.7616 -0.5354  0.1568
   20MOL   C31310991   8.001   5.073   7.330 -0.1852 -0.4796  0.8617
   20MOL   C31410992   7.921   5.195   7.354 -0.1760 -0.0016 -0.2479
   20MOL   O31510993   7.837   5.187   7.465 -0.4846 -0.0933  0.3765
   20MOL   C31610994   7.706   5.220   7.465 -0.2746 -0.3005 -0.7226
   20MOL   O31710995   7.649   5.290   7.378 -1.1184  0.2165  0.1867
   20MOL   C31810996   7.641   5.168   7.589  0.4496  0.5075  0.8125
   20MOL   C31910997   7.717   5.088   7.683  0.1280  0.5934  0.3541
   20MOL   C32010998   7.653   5.030   7.799  0.4182 -0.5527 -0.9849
   20MOL   C32110999   7.515   5.058   7.824 -0.4866 -1.1124  0.3960
   20MOL   C32211000   7.444   5.019   7.948 -0.5168  0.7891  0.4318
   20MOL   O32311001   7.496   4.964   8.047  0.0677 -0.6074 -0.0537
   20MOL   C32411002   7.444   5.146   7.735  0.1980 -0.4649  0.5441
   20MOL   C32511003   7.506   5.198   7.617  0.9872 -0.5489 -0.1100
   20MOL   H32611004   0.098   4.910   7.250  0.4579 -0.0108 -0.2209
   20MOL   H32711005   0.119   4.966   7.087 -0.1582  2.3398  0.8691
   20MOL   H32811006   7.986   5.078   7.111  0.8032  0.0442  0.1468
   20MOL   H32911007   0.038   5.153   7.180  0.6633 -0.3109  1.5122
   20MOL   H33011008   7.940   4.983   7.336  0.8000 -1.1983  0.3028
   20MOL   H33111009   8.078   5.069   7.408  0.4580  0.9452  0.3297
   20MOL   H33211010   7.993   5.274   7.376 -0.7884  0.7949 -1.0341
   20MOL   H33311011   7.864   5.207   7.262  0.2766  2.1270 -0.2880
   20MOL   H33411012   7.819   5.056   7.664 -0.0254  0.5613 -0.4495
   20MOL   H33511013   7.710   4.965   7.865 -1.0574  0.4420  1.3088
   20MOL   H33611014   7.343   5.180   7.755  0.2942  0.2906 -0.1782
   20MOL   H33711015   7.448   5.259   7.549 -0.5461 -1.6132  0.2023
   20MOL   O33811016   7.317   5.036   7.940  0.4275 -0.2613 -0.3203
   20MOL   C33911017   7.227   5.005   8.048  0.5502  0.7749  0.4886
   20MOL   C34011018   7.150   4.879   8.000  0.1848  0.1919  0.0880
   20MOL   C34111019   7.035   4.846   0.004 -0.2601  0.4294  0.0621
   20MOL   C34211020   6.965   4.718   8.064  0.9358 -0.3320  0.4761
   20MOL   O34311021   6.862   4.682   0.061  0.0601  0.1505 -0.2556
   20MOL   C34411022   6.895   4.627   0.184 -0.0215  0.6670 -0.5778
   20MOL   O34511023   7.009   4.627   0.227  0.0323  0.0012  0.5703
   20MOL   C34611024   6.779   4.579   0.265 -0.1416 -0.0172  0.2593
   20MOL   C34711025   6.783   4.564   0.404 -0.4299  0.3906 -0.2177
   20MOL   C34811026   6.665   4.529   0.471 -0.3284  0.4472  0.2802
   20MOL   C34911027   6.542   4.514   0.400  0.2718 -0.3083  0.2841
   20MOL   C35011028   6.412   4.501   0.475 -0.2403 -0.6485 -0.1697
   20MOL   O35111029   6.300   4.485   0.420 -0.0451  0.5046  0.1927
   20MOL   C35211030   6.540   4.515   0.257  0.6968 -0.1801 -0.4165
   20MOL   C35311031   6.660   4.553   0.193 -0.5775  0.4868 -0.5558
   20MOL   H35411032   7.279   4.984   0.043 -0.1513  0.8126  0.8889
   20MOL   H35511033   7.161   5.091   8.060 -0.6605 -0.3035  1.7371
   20MOL   H35611034   7.220   4.796   8.004  1.2876  1.0007 -1.8517
   20MOL   H35711035   7.116   4.902   7.900  0.4531  0.9698  0.1709
   20MOL   H35811036   7.077   4.831   0.103  0.0920  0.4059 -0.0867
   20MOL   H35911037   6.959   4.923   0.014 -0.4329  0.2309  0.2627
   20MOL   H36011038   6.912   4.719   7.969  0.8246  0.2526  0.5479
   20MOL   H36111039   7.033   4.636   8.042  1.9322  0.4428  0.6552
   20MOL   H36211040   6.870   4.587   0.463  0.9328  0.0589 -2.0669
   20MOL   H36311041   6.664   4.507   0.577  1.0269 -2.2153 -0.2271
   20MOL   H36411042   6.449   4.495   0.203  0.4574  1.4029 -0.5959
   20MOL   H36511043   6.653   4.557   0.085 -0.7292  0.1263 -0.5583
   20MOL   O36611044   6.430   4.501   0.615  0.2016  0.0197  0.4112
   20MOL   C36711045   6.319   4.487   0.698 -0.1734 -0.4181 -0.2263
   20MOL   C36811046   6.290   4.334   0.702  0.1243  0.0096 -0.2603
   20MOL   C36911047   6.157   4.292   0.767 -0.1375 -0.1015 -0.6712
   20MOL   C37011048   6.138   4.141   0.731 -0.3858 -0.6248  0.6993
   20MOL   O37111049   6.202   4.068   0.834 -0.5146 -0.4881  0.1774
   20MOL   C37211050   6.299   3.973   0.814  0.2930 -1.0853 -0.0392
   20MOL   O37311051   6.336   3.934   0.703  0.0798  0.0681 -0.1033
   20MOL   C37411052   6.377   3.935   0.934 -0.0246  0.0514 -0.2740
   20MOL   C37511053   6.503   3.868   0.922 -0.3607  0.0788 -0.5141
   20MOL   C37611054   6.565   3.814   1.035 -0.0920 -0.0968  0.0996
   20MOL   C37711055   6.511   3.834   1.165 -0.7535 -0.2316  0.9175
   20MOL   C37811056   6.583   3.788   1.292 -0.3920  0.9041  0.5493
   20MOL   O37911057   6.537   3.798   1.404 -0.4427 -0.6166 -0.3626
   20MOL   C38011058   6.391   3.905   1.181  0.2052 -0.7893 -0.2622
   20MOL   C38111059   6.330   3.949   1.066  0.1731  0.2015  0.3258
   20MOL   H38211060   6.324   4.531   0.798 -3.4453  1.0071 -0.6231
   20MOL   H38311061   6.237   4.537   0.646 -1.2541 -2.1504 -0.2216
   20MOL   H38411062   6.379   4.297   0.752 -0.4762  1.2010  1.7549
   20MOL   H38511063   6.304   4.288   0.604  1.5007  0.3807 -0.2456
   20MOL   H38611064   6.149   4.311   0.874 -1.7633 -2.5877 -0.3159
   20MOL   H38711065   6.076   4.334   0.708  0.9113  0.8422 -1.4603
   20MOL   H38811066   6.033   4.114   0.744 -1.7204  3.1826 -1.3673
   20MOL   H38911067   6.167   4.110   0.631 -2.5405 -0.1134 -0.1058
   20MOL   H39011068   6.550   3.844   0.828  0.9808  1.5118 -0.2381
   20MOL   H39111069   6.655   3.755   1.026  0.2794  0.3033  1.1763
   20MOL   H39211070   6.336   3.908   1.274  0.9389  0.8721  0.1464
   20MOL   H39311071   6.234   3.999   1.064 -0.0838 -0.2965 -0.1389
   20MOL   O39411072   6.704   3.730   1.270  0.4318  0.1782  0.1693
   20MOL   C39511073   6.772   3.676   1.379 -0.0693  0.1705  0.0776
   20MOL   C39611074   6.898   3.613   1.341 -0.7166 -0.3693  0.4888
   20MOL   C39711075   6.888   3.474   1.273  0.3021 -0.7659  0.7021
   20MOL   C39811076   6.899   3.490   1.122  0.6904 -0.4049  0.8614
   20MOL   O39911077   6.889   3.357   1.067  0.3244  0.4310 -0.5043
   20MOL   C40011078   6.847   3.339   0.937  0.6913 -0.5083 -0.4602
   20MOL   O40111079   6.822   3.432   0.857  0.3636 -0.1668  0.3037
   20MOL   C40211080   6.840   3.193   0.897 -0.9865  0.2692 -0.0901
   20MOL   C40311081   6.835   3.167   0.760  0.2900  0.2102 -0.5112
   20MOL   C40411082   6.828   3.030   0.718  0.4474  0.0371 -0.1118
   20MOL   C40511083   6.827   2.921   0.806 -0.3260  0.1857  0.4225
   20MOL   C40611084   6.805   2.772   0.767 -0.0460  0.2314 -0.1953
   20MOL   O40711085   6.768   2.688   0.852 -0.3472 -0.2778  0.7020
   20MOL   C40811086   6.827   2.950   0.948  0.5872  0.2620 -0.1227
   20MOL   C40911087   6.838   3.087   0.995  0.2175  0.3080  0.0924
   20MOL   H41011088   6.798   3.762   1.442 -1.0264  0.8084 -0.3853
   20MOL   H41111089   6.713   3.607   1.439  0.8995  0.6602  1.6275
   20MOL   H41211090   6.956   3.586   1.429 -0.4491  1.1602  0.7951
   20MOL   H41311091   6.977   3.669   1.291 -1.3647 -0.2218 -0.3825
   20MOL   H41411092   6.965   3.409   1.315 -0.5973 -2.1383  0.2523
   20MOL   H41511093   6.790   3.433   1.298  0.0930 -1.9641 -1.9192
   20MOL   H41611094   6.819   3.555   1.086  1.6609  1.1273  1.3900
   20MOL   H41711095   6.998   3.527   1.096  0.6621  0.1132  1.4939
   20MOL   H41811096   6.831   3.245   0.685 -2.3150 -1.1887 -1.9245
   20MOL   H41911097   6.808   3.013   0.613  2.9566  0.0085 -0.6175
   20MOL   H42011098   6.833   2.872   1.023 -3.5334 -0.6737 -0.6692
   20MOL   H42111099   6.859   3.120   1.096 -1.9376  0.5648  0.4898
   20MOL   O42211100   6.831   2.746   0.636 -0.1035  0.4538 -0.5078
   20MOL   C42311101   6.852   2.612   0.592 -0.0776  0.5266 -0.0174
   20MOL   C42411102   6.919   2.618   0.451  0.3934 -0.1433  0.2347
   20MOL   C42511103   6.814   2.595   0.341 -0.3186  0.0151  0.2904
   20MOL   C42611104   6.866   2.619   0.197  0.2710  0.0184 -0.0196
   20MOL   O42711105   6.749   2.643   0.116 -0.1792  0.2173  0.2323
   20MOL   C42811106   6.716   2.551   0.024  0.3995  0.4673  0.8063
   20MOL   O42911107   6.773   2.442   0.005 -0.2341 -0.1062  0.4144
   20MOL   C43011108   6.593   2.581   8.044 -0.0498 -0.4494  0.0694
   20MOL   C43111109   6.566   2.501   7.933  0.4848  0.1325  0.1521
   20MOL   C43211110   6.443   2.507   7.865 -0.0067 -0.4942 -0.7060
   20MOL   C43311111   6.344   2.598   7.912  0.1672  1.5815  0.1764
   20MOL   C43411112   6.207   2.605   7.848  0.3902 -0.8273  1.1258
   20MOL   O43511113   6.169   2.539   7.747  0.0841  0.0969  0.0304
   20MOL   C43611114   6.375   2.683   8.022  0.4006  0.0462 -0.2145
   20MOL   C43711115   6.503   2.678   8.080 -0.4827  0.4185  0.1563
   20MOL   H43811116   6.918   2.559   0.661  1.2450  0.3234 -1.4085
   20MOL   H43911117   6.762   2.550   0.600  0.9854 -1.4584 -2.8334
   20MOL   H44011118   6.992   2.537   0.445 -0.2221 -0.7829  1.1686
   20MOL   H44111119   6.960   2.718   0.442 -0.2259  0.1878  1.0169
   20MOL   H44211120   6.764   2.498   0.346  1.5678 -1.0255 -0.6542
   20MOL   H44311121   6.735   2.666   0.367  0.2110  0.3225  1.0883
   20MOL   H44411122   6.922   2.713   0.192 -0.1346  0.3255  1.0645
   20MOL   H44511123   6.933   2.541   0.160  2.3842  1.5782  0.4313
   20MOL   H44611124   6.639   2.430   7.894  1.1708  2.1030 -2.2849
   20MOL   H44711125   6.405   2.451   7.780  1.8628 -2.4502 -0.2999
   20MOL   H44811126   6.302   2.750   8.065 -0.3186 -0.5683 -0.4638
   20MOL   H44911127   6.521   2.742   0.067  2.8764  2.1627 -1.7666
   20MOL   O45011128   6.124   2.694   7.905  0.0882  0.0151 -0.2407
   20MOL   C45111129   5.988   2.712   7.849  0.1198 -0.1339  1.0100
   20MOL   C45211130   5.879   2.695   7.966  0.3746 -0.6659  0.0628
   20MOL   C45311131   5.846   2.556   8.015  0.4398  0.1895  0.6438
   20MOL   C45411132   5.767   2.475   7.909 -0.0943 -0.2045 -0.0065
   20MOL   O45511133   5.655   2.541   7.866  1.0071 -0.0852 -0.3905
   20MOL   C45611134   5.541   2.518   7.927 -0.0813 -0.4615  0.0704
   20MOL   O45711135   5.522   2.424   8.006 -0.1703  0.0732 -0.0079
   20MOL   C45811136   5.424   2.600   7.874 -0.0794  0.5401  0.5538
   20MOL   C45911137   5.289   2.552   7.879 -0.2159 -0.6043 -0.5266
   20MOL   C46011138   5.189   2.621   7.808 -0.0231  0.9048  0.5045
   20MOL   C46111139   5.218   2.742   7.739 -0.1266  0.4984 -0.1394
   20MOL   C46211140   5.106   2.822   7.685  0.1652 -0.1741 -0.1444
   20MOL   O46311141   4.985   2.818   7.731 -0.0597 -0.3457  0.1291
   20MOL   C46411142   5.348   2.795   7.740 -0.0393  0.1184  0.1901
   20MOL   C46511143   5.452   2.721   7.805  0.7235  0.3574 -0.4335
   20MOL   H46611144   5.985   2.806   7.794 -3.0367 -0.7480  0.0425
   20MOL   H46711145   5.968   2.631   7.779  0.4976 -0.6926  1.5352
   20MOL   H46811146   5.785   2.740   7.935  0.6092 -0.3074 -0.1430
   20MOL   H46911147   5.912   2.768   8.040  1.6575  1.5417 -2.5660
   20MOL   H47011148   5.936   2.499   8.034 -0.4462 -0.9796  1.4146
   20MOL   H47111149   5.792   2.547   0.011 -1.0948  2.8942  0.0783
   20MOL   H47211150   5.826   2.473   7.817 -3.0058  0.4970 -1.9461
   20MOL   H47311151   5.744   2.370   7.929  0.4900 -0.5670 -1.1842
   20MOL   H47411152   5.259   2.461   7.929  1.5798 -0.4640  0.8685
   20MOL   H47511153   5.090   2.584   7.830  0.8980 -1.7273  0.3533
   20MOL   H47611154   5.362   2.893   7.696  1.6306  0.6824  1.8851
   20MOL   H47711155   5.557   2.746   7.793  0.2222  1.8485 -1.9353
   20MOL   O47811156   5.143   2.897   7.584  0.2891 -0.5435 -0.1778
   20MOL   C47911157   5.049   2.982   7.520  0.0333 -0.1513 -0.3935
   20MOL   C48011158   5.135   3.048   7.405  0.4593  0.0060  0.1560
   20MOL   C48111159   5.181   2.944   7.302 -0.1304  0.0296 -0.2329
   20MOL   C48211160   5.291   3.002   7.211  0.4020 -0.6919 -0.4533
   20MOL   O48311161   5.337   2.902   7.124  0.1962  0.0084 -0.4037
   20MOL   C48411162   5.435   2.930   7.035 -0.6133  0.4209  0.0829
   20MOL   O48511163   5.493   3.040   7.035  0.4362  0.3857  0.2350
   20MOL   C48611164   5.466   2.812   6.941  0.7006 -0.2082 -0.1143
   20MOL   C48711165   5.570   2.819   6.845 -0.4138 -0.1819 -0.2906
   20MOL   C48811166   5.600   2.710   6.768 -0.8577 -0.3478 -0.0274
   20MOL   C48911167   5.542   2.584   6.794  0.6353 -0.0624 -0.0113
   20MOL   C49011168   5.599   2.462   6.740 -0.6783  0.5191  0.1110
   20MOL   O49111169   5.547   2.347   6.755  0.1561  0.4294 -0.5538
   20MOL   C49211170   5.432   2.578   6.881 -0.0416  0.0447  0.0006
   20MOL   C49311171   5.395   2.689   6.955 -0.2729  0.4687 -0.5957
   20MOL   H49411172   4.958   2.932   7.485 -0.5751  1.5294 -1.3075
   20MOL   H49511173   5.022   3.061   7.590  0.2694 -2.0938  1.9617
   20MOL   H49611174   5.221   3.104   7.443  0.1218 -0.5194  1.7194
   20MOL   H49711175   5.070   3.120   7.355 -1.0108 -1.3222  0.1052
   20MOL   H49811176   5.235   2.860   7.346 -0.0594 -0.2510 -0.8547
   20MOL   H49911177   5.098   2.891   7.256  0.4712 -0.5407 -0.6681
   20MOL   H50011178   5.249   3.067   7.135 -2.3439  1.0684  2.4663
   20MOL   H50111179   5.366   3.052   7.272  0.5982  0.0680 -1.3098
   20MOL   H50211180   5.621   2.913   6.831  1.3169 -0.8536  1.3903
   20MOL   H50311181   5.689   2.720   6.707 -0.1968 -3.0840  0.4132
   20MOL   H50411182   5.385   2.487   6.914 -0.4394  0.1498 -0.2824
   20MOL   H50511183   5.330   2.670   7.039  1.1803 -2.1866 -0.0139
   20MOL   O50611184   5.717   2.473   6.674  0.2398 -0.0435  0.2097
   20MOL   C50711185   5.769   2.356   6.613  0.0655 -0.1961  0.1258
   20MOL   C50811186   5.845   2.391   6.485  0.4104 -0.3616  0.5109
   20MOL   C50911187   5.989   2.440   6.501 -0.3440  0.2433 -0.4618
   20MOL   C51011188   6.000   2.585   6.553  0.0174 -1.0408  0.0360
   20MOL   O51111189   5.986   2.595   6.693  0.1835  0.5553  0.4058
   20MOL   C51211190   5.974   2.716   6.740 -0.1637  0.3836 -0.1735
   20MOL   O51311191   5.981   2.818   6.672 -0.0062  0.0074 -0.6540
   20MOL   C51411192   5.928   2.711   6.885  0.8640 -0.0388 -0.3835
   20MOL   C51511193   5.876   2.595   6.945  0.1861 -0.6993 -0.6348
   20MOL   C51611194   5.807   2.594   7.071  0.0816 -0.2508 -0.2022
   20MOL   C51711195   5.780   2.724   7.131 -0.1542  0.2337 -0.3145
   20MOL   C51811196   5.695   2.741   7.255 -0.6396 -0.3330 -0.5351
   20MOL   O51911197   5.665   2.844   7.320  0.0895 -0.0122  0.6589
   20MOL   C52011198   5.841   2.836   7.073  0.5945 -0.3668  0.3944
   20MOL   C52111199   5.916   2.835   6.955  0.1856 -0.0820 -0.0422
   20MOL   H52211200   5.837   2.294   6.671  1.0076  0.1357 -0.5966
   20MOL   H52311201   5.683   2.296   6.586 -1.8115  1.9329  1.2478
   20MOL   H52411202   5.788   2.455   6.417 -0.3489 -0.0434  1.4368
   20MOL   H52511203   5.855   2.301   6.424 -1.0233 -1.6220  2.0813
   20MOL   H52611204   6.050   2.380   6.569 -1.1568 -0.8967 -0.7370
   20MOL   H52711205   6.037   2.425   6.404 -1.1595  0.5857 -0.9200
   20MOL   H52811206   6.097   2.630   6.533 -0.4033  0.8110  1.9671
   20MOL   H52911207   5.918   2.638   6.505  1.0923 -0.2670 -0.9841
   20MOL   H53011208   5.880   2.504   6.887 -1.3208  0.2245 -2.2376
   20MOL   H53111209   5.776   2.497   7.108 -1.8417  0.1033 -0.8315
   20MOL   H53211210   5.829   2.935   7.115 -2.5570 -0.9785  1.0571
   20MOL   H53311211   5.964   2.922   6.912 -0.2579 -0.3685 -1.1408
   20MOL   O53411212   5.652   2.613   7.294  0.1229  0.1048 -0.1023
   20MOL   C53511213   5.605   2.593   7.426 -0.5115 -0.1737 -0.0259
   20MOL   C53611214   5.514   2.471   7.413 -0.5585  0.4418 -0.3113
   20MOL   C53711215   5.470   2.410   7.546  0.3963 -0.3800 -0.2310
   20MOL   C53811216   5.561   2.294   7.599  0.0254  0.3837  0.3803
   20MOL   O53911217   5.503   2.226   7.709  0.3777 -0.1238 -0.4665
   20MOL   C54011218   5.571   2.149   7.789 -0.5121  0.4785 -0.5975
   20MOL   O54111219   5.695   2.142   7.789  0.4683 -0.1279 -0.0893
   20MOL   C54211220   5.487   2.079   7.886  0.7896 -0.0140  0.4063
   20MOL   C54311221   5.345   2.084   7.888 -0.1653  0.0398  0.0935
   20MOL   C54411222   5.270   2.011   7.982 -0.6510 -0.5326 -0.3964
   20MOL   C54511223   5.341   1.942   8.081  0.0139  1.0183 -0.2637
   20MOL   C54611224   5.270   1.884   0.100 -0.1024  0.2771  0.2670
   20MOL   O54711225   5.153   1.844   0.105 -0.3365  0.5949  0.1299
   20MOL   C54811226   5.480   1.937   8.082 -0.0795 -0.2682 -0.2257
   20MOL   C54911227   5.550   1.993   7.977 -0.4313 -0.3888 -0.1870
   20MOL   H55011228   5.689   2.579   7.494  1.0089  2.4420 -1.2882
   20MOL   H55111229   5.548   2.672   7.476 -2.9167 -2.6232  1.2761
   20MOL   H55211230   5.558   2.396   7.347 -1.6378 -1.4498  1.0645
   20MOL   H55311231   5.427   2.506   7.359 -0.7151 -0.4606 -0.6498
   20MOL   H55411232   5.468   2.491   7.619 -1.2446 -0.6417  0.0388
   20MOL   H55511233   5.368   2.369   7.547  0.5391 -0.7535  2.2353
   20MOL   H55611234   5.588   2.220   7.523 -0.1675 -1.8674  2.4374
   20MOL   H55711235   5.661   2.331   7.622 -0.1567  0.1824  1.5287
   20MOL   H55811236   5.289   2.134   7.811 -0.6767 -1.3040 -0.4321
   20MOL   H55911237   5.164   2.015   7.998 -0.2163  2.0377  2.1420
   20MOL   H56011238   5.537   1.892   0.063  2.0269 -0.4062 -1.7719
   20MOL   H56111239   5.658   1.991   7.984 -0.5571 -0.4146  2.1461
   20MOL   H56211240   5.341   1.880   0.184 -0.0315 -1.5940  0.1403
   21MOL     O111241   3.717   6.232   2.340 -0.0289 -0.4802  0.4449
   21MOL     C211242   3.613   6.191   2.421  0.3695 -0.1582  0.3328
   21MOL     C311243   3.643   6.039   2.456  0.7066  0.6664  0.3023
   21MOL     C411244   3.514   5.963   2.489 -0.2807  0.4073 -0.8320
   21MOL     C511245   3.532   5.814   2.525  0.2563  0.7036  0.3316
   21MOL     O611246   3.574   5.738   2.416  0.2930  0.4169  0.6003
   21MOL     C711247   3.613   5.621   2.423 -0.6625  0.8986 -0.1694
   21MOL     O811248   3.657   5.583   2.529  0.3129 -0.5121  0.1224
   21MOL     C911249   3.624   5.546   2.289 -0.9056 -0.6195 -0.1586
   21MOL    C1011250   3.572   5.607   2.175 -0.1884 -0.0766  0.6339
   21MOL    C1111251   3.587   5.556   2.040  0.1594  0.1192 -0.5914
   21MOL    C1211252   3.659   5.433   2.023 -0.1742  0.6637 -0.5120
   21MOL    C1311253   3.682   5.369   1.887  0.4204  0.3238 -0.0870
   21MOL    O1411254   3.744   5.263   1.865  0.0270  0.5785 -0.3848
   21MOL    C1511255   3.718   5.379   2.137 -0.0794  0.4491 -0.4976
   21MOL    C1611256   3.705   5.431   2.271 -0.9501  0.4737  0.5844
   21MOL    H1711257   3.593   6.249   2.512 -0.5965  1.6250 -0.9853
   21MOL    H1811258   3.524   6.203   2.359  0.0736  3.2247  1.3084
   21MOL    H1911259   3.717   6.032   2.535  1.2866 -0.6806 -0.3347
   21MOL    H2011260   3.678   5.984   2.368  1.5593  0.6380  0.6572
   21MOL    H2111261   3.465   6.001   2.579  0.9273 -0.4042  0.1851
   21MOL    H2211262   3.452   5.968   2.400 -1.0323 -0.0486 -0.3321
   21MOL    H2311263   3.603   5.805   2.607 -1.3970  1.0607  1.8464
   21MOL    H2411264   3.433   5.785   2.561 -0.2636  1.0629 -0.8020
   21MOL    H2511265   3.515   5.698   2.189 -2.4104 -1.1843 -0.8641
   21MOL    H2611266   3.558   5.612   1.952  0.7411  1.0182 -0.2279
   21MOL    H2711267   3.783   5.293   2.135  1.2948  1.4796 -1.0998
   21MOL    H2811268   3.757   5.395   2.358 -0.6827 -0.5190  0.0283
   21MOL    H2911269   3.798   6.244   2.388  1.2369 -2.3515 -1.1273
   21MOL    O3011270   3.639   5.449   1.782 -0.2289 -0.8648  0.3936
   21MOL    C3111271   3.666   5.415   1.653 -0.5636 -0.1406  0.4189
   21MOL    C3211272   3.540   5.341   1.596  0.2354  0.1139  0.3225
   21MOL    C3311273   3.513   5.198   1.647 -0.0524 -0.2213 -0.9673
   21MOL    C3411274   3.617   5.085   1.628 -0.6096 -1.0205 -0.0837
   21MOL    O3511275   3.548   4.959   1.611  0.1548 -0.3817  0.0779
   21MOL    C3611276   3.611   4.860   1.548 -0.3672  0.1379 -0.3108
   21MOL    O3711277   3.728   4.865   1.514  0.0904 -0.2110 -0.0198
   21MOL    C3811278   3.523   4.743   1.534  0.0599  1.0647 -0.7703
   21MOL    C3911279   3.390   4.737   1.583 -0.1083 -0.1238  0.3469
   21MOL    C4011280   3.308   4.630   1.556 -0.2694  0.6461  0.4416
   21MOL    C4111281   3.352   4.518   1.483 -0.8766 -0.2728  0.3332
   21MOL    C4211282   3.265   4.405   1.454 -0.6391 -0.2662  0.4941
   21MOL    O4311283   3.297   4.308   1.375  0.1589  0.2469 -0.2659
   21MOL    C4411284   3.490   4.518   1.441  0.0096  0.3201  0.3950
   21MOL    C4511285   3.571   4.630   1.467  0.4093  0.6125  0.2126
   21MOL    H4611286   3.685   5.494   1.580  0.8502 -1.8366 -1.0829
   21MOL    H4711287   3.758   5.358   1.639 -1.1200 -0.3876 -2.4600
   21MOL    H4811288   3.568   5.327   1.491 -0.0876 -1.1792  0.3910
   21MOL    H4911289   3.444   5.393   1.595 -1.0277 -2.1032 -0.9336
   21MOL    H5011290   3.501   5.199   1.755 -1.6057 -1.9021 -1.1116
   21MOL    H5111291   3.417   5.171   1.605 -1.0972  2.9117 -0.7366
   21MOL    H5211292   3.680   5.112   1.544 -0.5381 -1.6091 -0.2212
   21MOL    H5311293   3.688   5.073   1.711 -1.4326  0.8509  0.9317
   21MOL    H5411294   3.355   4.823   1.638  0.2965 -0.6442  1.4420
   21MOL    H5511295   3.213   4.622   1.606 -0.6580 -0.8030 -0.4876
   21MOL    H5611296   3.529   4.435   1.384 -0.3128  1.1031 -0.9906
   21MOL    H5711297   3.670   4.623   1.423 -0.5699 -0.9252 -1.7944
   21MOL    O5811298   3.144   4.404   1.520 -0.1003  0.1072 -0.6980
   21MOL    C5911299   3.064   4.288   1.512 -0.0177 -0.7889 -0.2063
   21MOL    C6011300   3.094   4.192   1.638  0.2267 -0.6738  0.0055
   21MOL    C6111301   3.077   4.259   1.775 -0.2163 -0.6802 -0.1740
   21MOL    C6211302   3.152   4.176   1.880 -0.2676  0.2534 -0.0169
   21MOL    O6311303   3.099   4.194   2.008 -0.3183  0.4688  0.3495
   21MOL    C6411304   3.096   4.095   2.104 -0.3140  0.2803  0.2107
   21MOL    O6511305   3.124   3.978   2.072 -0.2204  0.6900  0.7636
   21MOL    C6611306   3.049   4.154   2.233  0.1084  0.1215  0.0150
   21MOL    C6711307   2.962   4.269   2.234  0.1576 -0.1417 -0.1757
   21MOL    C6811308   2.929   4.331   2.356 -0.1012  0.2842  0.7045
   21MOL    C6911309   2.971   4.269   2.475  0.1959 -0.1814 -0.7583
   21MOL    C7011310   2.938   4.327   2.608  0.7048 -0.5074 -0.6417
   21MOL    O7111311   2.941   4.264   2.715  0.2249 -0.1960 -0.9273
   21MOL    C7211312   3.048   4.152   2.476 -0.3178  0.2244  0.0581
   21MOL    C7311313   3.090   4.093   2.355  0.8877 -1.2085 -1.3011
   21MOL    H7411314   2.963   4.331   1.511 -0.6418 -2.2243 -0.7663
   21MOL    H7511315   3.070   4.236   1.417 -1.7048  1.7703 -1.7831
   21MOL    H7611316   3.197   4.158   1.626  0.6640  0.0837  1.4602
   21MOL    H7711317   3.035   4.102   1.622  0.3732 -1.0198  1.4153
   21MOL    H7811318   3.121   4.358   1.769 -0.8681 -0.2261  2.1829
   21MOL    H7911319   2.973   4.277   1.800  0.1871  0.5393  0.6505
   21MOL    H8011320   3.141   4.070   1.858  0.9318  0.3908 -1.3459
   21MOL    H8111321   3.259   4.198   1.886 -0.7583  2.3159  1.8131
   21MOL    H8211322   2.936   4.314   2.139  0.1827  0.9139  0.3120
   21MOL    H8311323   2.868   4.420   2.351  1.7534  1.5130 -0.3834
   21MOL    H8411324   3.080   4.103   2.567  0.3742 -0.8582 -0.7619
   21MOL    H8511325   3.150   4.004   2.348  1.8974 -0.6544  0.1658
   21MOL    O8611326   2.883   4.446   2.602  0.1408  0.3642 -0.4136
   21MOL    C8711327   2.856   4.529   2.720 -0.6643  0.0337 -0.3647
   21MOL    C8811328   2.797   4.664   2.658  0.2138  0.0790 -0.1012
   21MOL    C8911329   2.828   4.784   2.743  0.4511 -0.0259  0.2649
   21MOL    C9011330   2.792   4.909   2.663 -0.1961  0.1211 -0.4659
   21MOL    O9111331   2.653   4.903   2.647 -0.4157  0.8913  0.7638
   21MOL    C9211332   2.596   5.005   2.579  0.4611 -0.0434 -0.0582
   21MOL    O9311333   2.666   5.092   2.536 -0.2066 -0.7555  0.9960
   21MOL    C9411334   2.448   5.008   2.565 -0.1092  0.5594  0.2577
   21MOL    C9511335   2.361   4.908   2.612 -0.7869  0.1849 -0.2427
   21MOL    C9611336   2.219   4.930   2.610 -0.3932 -0.1772 -0.0343
   21MOL    C9711337   2.170   5.034   2.531  0.1424  0.2435  0.5602
   21MOL    C9811338   2.018   5.049   2.518  0.1137  0.2654 -0.0963
   21MOL    O9911339   1.937   4.987   2.588 -0.0671 -0.0203  1.0505
   21MOL   C10011340   2.255   5.126   2.470  0.2034  0.3159 -0.1319
   21MOL   C10111341   2.393   5.114   2.495  0.1696 -0.8769  0.0106
   21MOL   H10211342   2.791   4.498   2.801  0.7811 -2.5107 -0.1164
   21MOL   H10311343   2.952   4.542   2.771 -1.4777  1.7841  0.7710
   21MOL   H10411344   2.690   4.654   2.640  0.1713  0.5244 -0.0988
   21MOL   H10511345   2.824   4.675   2.553 -0.3752 -1.3383 -0.4160
   21MOL   H10611346   2.779   4.787   2.841 -1.1354  1.9024 -0.5452
   21MOL   H10711347   2.936   4.778   2.759  0.6285 -0.9488 -1.2151
   21MOL   H10811348   2.825   5.003   2.708 -1.0169  1.0101 -1.6927
   21MOL   H10911349   2.842   4.900   2.567  0.8399  0.0142  0.0832
   21MOL   H11011350   2.406   4.825   2.664 -2.3846  1.1269  2.7783
   21MOL   H11111351   2.147   4.854   2.640  1.8425 -1.8396  1.2366
   21MOL   H11211352   2.231   5.207   2.403 -3.2425  1.0004  1.8363
   21MOL   H11311353   2.460   5.183   2.445  1.4761 -2.1076  0.0195
   21MOL   O11411354   1.985   5.149   2.435 -0.0442  0.1037 -0.1157
   21MOL   C11511355   1.850   5.164   2.401  0.2123 -0.5307  1.0101
   21MOL   C11611356   1.808   5.298   2.457  0.0774 -0.4356  0.1126
   21MOL   C11711357   1.671   5.340   2.408  0.0370  0.1232 -0.2370
   21MOL   C11811358   1.643   5.490   2.439 -0.4179 -0.6148  0.4671
   21MOL   O11911359   1.516   5.533   2.383 -0.1446  0.3052  0.0175
   21MOL   C12011360   1.514   5.578   2.256 -0.3889 -0.0767  0.5783
   21MOL   O12111361   1.622   5.608   2.202  0.1892  0.5278 -0.0434
   21MOL   C12211362   1.382   5.597   2.194  0.6993  0.0912 -1.2807
   21MOL   C12311363   1.361   5.592   2.056 -0.0572 -0.2022 -0.2434
   21MOL   C12411364   1.237   5.608   1.996  0.1121  0.3960  0.6157
   21MOL   C12511365   1.124   5.606   2.079 -0.4344 -0.3203  0.0508
   21MOL   C12611366   0.992   5.608   2.016 -0.0068 -0.4597 -0.2948
   21MOL   O12711367   0.980   5.619   1.891 -0.1617  0.6036 -0.1984
   21MOL   C12811368   1.141   5.607   2.225 -1.0892 -0.0492  0.2961
   21MOL   C12911369   1.271   5.608   2.281 -0.1116  0.5297 -0.4841
   21MOL   H13011370   1.854   5.171   2.292  0.4094 -3.2812  0.8168
   21MOL   H13111371   1.782   5.086   2.434  0.8014 -0.5467  2.2324
   21MOL   H13211372   1.879   5.371   2.418  2.6696 -3.2963 -0.8044
   21MOL   H13311373   1.818   5.298   2.566  1.1279 -0.1620  0.0278
   21MOL   H13411374   1.656   5.312   2.304 -0.9530 -0.9877  0.1981
   21MOL   H13511375   1.597   5.286   2.467 -0.0982  0.4452 -0.1151
   21MOL   H13611376   1.646   5.514   2.545  1.0467  0.6577  0.1563
   21MOL   H13711377   1.718   5.554   2.394 -1.8805  0.6312 -0.2342
   21MOL   H13811378   1.450   5.590   1.995  0.4529  0.2355  0.4656
   21MOL   H13911379   1.220   5.605   1.890 -0.4666  0.6299  0.6955
   21MOL   H14011380   1.055   5.614   2.289 -1.1174 -3.7168  0.7552
   21MOL   H14111381   1.296   5.608   2.386  0.2324  2.2434 -0.5536
   21MOL   O14211382   0.885   5.605   2.109 -0.4763 -0.0717  0.3016
   21MOL   C14311383   0.755   5.593   2.060  0.5485  0.4043 -0.1197
   21MOL   C14411384   0.702   5.734   2.033  0.0649 -0.1095  0.4751
   21MOL   C14511385   0.548   5.736   2.014 -0.5016  0.0437  0.0024
   21MOL   C14611386   0.489   5.878   1.986 -0.0167  0.1645  0.0239
   21MOL   O14711387   0.519   5.969   2.087 -0.1920 -0.3576  0.2003
   21MOL   C14811388   0.435   6.072   2.117  0.8646  0.0877 -0.1072
   21MOL   O14911389   0.319   6.073   2.077 -0.4184  0.0048 -0.3192
   21MOL   C15011390   0.489   6.178   2.209 -0.3351  0.5158 -0.4874
   21MOL   C15111391   0.614   6.162   2.276 -0.1387  0.2156 -0.6701
   21MOL   C15211392   0.658   6.250   2.374  0.6721 -0.6192 -0.3642
   21MOL   C15311393   0.580   6.368   2.404 -0.6842 -0.7775 -0.2758
   21MOL   C15411394   0.628   6.471   2.501  0.5416 -0.2088  0.6485
   21MOL   O15511395   0.733   6.452   2.566  0.0239  0.3046 -0.1882
   21MOL   C15611396   0.453   6.380   2.339 -0.5030 -0.9617 -0.1849
   21MOL   C15711397   0.415   6.291   2.241  0.3108  0.8417  0.0373
   21MOL   H15811398   0.757   5.523   1.977 -1.5078 -1.9888  1.7955
   21MOL   H15911399   0.705   5.549   2.146  0.9673  0.7753  0.3183
   21MOL   H16011400   0.742   5.761   1.936  0.9704 -0.5621  0.7189
   21MOL   H16111401   0.736   5.809   2.104  0.0691 -0.5142  0.8992
   21MOL   H16211402   0.523   5.667   1.933 -1.4101 -1.0114  1.1735
   21MOL   H16311403   0.494   5.701   2.102 -2.8975 -1.4819 -2.0189
   21MOL   H16411404   0.522   5.909   1.887 -2.1468  2.2999 -0.0774
   21MOL   H16511405   0.382   5.858   1.997  0.4866 -1.2742  2.7785
   21MOL   H16611406   0.674   6.080   2.240 -0.9091 -0.4488 -0.4796
   21MOL   H16711407   0.751   6.240   2.428  0.5009 -0.0092  0.0518
   21MOL   H16811408   0.396   6.470   2.355  0.6812 -0.1727 -0.3670
   21MOL   H16911409   0.318   6.310   2.196  1.5901  0.8239 -2.8055
   21MOL   O17011410   0.563   6.589   2.496  0.3344 -0.5019 -0.2571
   21MOL   C17111411   0.572   6.680   2.601  0.4694  0.1818 -0.4814
   21MOL   C17211412   0.448   6.771   2.623  0.0555  0.3860  1.0099
   21MOL   C17311413   0.481   6.926   2.649 -0.0334 -0.6650 -0.3142
   21MOL   C17411414   0.568   6.956   2.770  0.4083  0.0236 -0.0816
   21MOL   O17511415   0.497   6.969   2.893  1.1186 -0.2374 -0.6371
   21MOL   C17611416   0.492   6.861   2.977 -0.1500  0.0027 -0.4271
   21MOL   O17711417   0.529   6.750   2.948  0.1262  0.0582  0.2964
   21MOL   C17811418   0.449   6.900   3.110  0.6300  0.3971 -0.1701
   21MOL   C17911419   0.445   6.804   3.208  0.4822  0.4880 -0.2235
   21MOL   C18011420   0.406   6.837   3.336 -0.3782  0.4329  0.2331
   21MOL   C18111421   0.364   6.966   3.373 -0.8848 -0.1859  0.9139
   21MOL   C18211422   0.309   6.999   3.516 -0.3953  0.1390  0.3561
   21MOL   O18311423   0.329   6.931   3.619 -0.1295  0.2032  0.3232
   21MOL   C18411424   0.362   7.063   3.268 -0.3962 -0.5459 -0.1004
   21MOL   C18511425   0.420   7.031   3.141  0.3144 -0.4766  0.1527
   21MOL   H18611426   0.593   6.632   2.697 -0.3851 -1.1257 -0.9375
   21MOL   H18711427   0.664   6.735   2.581  0.8021 -0.3107 -0.3225
   21MOL   H18811428   0.391   6.731   2.707 -2.9779 -0.3514 -1.2978
   21MOL   H18911429   0.385   6.750   2.536  0.2255  1.1033  0.7093
   21MOL   H19011430   0.519   6.972   2.558 -2.2130  0.5512 -0.6392
   21MOL   H19111431   0.384   6.974   2.658 -0.1469 -0.8443 -0.5640
   21MOL   H19211432   0.655   6.890   2.771  1.8914  1.9169  2.0948
   21MOL   H19311433   0.610   7.057   2.764  0.2575  0.1794  1.3488
   21MOL   H19411434   0.472   6.701   3.193  2.7091  0.6017  2.5165
   21MOL   H19511435   0.410   6.746   3.395 -0.3446  0.1713 -0.1706
   21MOL   H19611436   0.330   7.164   3.287  0.0091 -0.2842 -0.8419
   21MOL   H19711437   0.411   7.097   3.057  2.5111  0.0467  0.3069
   21MOL   O19811438   0.236   7.111   3.511  0.4694  0.9789  0.4592
   21MOL   C19911439   0.185   7.172   3.627  0.1804 -0.5712 -0.4082
   21MOL   C20011440   0.156   7.321   3.604 -0.2620 -0.2152 -0.0272
   21MOL   C20111441   0.033   7.341   3.523 -0.2938 -0.1796 -0.3819
   21MOL   C20211442   8.091   7.484   3.512  0.6134 -1.0638  0.1178
   21MOL   O20311443   7.947   7.497   3.489  0.6112 -0.0011 -0.1368
   21MOL   C20411444   7.906   7.625   3.453 -0.1818  0.2562  0.3238
   21MOL   O20511445   7.986   7.715   3.420  0.2107 -0.0623 -0.3685
   21MOL   C20611446   7.756   7.645   3.458 -0.7418 -0.4841  0.0761
   21MOL   C20711447   7.682   7.571   3.558  0.1161 -0.8459 -0.6883
   21MOL   C20811448   7.538   7.582   3.565 -0.6245 -0.1240  0.5892
   21MOL   C20911449   7.479   7.682   3.491 -0.2830 -1.0141  0.4291
   21MOL   C21011450   7.331   7.693   3.504 -0.2593  0.9024 -0.2484
   21MOL   O21111451   7.263   7.630   3.587 -0.1937  0.2632  0.5080
   21MOL   C21211452   7.555   7.761   3.405 -0.3859 -0.6573 -0.0314
   21MOL   C21311453   7.694   7.747   3.385 -0.1074 -0.1049  0.1657
   21MOL   H21411454   0.089   7.122   3.641 -1.3116  2.5831  1.0593
   21MOL   H21511455   0.252   7.158   3.711 -1.0964 -2.3992  0.3532
   21MOL   H21611456   0.237   7.370   3.549  0.9751  0.2565  2.1571
   21MOL   H21711457   0.148   7.363   3.705 -1.0110 -0.2281 -0.0766
   21MOL   H21811458   0.053   7.305   3.422 -1.1317 -1.6667 -0.0407
   21MOL   H21911459   8.056   7.279   3.571 -0.6816 -0.0706 -0.8507
   21MOL   H22011460   0.019   7.534   3.605  2.5684  0.2437 -1.0973
   21MOL   H22111461   0.054   7.517   3.428  2.0008  0.5825  1.7507
   21MOL   H22211462   7.726   7.498   3.624 -1.6985 -0.5837  0.8477
   21MOL   H22311463   7.495   7.509   3.632  1.1517  0.5033  2.4813
   21MOL   H22411464   7.503   7.819   3.331  2.3138  1.0644 -0.6610
   21MOL   H22511465   7.737   7.808   3.307  1.2095  1.7522  2.2981
   21MOL   O22611466   7.280   7.793   3.429 -0.1862  0.2871 -0.2321
   21MOL   C22711467   7.143   7.823   3.445 -0.5150 -0.0030 -0.9698
   21MOL   C22811468   7.117   7.940   3.351 -0.1606 -0.0658 -0.9297
   21MOL   C22911469   6.966   7.984   3.362 -1.2003  0.6517 -0.0967
   21MOL   C23011470   6.938   0.004   3.269 -0.8720  0.2403  0.0629
   21MOL   O23111471   6.797   0.031   3.248  0.1550  0.1493  0.1161
   21MOL   C23211472   6.741   0.008   3.134  0.3016  0.7748 -0.1875
   21MOL   O23311473   6.791   8.064   3.028 -0.1844  0.1330 -0.2871
   21MOL   C23411474   6.590   0.007   3.138 -0.0035  0.4125  0.4135
   21MOL   C23511475   6.514   8.066   3.026  0.7002 -0.8512 -0.9834
   21MOL   C23611476   6.373   8.066   3.026 -0.1487  0.1394  0.2397
   21MOL   C23711477   6.305   8.091   3.152  0.2710 -0.9385 -0.9487
   21MOL   C23811478   6.156   8.094   3.164 -0.2615  0.5228 -0.5620
   21MOL   O23911479   6.102   0.015   3.279 -0.2604  0.0067  0.5595
   21MOL   C24011480   6.377   0.026   3.265  0.1655 -0.2114 -0.6029
   21MOL   C24111481   6.516   0.043   3.258 -0.4918 -0.2707 -0.2518
   21MOL   H24211482   7.087   7.737   3.410  1.0950 -0.7819 -1.6593
   21MOL   H24311483   7.106   7.848   3.545  1.6928 -0.9161  0.0965
   21MOL   H24411484   7.158   7.928   3.251  1.5337  0.5875 -0.3209
   21MOL   H24511485   7.189   8.009   3.393  0.1644 -0.8477 -0.1736
   21MOL   H24611486   6.899   7.907   3.324 -0.1475  0.8322 -2.4594
   21MOL   H24711487   6.941   8.015   3.463  1.3827 -0.7641  1.0348
   21MOL   H24811488   6.989   0.094   3.303  0.1107 -0.6959  1.1256
   21MOL   H24911489   6.976   8.083   3.169 -1.2050 -0.6747  0.1055
   21MOL   H25011490   6.566   8.050   2.933  1.9159 -1.5589 -0.1897
   21MOL   H25111491   6.315   8.027   2.943  0.9152 -1.0135  0.0178
   21MOL   H25211492   6.337   0.042   3.365  0.6139 -0.4284 -0.3882
   21MOL   H25311493   6.571   0.073   3.346  0.1324 -0.2864 -0.6315
   21MOL   O25411494   6.092   8.053   3.053 -0.4203 -0.4983  0.0835
   21MOL   C25511495   5.953   8.013   3.064 -0.0003  0.1649 -0.2450
   21MOL   C25611496   5.861   0.006   2.989  0.1344 -0.6865 -0.2958
   21MOL   C25711497   5.887   8.093   2.835 -0.5420 -0.7278 -0.3140
   21MOL   C25811498   5.757   0.037   2.755  0.3481  0.6105  0.4400
   21MOL   O25911499   5.774   0.023   2.612  0.2931 -0.2845  0.0302
   21MOL   C26011500   5.728   8.012   2.548 -0.0473  1.0502 -0.2363
   21MOL   O26111501   5.682   7.915   2.613 -0.2065  0.1165 -0.4898
   21MOL   C26211502   5.751   8.019   2.398 -0.1215 -0.3655 -0.1105
   21MOL   C26311503   5.726   7.906   2.324  0.9024  0.6194  0.7620
   21MOL   C26411504   5.756   7.909   2.181  0.5178 -0.8730  0.2092
   21MOL   C26511505   5.823   8.018   2.118 -0.2333  0.1484  0.1264
   21MOL   C26611506   5.864   8.002   1.974  0.0084 -0.2296  0.0649
   21MOL   O26711507   5.843   7.898   1.905  0.5051  0.1262 -0.1134
   21MOL   C26811508   5.852   0.033   2.197  0.6984  0.5754 -0.9017
   21MOL   C26911509   5.817   0.034   2.337 -0.2516  0.1191 -0.1407
   21MOL   H27011510   5.941   7.909   3.033  0.9077 -0.5784  1.8464
   21MOL   H27111511   5.919   8.015   3.167 -3.4240 -0.3349 -1.3010
   21MOL   H27211512   5.869   0.109   3.021 -0.3513 -0.5568 -0.5816
   21MOL   H27311513   5.759   8.071   3.008  0.5160 -2.4595 -1.2439
   21MOL   H27411514   5.973   0.058   2.812 -1.1344  0.4907  0.8024
   21MOL   H27511515   5.905   7.986   2.823  1.4784 -0.3554 -0.8231
   21MOL   H27611516   5.671   8.078   2.790  0.3015 -0.0951 -0.8072
   21MOL   H27711517   5.741   0.143   2.775 -2.0544  0.3710 -0.0222
   21MOL   H27811518   5.683   7.815   2.364 -0.2430  0.2256 -1.2781
   21MOL   H27911519   5.747   7.821   2.119  0.7584 -0.7070 -0.0641
   21MOL   H28011520   5.893   0.123   2.152  0.6551  0.5279 -1.0359
   21MOL   H28111521   5.847   0.123   2.390 -2.2368 -0.2841  1.6763
   21MOL   O28211522   5.931   0.012   1.929 -0.0564 -0.5717 -0.1559
   21MOL   C28311523   5.998   0.005   1.799 -0.2616  0.2000 -0.5002
   21MOL   C28411524   6.058   0.139   1.756  0.2317  0.7700 -0.3742
   21MOL   C28511525   6.160   0.203   1.849 -0.3629 -0.1982  0.5640
   21MOL   C28611526   6.101   0.251   1.979 -0.3201  0.7948  0.1478
   21MOL   O28711527   6.203   0.323   2.050  0.0113  0.0512 -0.4280
   21MOL   C28811528   6.240   0.436   2.018 -0.6734 -0.9287  0.5486
   21MOL   O28911529   6.173   0.520   1.952 -0.3358  0.1242  0.0622
   21MOL   C29011530   6.367   0.477   2.082 -0.1354 -0.2471 -0.0216
   21MOL   C29111531   6.459   0.567   2.019 -0.1337  0.1021 -0.2528
   21MOL   C29211532   6.578   0.612   2.075  0.1825  0.6453  0.0153
   21MOL   C29311533   6.605   0.568   2.209 -0.8103  0.7644  0.7970
   21MOL   C29411534   6.723   0.616   2.286 -0.9700  0.7754  0.2342
   21MOL   O29511535   6.745   0.600   2.401 -0.2784  0.1830 -0.2688
   21MOL   C29611536   6.525   0.478   2.274 -0.3428  0.4934  0.1511
   21MOL   C29711537   6.406   0.427   2.208 -0.3946 -0.5958 -0.0081
   21MOL   H29811538   6.081   8.035   1.815 -2.0172 -1.5575  1.4756
   21MOL   H29911539   5.940   8.070   1.714  2.2157 -0.3581 -2.0205
   21MOL   H30011540   5.974   0.204   1.729  0.6884  1.7194  0.4380
   21MOL   H30111541   6.113   0.118   1.664  2.7318 -1.1524  1.4826
   21MOL   H30211542   6.242   0.135   1.873 -0.5141 -0.9712 -1.0369
   21MOL   H30311543   6.195   0.284   1.786 -2.1491 -0.9519 -1.4723
   21MOL   H30411544   6.009   0.306   1.961 -0.8803  0.1091  0.8798
   21MOL   H30511545   6.079   0.163   2.040  0.0795 -0.8988 -2.0963
   21MOL   H30611546   6.429   0.594   1.919  0.9916 -1.4580 -1.0398
   21MOL   H30711547   6.638   0.681   2.018  0.0896  0.8273  0.1364
   21MOL   H30811548   6.543   0.451   2.377  1.9625 -0.6490 -0.5201
   21MOL   H30911549   6.352   0.347   2.256  0.1975  0.2114  2.0626
   21MOL   O31011550   6.802   0.691   2.202  0.2306 -0.1534 -0.0302
   21MOL   C31111551   6.928   0.750   2.247  0.6306 -0.5609 -0.3038
   21MOL   C31211552   6.962   0.819   2.109  0.2010 -0.3302 -0.7458
   21MOL   C31311553   7.008   0.723   1.994  0.2999 -0.0180 -0.1332
   21MOL   C31411554   7.033   0.790   1.860  0.6703  0.3178  0.3015
   21MOL   O31511555   7.135   0.891   1.879  0.2926 -0.0055 -0.2084
   21MOL   C31611556   7.202   0.928   1.770  0.2567  0.2738 -0.1456
   21MOL   O31711557   7.176   0.893   1.656  0.0050  0.1777  0.2880
   21MOL   C31811558   7.309   1.028   1.797 -0.2034 -0.8594  0.4961
   21MOL   C31911559   7.383   1.082   1.691 -0.2222 -0.4472  0.7990
   21MOL   C32011560   7.475   1.194   1.706  0.0420 -0.2244 -0.1990
   21MOL   C32111561   7.495   1.249   1.839  1.1557 -0.0544  1.2364
   21MOL   C32211562   7.604   1.347   1.859 -0.4732  0.0229 -0.3645
   21MOL   O32311563   7.678   1.379   1.764 -0.0774 -0.4169 -0.1503
   21MOL   C32411564   7.409   1.205   1.935 -0.0452  0.3632  0.0475
   21MOL   C32511565   7.320   1.099   1.918  0.9768 -0.0746 -0.3506
   21MOL   H32611566   6.909   0.820   2.328  0.9040 -0.0218 -0.6996
   21MOL   H32711567   7.007   0.679   2.271  1.8623  0.9675  0.2475
   21MOL   H32811568   7.040   0.894   2.121 -0.5419  0.2376  0.7551
   21MOL   H32911569   6.870   0.866   2.075 -1.4958 -3.0963 -0.1810
   21MOL   H33011570   7.096   0.671   2.033 -0.3713 -2.1838 -1.3996
   21MOL   H33111571   6.950   0.631   1.990  2.0671 -1.0659 -2.9972
   21MOL   H33211572   7.062   0.711   1.790 -0.4672  1.5245 -1.5565
   21MOL   H33311573   6.945   0.838   1.817  0.6389 -0.5555 -0.6449
   21MOL   H33411574   7.363   1.038   1.595 -0.4111  1.5332 -0.0921
   21MOL   H33511575   7.509   1.241   1.615  0.8830  0.0707  0.2704
   21MOL   H33611576   7.402   1.250   2.033  0.5302  2.0564 -0.6701
   21MOL   H33711577   7.254   1.073   2.000  0.3748  0.8229 -0.5324
   21MOL   O33811578   7.614   1.395   1.988 -0.1059  0.0550  0.2370
   21MOL   C33911579   7.734   1.467   2.034 -0.1996  0.3466 -0.3043
   21MOL   C34011580   7.824   1.370   2.115 -0.1400  0.3366 -0.2751
   21MOL   C34111581   7.928   1.437   2.208 -0.3387 -0.4624 -0.1767
   21MOL   C34211582   8.024   1.344   2.286  0.2544 -0.5101 -0.0529
   21MOL   O34311583   7.958   1.220   2.308 -0.1776 -0.4754  0.0045
   21MOL   C34411584   7.911   1.191   2.437 -0.3544  0.8177 -0.5527
   21MOL   O34511585   7.921   1.268   2.533 -0.0843 -0.7176  0.0000
   21MOL   C34611586   7.846   1.061   2.447 -0.1338 -0.2995 -0.3189
   21MOL   C34711587   7.786   1.013   2.567 -0.0065 -0.1424 -0.4755
   21MOL   C34811588   7.730   0.882   2.584 -0.2848 -0.3503  0.0796
   21MOL   C34911589   7.729   0.801   2.465 -0.4698 -0.0416  0.8513
   21MOL   C35011590   7.687   0.657   2.480  0.0750  0.0552  0.5848
   21MOL   O35111591   7.702   0.569   2.391  0.0524 -0.0088 -0.0164
   21MOL   C35211592   7.786   0.845   2.348 -0.2476  1.1192 -0.2099
   21MOL   C35311593   7.842   0.975   2.334 -1.0443  0.1067 -0.1893
   21MOL   H35411594   7.771   1.505   1.939  0.9463 -1.2614 -0.5230
   21MOL   H35511595   7.699   1.550   2.094 -1.4736 -0.8801  0.6968
   21MOL   H35611596   7.868   1.302   2.042  1.0996  0.5863  0.2200
   21MOL   H35711597   7.763   1.314   2.186 -0.2351  0.5262 -0.2073
   21MOL   H35811598   7.981   1.500   2.136 -0.9386  0.8464  0.5191
   21MOL   H35911599   7.884   1.501   2.284  1.4205  0.2383  0.2822
   21MOL   H36011600   0.012   1.333   2.220 -0.8927  0.0038 -1.6682
   21MOL   H36111601   8.056   1.388   2.381  0.5057 -0.0971 -0.3261
   21MOL   H36211602   7.775   1.075   2.654  1.8999 -0.1952 -0.1832
   21MOL   H36311603   7.699   0.841   2.679  1.5444 -1.9958  0.0018
   21MOL   H36411604   7.787   0.776   2.265 -0.9481 -0.3445  0.9807
   21MOL   H36511605   7.890   1.006   2.242 -0.0435  1.0926  0.6474
   21MOL   O36611606   7.628   0.625   2.600  0.3207  0.0239  0.3651
   21MOL   C36711607   7.587   0.494   2.617 -0.9255 -1.1616  0.0262
   21MOL   C36811608   7.451   0.468   2.548  0.1928  0.4625 -0.2895
   21MOL   C36911609   7.373   0.344   2.596 -0.6802  0.9988  0.7185
   21MOL   C37011610   7.318   0.354   2.739 -0.1773  0.2346  0.6999
   21MOL   O37111611   7.215   0.451   2.740  0.7156 -0.0280 -0.3675
   21MOL   C37211612   7.163   0.477   2.864 -0.4447 -0.1010  0.7773
   21MOL   O37311613   7.207   0.432   2.965  0.4974 -0.2573 -0.4345
   21MOL   C37411614   7.041   0.563   2.861 -0.5705  0.4636 -0.2167
   21MOL   C37511615   6.971   0.596   2.743 -0.9436  0.5928 -0.3060
   21MOL   C37611616   6.861   0.681   2.751  0.1397 -0.2164  0.1730
   21MOL   C37711617   6.824   0.743   2.872  0.0483 -0.3169 -0.2736
   21MOL   C37811618   6.721   0.841   2.878  0.0100  0.7249 -0.1245
   21MOL   O37911619   6.717   0.925   2.970  0.4089  0.1672 -0.2121
   21MOL   C38011620   6.878   0.691   2.991 -0.1812  0.0475 -0.6334
   21MOL   C38111621   6.991   0.616   2.982 -0.4356 -0.1942 -0.6644
   21MOL   H38211622   7.656   0.420   2.576  1.1051 -0.3279  1.8791
   21MOL   H38311623   7.573   0.477   2.724  0.5750  4.2535  1.2344
   21MOL   H38411624   7.463   0.466   2.440 -1.0092  1.4704 -0.4544
   21MOL   H38511625   7.387   0.554   2.566  0.5519  0.6812 -0.0437
   21MOL   H38611626   7.293   0.320   2.526  0.0160 -1.0738  0.6027
   21MOL   H38711627   7.423   0.253   2.565  0.0158  0.9835  1.8544
   21MOL   H38811628   7.279   0.264   2.788 -0.5230 -0.6004 -1.0829
   21MOL   H38911629   7.401   0.387   2.802 -0.3999 -0.4441  1.3669
   21MOL   H39011630   7.002   0.549   2.651 -0.5377 -1.9410  1.0690
   21MOL   H39111631   6.816   0.718   2.660  1.1165  0.9298  0.1320
   21MOL   H39211632   6.836   0.727   3.084  0.1197  2.0135 -1.2248
   21MOL   H39311633   7.036   0.598   3.078 -2.1699 -0.3371  0.1237
   21MOL   O39411634   6.641   0.849   2.764 -0.4626 -0.7444  0.2085
   21MOL   C39511635   6.523   0.927   2.769  0.1174 -0.3339  0.5824
   21MOL   C39611636   6.473   0.940   2.619  0.0743 -0.3504 -0.7115
   21MOL   C39711637   6.326   0.965   2.620  0.1486  0.1137 -0.0602
   21MOL   C39811638   6.293   1.112   2.637  0.0118  0.0983 -0.7294
   21MOL   O39911639   6.350   1.205   2.547 -0.1092 -0.2953  0.2975
   21MOL   C40011640   6.293   1.234   2.431 -0.5873 -0.6235  0.0809
   21MOL   O40111641   6.175   1.194   2.399  0.6014 -0.8255 -0.2031
   21MOL   C40211642   6.365   1.326   2.335  0.3388 -0.5203  0.2029
   21MOL   C40311643   6.313   1.368   2.210 -0.5359 -0.2528 -0.5201
   21MOL   C40411644   6.385   1.455   2.128  0.8048 -0.6351  0.3571
   21MOL   C40511645   6.512   1.499   2.164 -0.6432  0.7527  0.4382
   21MOL   C40611646   6.582   1.605   2.087  0.0579 -0.3918  0.1035
   21MOL   O40711647   6.709   1.618   2.100 -0.1082 -0.0033 -0.7192
   21MOL   C40811648   6.563   1.457   2.288 -0.0065  0.2996 -0.1016
   21MOL   C40911649   6.489   1.370   2.371  0.0346  0.3126  0.8937
   21MOL   H41011650   6.450   0.884   2.838  0.2673 -1.0503  0.3048
   21MOL   H41111651   6.541   1.027   2.808  1.2521  0.5338 -2.0625
   21MOL   H41211652   6.495   0.851   2.560  0.3632 -1.0044  0.3746
   21MOL   H41311653   6.512   1.024   2.562 -1.8092  1.0544  0.0099
   21MOL   H41411654   6.283   0.918   2.531  0.9708 -1.4796  0.3744
   21MOL   H41511655   6.285   0.907   2.702 -1.7272  1.3799 -0.0609
   21MOL   H41611656   6.186   1.129   2.647 -0.2490 -0.9508 -1.6181
   21MOL   H41711657   6.330   1.149   2.733 -1.2318 -0.2184 -0.1111
   21MOL   H41811658   6.224   1.322   2.169  0.1283  0.4672 -2.8196
   21MOL   H41911659   6.347   1.491   2.033  0.3040  1.0721  1.1734
   21MOL   H42011660   6.660   1.492   2.320  1.6875 -0.6773 -3.7795
   21MOL   H42111661   6.530   1.352   2.470  0.5464  1.2539  0.8616
   21MOL   O42211662   6.511   1.673   1.988 -0.2745 -0.2455  0.1652
   21MOL   C42311663   6.583   1.748   1.890 -0.1065  0.3555  0.5090
   21MOL   C42411664   6.628   1.888   1.931  0.4046 -0.1514  0.4079
   21MOL   C42511665   6.502   1.982   1.920 -0.1758  0.6785 -0.0475
   21MOL   C42611666   6.520   2.102   2.012 -0.6936 -0.2553  0.5113
   21MOL   O42711667   6.634   2.175   1.979 -0.1226  0.2211  0.4366
   21MOL   C42811668   6.630   2.316   1.981 -0.1552 -0.3853  0.1591
   21MOL   O42911669   6.538   2.383   2.030 -0.0205  0.6734  0.5346
   21MOL   C43011670   6.756   2.376   1.919  0.5627 -0.6379  0.0728
   21MOL   C43111671   6.850   2.312   1.839  0.0571 -0.9310  0.5104
   21MOL   C43211672   6.967   2.381   1.798 -0.3267 -0.0332 -0.2390
   21MOL   C43311673   6.989   2.516   1.833 -0.2773  0.5717 -0.0594
   21MOL   C43411674   7.125   2.581   1.800  0.1989 -0.9163 -0.4182
   21MOL   O43511675   7.214   2.525   1.741 -0.0490 -0.5513  0.1337
   21MOL   C43611676   6.887   2.589   1.891  0.4540 -0.2307  0.1284
   21MOL   C43711677   6.777   2.517   1.938  0.4754  0.5644 -0.4979
   21MOL   H43811678   6.670   1.692   1.856 -0.0548  1.0055 -0.4541
   21MOL   H43911679   6.520   1.769   1.803 -1.0020  0.8014  1.2590
   21MOL   H44011680   6.712   1.923   1.872 -0.0687  1.5369  0.6939
   21MOL   H44111681   6.670   1.882   2.031  0.0328  0.0685  0.5788
   21MOL   H44211682   6.495   2.010   1.814 -0.2653 -1.0253 -0.5046
   21MOL   H44311683   6.408   1.933   1.943  0.3691 -1.6226 -2.4813
   21MOL   H44411684   6.435   2.171   2.009 -1.4629 -1.1791  0.8603
   21MOL   H44511685   6.531   2.073   2.117 -0.2009  0.1746  0.5815
   21MOL   H44611686   6.841   2.207   1.816  2.3779 -1.4337  1.7147
   21MOL   H44711687   7.043   2.335   1.736  1.0454 -0.3386  1.6439
   21MOL   H44811688   6.884   2.695   1.912 -0.2698 -0.6073  2.0206
   21MOL   H44911689   6.701   2.565   1.998 -0.4085 -1.3957  0.0204
   21MOL   O45011690   7.129   2.708   1.838  0.2914 -0.6463 -0.1163
   21MOL   C45111691   7.255   2.780   1.831 -0.3891  0.7782  0.0241
   21MOL   C45211692   7.251   2.918   1.894 -0.3066 -0.1859  0.5779
   21MOL   C45311693   7.391   2.962   1.926 -0.6281 -0.1091  1.0703
   21MOL   C45411694   7.386   3.095   2.007 -0.1062 -0.1825 -0.5796
   21MOL   O45511695   7.395   3.197   1.908 -0.1931 -0.5323 -0.5464
   21MOL   C45611696   7.392   3.324   1.952 -0.1280 -0.5558  0.0540
   21MOL   O45711697   7.385   3.370   2.066 -0.3020 -0.0417  0.0244
   21MOL   C45811698   7.375   3.415   1.827  0.2020  0.5782  0.2314
   21MOL   C45911699   7.388   3.361   1.696 -0.3475  0.0679 -0.0066
   21MOL   C46011700   7.373   3.439   1.577 -0.2391 -0.4760 -0.7729
   21MOL   C46111701   7.333   3.577   1.590  0.5617  0.5823 -0.1483
   21MOL   C46211702   7.317   3.667   1.469 -0.2943 -0.1004  0.1371
   21MOL   O46311703   7.336   3.626   1.354 -0.0921 -0.0861 -0.1266
   21MOL   C46411704   7.309   3.631   1.718 -0.2768 -0.0370 -0.1547
   21MOL   C46511705   7.333   3.554   1.838  0.4436  0.0029  0.2474
   21MOL   H46611706   7.334   2.721   1.879 -0.7972 -0.1237 -0.3956
   21MOL   H46711707   7.284   2.787   1.726  0.6240  0.6572  0.2898
   21MOL   H46811708   7.184   2.915   1.980  1.3198  4.6014  2.1586
   21MOL   H46911709   7.197   2.991   1.833 -1.4489  0.4593  2.3239
   21MOL   H47011710   7.445   2.889   1.986  2.1840  0.6398 -0.4324
   21MOL   H47111711   7.457   2.949   1.840 -3.0185 -2.1424 -0.5162
   21MOL   H47211712   7.294   3.101   2.065  0.3264 -3.0458  0.5254
   21MOL   H47311713   7.466   3.112   2.079  1.5954  5.3544 -3.5167
   21MOL   H47411714   7.418   3.258   1.686  0.8653  0.4416 -0.2702
   21MOL   H47511715   7.387   3.396   1.478  0.5868  0.6043 -1.1365
   21MOL   H47611716   7.275   3.733   1.726  1.9866  0.6510  0.9704
   21MOL   H47711717   7.311   3.601   1.934  0.0593  1.0909 -0.3603
   21MOL   O47811718   7.295   3.797   1.502  1.2820 -0.0872  0.2191
   21MOL   C47911719   7.287   3.899   1.399 -0.7693 -0.3546 -0.4437
   21MOL   C48011720   7.424   3.942   1.361 -0.6653 -0.4251 -0.0087
   21MOL   C48111721   7.423   4.043   1.240  0.0105  0.9420 -0.9912
   21MOL   C48211722   7.556   4.115   1.196  0.2384 -0.4252 -0.1133
   21MOL   O48311723   7.655   4.028   1.153  0.0655 -0.2960 -0.1344
   21MOL   C48411724   7.758   4.001   1.238  0.1972  0.0242 -0.0930
   21MOL   O48511725   7.778   4.062   1.339  0.0329  0.2851  0.1045
   21MOL   C48611726   7.849   3.889   1.186 -1.2951  0.2137 -0.2404
   21MOL   C48711727   7.949   3.844   1.282 -0.2837  0.1351  0.1090
   21MOL   C48811728   8.035   3.741   1.247 -0.6107  0.0923  0.5660
   21MOL   C48911729   8.032   3.684   1.116  0.4748 -0.0510 -0.0319
   21MOL   C49011730   0.028   3.574   1.064  0.1213  0.4150 -0.4888
   21MOL   O49111731   0.018   3.519   0.952  0.7148  0.5059  0.1735
   21MOL   C49211732   7.938   3.730   1.024  0.7276  0.3474  0.4681
   21MOL   C49311733   7.844   3.832   1.058 -0.8887  0.4223  0.1508
   21MOL   H49411734   7.231   3.866   1.311 -3.9219 -2.2859  2.1405
   21MOL   H49511735   7.224   3.981   1.433  0.4985  0.4884 -0.0941
   21MOL   H49611736   7.486   3.853   1.352 -1.3874 -0.9316 -0.0494
   21MOL   H49711737   7.480   3.994   1.439 -0.4808  1.2826 -1.2448
   21MOL   H49811738   7.385   3.987   1.154 -0.0673 -1.0744  0.3272
   21MOL   H49911739   7.366   4.130   1.273  1.1118  0.7101  1.6195
   21MOL   H50011740   7.528   4.181   1.115  0.4317  0.3148  0.4173
   21MOL   H50111741   7.581   4.181   1.280  1.1012 -0.2086 -0.5314
   21MOL   H50211742   7.973   3.897   1.373  0.9532 -0.3351  0.0682
   21MOL   H50311743   0.003   3.707   1.325 -0.5155  0.7222  0.7594
   21MOL   H50411744   7.928   3.685   0.926 -1.5136 -0.2402  0.9491
   21MOL   H50511745   7.775   3.874   0.986 -0.0325 -0.5549 -1.2477
   21MOL   O50611746   0.138   3.556   1.140  0.3731 -0.5424  0.0174
   21MOL   C50711747   0.232   3.454   1.115  0.3964 -0.6548  1.1120
   21MOL   C50811748   0.367   3.509   1.078 -0.5811 -0.0420  0.5763
   21MOL   C50911749   0.419   3.617   1.170  0.5021 -0.1888 -0.0064
   21MOL   C51011750   0.405   3.597   1.327 -0.1161  0.3672  0.3959
   21MOL   O51111751   0.445   3.720   1.392  0.0039 -0.2800 -0.4430
   21MOL   C51211752   0.369   3.828   1.421  0.1911  0.8136  0.1213
   21MOL   O51311753   0.253   3.837   1.389  0.0721  0.2856  0.3640
   21MOL   C51411754   0.440   3.941   1.489 -0.0545 -0.5810 -0.0973
   21MOL   C51511755   0.383   4.066   1.516 -0.0974 -0.4397  0.0723
   21MOL   C51611756   0.457   4.175   1.578 -0.1918 -0.2784  0.6241
   21MOL   C51711757   0.592   4.158   1.604  0.0797  0.1901  0.1030
   21MOL   C51811758   0.674   4.278   1.644 -0.2604  1.1367  0.2511
   21MOL   O51911759   0.800   4.277   1.657 -0.0472  0.3225 -0.0659
   21MOL   C52011760   0.644   4.022   1.601 -0.2237 -0.0590 -0.4753
   21MOL   C52111761   0.573   3.918   1.539  0.1202 -0.1157  0.0962
   21MOL   H52211762   0.230   3.394   1.206 -3.1749 -1.0875  0.7957
   21MOL   H52311763   0.190   3.372   1.058 -0.6185  0.7262 -0.1681
   21MOL   H52411764   0.368   3.532   0.972  1.2731 -0.3047  0.5106
   21MOL   H52511765   0.443   3.432   1.096  0.6794  1.5621  2.2873
   21MOL   H52611766   0.527   3.631   1.166  0.6070 -0.2401  2.1025
   21MOL   H52711767   0.367   3.710   1.150 -0.1522 -0.8025 -1.1857
   21MOL   H52811768   0.316   3.547   1.364 -0.5410  1.0129  0.2671
   21MOL   H52911769   0.476   3.518   1.351 -0.3601  0.0299  0.0252
   21MOL   H53011770   0.278   4.069   1.490 -0.1202 -2.6709 -0.1623
   21MOL   H53111771   0.408   4.270   1.583  0.6805  0.2677 -0.6546
   21MOL   H53211772   0.747   4.007   1.630  0.4160  3.0862 -0.9811
   21MOL   H53311773   0.623   3.823   1.533  0.3004 -0.0090 -0.0847
   21MOL   O53411774   0.594   4.376   1.679  0.2349 -0.2296  0.2694
   21MOL   C53511775   0.645   4.497   1.716 -0.1088  0.7626 -0.1198
   21MOL   C53611776   0.696   4.509   1.861 -0.7210 -0.5372  0.3109
   21MOL   C53711777   0.584   4.533   1.953 -0.0500 -0.2954 -0.3682
   21MOL   C53811778   0.635   4.558   2.097 -0.0226 -0.2588  1.0348
   21MOL   O53911779   0.698   4.685   2.118  0.4806  0.0928  0.4014
   21MOL   C54011780   0.761   4.716   2.235 -0.0180 -0.7857  0.4220
   21MOL   O54111781   0.776   4.637   2.326 -0.2327  0.2103  0.3180
   21MOL   C54211782   0.800   4.862   2.238 -0.6859 -0.8617  0.5257
   21MOL   C54311783   0.878   4.909   2.345 -0.0659 -0.1449  0.0329
   21MOL   C54411784   0.929   5.043   2.345  0.1494 -0.0783 -0.1168
   21MOL   C54511785   0.899   5.134   2.248  0.4087 -0.0325 -0.8120
   21MOL   C54611786   0.928   5.284   2.268 -0.1915  0.3335 -0.5271
   21MOL   O54711787   0.969   5.344   2.366 -0.0873 -0.3649  0.2140
   21MOL   C54811788   0.816   5.093   2.139  0.2237 -0.4986 -1.1113
   21MOL   C54911789   0.763   4.956   2.137  0.2184  0.4004  0.1785
   21MOL   H55011790   0.723   4.531   1.648 -0.7968  1.9559 -0.3279
   21MOL   H55111791   0.574   4.576   1.693  1.9428  2.2859 -1.4188
   21MOL   H55211792   0.752   4.603   1.865 -0.6339 -0.5849  0.2287
   21MOL   H55311793   0.756   4.427   1.902  3.7933  2.8280  0.8787
   21MOL   H55411794   0.527   4.621   1.921  0.7430  1.4070  2.7064
   21MOL   H55511795   0.510   4.453   1.960 -0.0547 -0.0339  3.1642
   21MOL   H55611796   0.556   4.561   2.172 -1.9113  1.0420 -0.9308
   21MOL   H55711797   0.693   4.469   2.123  0.0255 -0.3437  0.6410
   21MOL   H55811798   0.910   4.844   2.424  0.7330 -0.7190 -0.7552
   21MOL   H55911799   0.970   5.082   2.437 -1.8275  1.2438  0.2373
   21MOL   H56011800   0.776   5.162   2.067  1.7653 -2.2999 -3.7898
   21MOL   H56111801   0.698   4.928   2.055 -0.1456  0.6587  0.3771
   21MOL   H56211802   0.902   5.335   2.176 -0.9708  0.4132 -0.2628
   22MOL     O111803   4.590   2.002   8.080 -0.0032  0.1112  0.3476
   22MOL     C211804   4.582   1.903   0.079 -0.1493 -0.1993  0.1035
   22MOL     C311805   4.559   1.770   0.009  0.5016  0.6250  0.2128
   22MOL     C411806   4.576   1.645   0.094 -0.3018 -0.0797 -0.3589
   22MOL     C511807   4.483   1.637   0.216  0.2505  0.7376 -0.4856
   22MOL     O611808   4.353   1.590   0.172  0.6874  0.3008  0.6344
   22MOL     C711809   4.252   1.678   0.158 -0.1085  0.2438 -0.5781
   22MOL     O811810   4.266   1.799   0.174  0.7058 -1.0197 -0.2859
   22MOL     C911811   4.127   1.608   0.123 -0.2103  0.2144  0.4468
   22MOL    C1011812   4.099   1.472   0.133 -0.2966  0.3904  0.0832
   22MOL    C1111813   3.967   1.423   0.111  0.1315 -0.4643 -0.6604
   22MOL    C1211814   3.866   1.504   0.052  0.2559 -0.4501  0.2473
   22MOL    C1311815   3.728   1.455   0.025 -0.0841 -0.5439  0.2963
   22MOL    O1411816   3.629   1.530   0.004 -0.1559 -0.1473  0.5738
   22MOL    C1511817   3.897   1.639   0.026 -0.5609  0.0196  0.5495
   22MOL    C1611818   4.026   1.687   0.058 -0.3070  0.3863  0.0984
   22MOL    H1711819   4.683   1.902   0.120 -0.3729 -0.3757  0.6566
   22MOL    H1811820   4.512   1.921   0.161 -0.0832  1.0922 -0.1182
   22MOL    H1911821   4.618   1.774   8.016  0.7138 -0.1811  0.3087
   22MOL    H2011822   4.454   1.769   8.078  1.2871 -0.9539 -2.7376
   22MOL    H2111823   4.567   1.549   0.043  1.9058  0.2910 -1.5446
   22MOL    H2211824   4.681   1.641   0.124 -0.5585 -2.6655  0.3175
   22MOL    H2311825   4.520   1.566   0.291  1.2101 -0.4348 -2.0350
   22MOL    H2411826   4.470   1.733   0.266  2.8719  0.0412  1.7240
   22MOL    H2511827   4.164   1.403   0.184  1.1949  0.5507 -1.5547
   22MOL    H2611828   3.940   1.327   0.153  1.1722 -1.8260 -2.9932
   22MOL    H2711829   3.827   1.715   8.093  2.4654  2.5704 -0.2618
   22MOL    H2811830   4.046   1.791   0.034 -1.0436  0.9073  1.7064
   22MOL    H2911831   4.603   2.085   0.024  3.9334 -0.3588  0.2507
   22MOL    O3011832   3.724   1.321   0.028 -0.2827  0.0091  0.4280
   22MOL    C3111833   3.589   1.259   0.025 -0.0043 -0.4051  0.4089
   22MOL    C3211834   3.535   1.240   0.166  0.3510  0.1396  0.1584
   22MOL    C3311835   3.498   1.376   0.236  0.3481 -0.1210  0.1389
   22MOL    C3411836   3.427   1.352   0.365 -0.1456  0.5291  0.7302
   22MOL    O3511837   3.508   1.286   0.458  0.4670 -0.5038  0.5140
   22MOL    C3611838   3.569   1.348   0.559  0.5807 -0.1232  0.3914
   22MOL    O3711839   3.570   1.470   0.586 -0.6435 -0.4858  0.4456
   22MOL    C3811840   3.636   1.249   0.652  0.1352  0.3004  0.3578
   22MOL    C3911841   3.644   1.112   0.611 -0.1497 -0.0489 -0.1254
   22MOL    C4011842   3.704   1.023   0.698  0.0170  0.4053  0.5764
   22MOL    C4111843   3.761   1.058   0.816  0.6832 -0.5092  0.1358
   22MOL    C4211844   3.833   0.956   0.897  0.1652  0.2824 -0.2407
   22MOL    O4311845   3.831   0.834   0.868  0.3299  0.1723 -0.0254
   22MOL    C4411846   3.746   1.187   0.858 -0.6814 -1.4689 -0.2885
   22MOL    C4511847   3.698   1.285   0.776 -0.4582  0.1242 -0.4245
   22MOL    H4611848   3.520   1.320   8.066  0.0504  0.3520  1.1311
   22MOL    H4711849   3.601   1.170   8.062 -2.2368  1.0306 -2.1747
   22MOL    H4811850   3.619   1.192   0.216  0.3591  0.5439  0.5422
   22MOL    H4911851   3.465   1.157   0.170  3.9288 -2.9555  0.6223
   22MOL    H5011852   3.584   1.443   0.237  0.5220 -0.3210 -0.7650
   22MOL    H5111853   3.429   1.431   0.171  0.2478 -0.6972 -0.2424
   22MOL    H5211854   3.377   1.440   0.404  0.6797  1.5140 -0.3833
   22MOL    H5311855   3.353   1.274   0.348  1.1125 -0.0129 -2.8066
   22MOL    H5411856   3.600   1.082   0.517 -1.5970  1.5215  0.0197
   22MOL    H5511857   3.710   0.920   0.666 -0.5999  0.3276  0.7033
   22MOL    H5611858   3.777   1.211   0.959  1.1280 -2.0844 -0.6652
   22MOL    H5711859   3.684   1.390   0.797 -0.3279  0.1316 -0.3713
   22MOL    O5811860   3.896   1.008   1.010 -0.1030 -0.8532  0.2602
   22MOL    C5911861   3.969   0.919   1.094  0.4177  0.0385  0.3362
   22MOL    C6011862   4.100   0.995   1.117  0.1430  0.6031  0.1802
   22MOL    C6111863   4.207   1.000   1.010  0.2293  0.0164 -0.1916
   22MOL    C6211864   4.192   0.887   0.907  0.1383  0.0729  1.3024
   22MOL    O6311865   4.191   0.758   0.954  0.8793 -0.2612 -0.3360
   22MOL    C6411866   4.160   0.652   0.889  0.1795 -0.3847 -0.0926
   22MOL    O6511867   4.151   0.641   0.764  0.2751 -0.0926  0.0448
   22MOL    C6611868   4.131   0.538   0.980 -0.3109  0.0817  0.3146
   22MOL    C6711869   4.162   0.542   1.117  0.5022 -0.0716  0.1290
   22MOL    C6811870   4.108   0.439   1.193 -0.0150 -0.6045  0.1864
   22MOL    C6911871   4.051   0.320   1.143  0.2135  0.3911  0.3510
   22MOL    C7011872   4.003   0.198   1.224  0.0930  0.2153  0.3136
   22MOL    O7111873   3.954   0.092   1.183 -0.4652  0.2441 -0.6423
   22MOL    C7211874   4.031   0.314   1.003 -0.1495 -0.0739  0.3090
   22MOL    C7311875   4.061   0.426   0.924  0.5561 -0.5619 -0.2038
   22MOL    H7411876   3.906   0.910   1.182 -0.9601 -1.2819 -0.7444
   22MOL    H7511877   3.984   0.819   1.051  0.0825 -0.0578  0.4453
   22MOL    H7611878   4.152   0.951   1.202 -1.8728 -1.5475  0.3606
   22MOL    H7711879   4.077   1.097   1.144  0.2735  0.6391  0.1571
   22MOL    H7811880   4.189   1.093   0.955  0.3998 -0.3572 -0.8812
   22MOL    H7911881   4.307   0.996   1.053 -0.0754 -1.9698  0.3740
   22MOL    H8011882   4.099   0.896   0.851  1.9782  1.7903 -1.6401
   22MOL    H8111883   4.262   0.889   0.824  0.8906  0.7292  1.9491
   22MOL    H8211884   4.212   0.629   1.156 -0.8362  0.8012 -0.0534
   22MOL    H8311885   4.126   0.432   1.299  1.9407 -1.0236 -0.1511
   22MOL    H8411886   3.991   0.224   0.960  1.5817 -0.4657 -0.4976
   22MOL    H8511887   4.039   0.426   0.818 -1.6942 -2.3447  0.2330
   22MOL    O8611888   4.045   0.211   1.352  0.1916 -0.1696 -0.1080
   22MOL    C8711889   4.018   0.115   1.457  0.0564  0.7610 -0.4203
   22MOL    C8811890   4.041   0.187   1.596  0.3324 -0.0852 -0.2090
   22MOL    C8911891   3.918   0.260   1.643  0.2672 -0.5727 -0.1573
   22MOL    C9011892   3.920   0.320   1.792  0.6597  0.0528  0.0727
   22MOL    O9111893   3.810   0.384   1.842 -0.3719  0.8545 -0.0550
   22MOL    C9211894   3.699   0.316   1.872  0.6862 -0.1717  0.7038
   22MOL    O9311895   3.687   0.190   1.877  0.6373 -0.0389  0.0402
   22MOL    C9411896   3.582   0.400   1.918  0.4521 -0.1230 -0.4805
   22MOL    C9511897   3.468   0.343   1.972 -0.3843 -0.4185 -0.8487
   22MOL    C9611898   3.354   0.410   2.013  0.3791  0.0460 -0.1372
   22MOL    C9711899   3.352   0.546   2.006  0.3751 -0.2647 -0.4109
   22MOL    C9811900   3.235   0.628   2.042  0.8296  0.2596  0.2040
   22MOL    O9911901   3.215   0.738   1.985 -0.0675 -0.0488  0.4942
   22MOL   C10011902   3.460   0.613   1.947  0.2766  0.0702  0.3186
   22MOL   C10111903   3.577   0.538   1.904 -0.3516  0.4149  0.6669
   22MOL   H10211904   3.913   0.086   1.459 -0.3324  2.1411 -0.0395
   22MOL   H10311905   4.068   0.019   1.458 -2.2406 -0.4678 -0.0449
   22MOL   H10411906   4.128   0.252   1.605 -1.5766  2.4339  0.8174
   22MOL   H10511907   4.054   0.105   1.667 -1.2090 -2.8712 -3.0149
   22MOL   H10611908   3.898   0.340   1.572  0.6946  2.5978  3.1178
   22MOL   H10711909   3.829   0.197   1.635 -1.2038  1.3373  0.8624
   22MOL   H10811910   3.951   0.244   1.864  0.5722  0.8461  0.9668
   22MOL   H10911911   4.001   0.391   1.805  0.1927  0.4852  0.6583
   22MOL   H11011912   3.457   0.235   1.972 -1.2007 -0.3412  0.2417
   22MOL   H11111913   3.266   0.353   2.040  0.0590  0.1627 -0.9312
   22MOL   H11211914   3.458   0.720   1.930 -1.2368 -0.0119 -0.1375
   22MOL   H11311915   3.654   0.581   1.841  0.1327 -1.0530  0.2506
   22MOL   O11411916   3.138   0.571   2.125 -0.1976  0.2804 -0.7263
   22MOL   C11511917   3.012   0.639   2.150  0.1067 -0.3734 -0.5042
   22MOL   C11611918   2.899   0.537   2.186  0.3685  0.2615  0.0134
   22MOL   C11711919   2.814   0.606   2.296  0.0072 -0.3442 -0.1596
   22MOL   C11811920   2.682   0.543   2.327 -0.3458  0.5366 -0.5242
   22MOL   O11911921   2.578   0.559   2.229 -0.2918 -0.4788  0.2637
   22MOL   C12011922   2.441   0.536   2.270  0.6375 -0.0973  0.2004
   22MOL   O12111923   2.414   0.493   2.382 -0.0907 -0.1208  0.4220
   22MOL   C12211924   2.340   0.571   2.171  0.2073 -0.4183  0.4304
   22MOL   C12311925   2.386   0.599   2.040  0.1657  0.3813  0.0723
   22MOL   C12411926   2.296   0.652   1.949  0.3737  0.4793  0.8762
   22MOL   C12511927   2.154   0.658   1.978 -0.1632 -0.1996  0.0775
   22MOL   C12611928   2.047   0.706   1.881  0.1303 -0.8439  0.5673
   22MOL   O12711929   1.928   0.704   1.909 -0.2026 -0.2663 -0.4768
   22MOL   C12811930   2.114   0.630   2.112  0.3671  0.1479 -1.2428
   22MOL   C12911931   2.209   0.585   2.213 -0.2479 -0.0025 -0.4937
   22MOL   H13011932   3.038   0.706   2.232  2.9800 -0.4806 -1.2729
   22MOL   H13111933   2.980   0.700   2.066  1.8202  0.1893 -0.7468
   22MOL   H13211934   2.957   0.452   2.223  0.3512  0.3036  0.1372
   22MOL   H13311935   2.843   0.497   2.102 -0.5073 -1.0778  1.2198
   22MOL   H13411936   2.889   0.611   2.374  0.8902 -1.8039 -0.8993
   22MOL   H13511937   2.792   0.712   2.282 -1.1010 -0.6200 -0.5580
   22MOL   H13611938   2.701   0.441   2.361  1.0878 -0.1498 -3.1867
   22MOL   H13711939   2.644   0.594   2.415 -1.5468 -1.9287  0.4155
   22MOL   H13811940   2.491   0.602   2.012 -0.1618  1.4946 -1.0904
   22MOL   H13911941   2.345   0.678   1.856  1.2976  0.8525  1.4621
   22MOL   H14011942   2.009   0.637   2.136  0.5294  0.4445 -0.5937
   22MOL   H14111943   2.188   0.583   2.319 -0.6395 -1.5235 -0.5921
   22MOL   O14211944   2.104   0.755   1.762  0.5786 -0.0759 -0.0506
   22MOL   C14311945   2.032   0.832   1.662  0.8590 -1.0903  0.0845
   22MOL   C14411946   1.970   0.742   1.556  0.3863 -0.6404 -0.4711
   22MOL   C14511947   1.857   0.652   1.594 -0.8689  0.2668  0.0044
   22MOL   C14611948   1.769   0.610   1.481 -0.0953 -0.4065  0.9326
   22MOL   O14711949   1.844   0.533   1.389  0.3494 -0.1676 -0.3388
   22MOL   C14811950   1.784   0.504   1.275  0.5802 -0.6666  0.3650
   22MOL   O14911951   1.670   0.539   1.248  0.5519 -0.2968 -0.4051
   22MOL   C15011952   1.868   0.409   1.199  0.1207 -0.3009  0.3958
   22MOL   C15111953   1.835   0.388   1.065  0.7885 -0.2350 -0.4935
   22MOL   C15211954   1.917   0.306   0.984  0.5091 -0.1716 -0.2981
   22MOL   C15311955   2.031   0.245   1.034  0.3623  0.0585  0.6412
   22MOL   C15411956   2.102   0.135   0.964 -0.2920  0.3544  0.1892
   22MOL   O15511957   2.117   0.131   0.840  0.5571 -0.1363  0.5663
   22MOL   C15611958   2.075   0.280   1.165 -0.4299  0.3499  0.3730
   22MOL   C15711959   1.992   0.363   1.250  0.1152  0.9509  0.4396
   22MOL   H15811960   1.953   0.891   1.709 -0.2027 -1.0651 -1.6697
   22MOL   H15911961   2.106   0.899   1.619 -0.3752 -0.2849 -0.8350
   22MOL   H16011962   2.048   0.688   1.502  1.4248 -1.6861  1.9848
   22MOL   H16111963   1.943   0.805   1.471  1.6363  1.0101  0.3114
   22MOL   H16211964   1.887   0.563   1.650  1.8227  0.0065 -1.7931
   22MOL   H16311965   1.786   0.711   1.651 -1.0673 -0.1263  0.1688
   22MOL   H16411966   1.682   0.552   1.511 -0.4713 -0.2253  0.1960
   22MOL   H16511967   1.727   0.691   1.422  2.1324  1.3427  1.6727
   22MOL   H16611968   1.742   0.426   1.025  1.1753 -0.2613 -1.4285
   22MOL   H16711969   1.887   0.283   0.882  0.4404  1.5961 -0.7075
   22MOL   H16811970   2.165   0.242   1.212 -0.4851  0.7571  0.8086
   22MOL   H16911971   2.031   0.395   1.345  0.3902 -1.3184  1.1159
   22MOL   O17011972   2.140   0.031   1.054  1.0735  0.3080 -0.0404
   22MOL   C17111973   2.207   8.017   1.001  0.1925 -0.0747  0.9185
   22MOL   C17211974   2.353   7.999   1.054 -0.2402 -0.6187 -0.4966
   22MOL   C17311975   2.420   7.861   1.040  0.5399 -0.1867  0.0465
   22MOL   C17411976   2.535   7.849   1.145  0.1175  0.5324  0.0390
   22MOL   O17511977   2.598   7.722   1.135  0.2837  0.5689 -0.3612
   22MOL   C17611978   2.710   7.715   1.199 -0.2806 -0.0575 -0.4756
   22MOL   O17711979   2.738   7.786   1.298 -0.2513 -0.1932 -0.1335
   22MOL   C17811980   2.808   7.614   1.149 -0.3764  0.4150  0.5477
   22MOL   C17911981   2.785   7.562   1.020 -0.0706  0.0805  0.8094
   22MOL   C18011982   2.879   7.475   0.962 -0.1037  0.5221 -0.1132
   22MOL   C18111983   2.998   7.446   1.028  0.2486 -0.2929  0.2874
   22MOL   C18211984   3.096   7.354   0.953  0.8589  0.4468 -0.3988
   22MOL   O18311985   3.083   7.321   0.836 -0.2719  0.1034  0.5403
   22MOL   C18411986   3.028   7.505   1.159  0.3503  0.3663 -0.2596
   22MOL   C18511987   2.931   7.590   1.213 -0.4280 -0.3183  0.9456
   22MOL   H18611988   2.142   7.941   1.044 -1.8169 -0.0644 -1.9560
   22MOL   H18711989   2.205   7.999   0.894  0.0390  0.2193  0.8704
   22MOL   H18811990   2.334   8.006   1.161  0.0319  0.1905 -0.5045
   22MOL   H18911991   2.412   8.088   1.037  2.1051 -1.5776  2.1734
   22MOL   H19011992   2.353   7.776   1.053  2.9039 -2.2439 -0.9007
   22MOL   H19111993   2.455   7.854   0.937 -2.6148  1.6868 -1.2262
   22MOL   H19211994   2.607   7.930   1.129  1.8899 -1.0739 -0.2776
   22MOL   H19311995   2.495   7.864   1.245 -0.8487  1.2815 -0.4485
   22MOL   H19411996   2.712   7.605   0.952  0.0915 -0.5885  0.2094
   22MOL   H19511997   2.881   7.463   0.854 -0.6545  0.3871 -0.1108
   22MOL   H19611998   3.121   7.487   1.211 -0.4325  1.1454  1.4650
   22MOL   H19711999   2.957   7.642   1.304 -1.6421  0.1047  1.0538
   22MOL   O19812000   3.195   7.306   1.028 -0.1879 -0.6199 -0.6087
   22MOL   C19912001   3.297   7.221   0.976  0.0088 -1.0164 -0.2973
   22MOL   C20012002   3.426   7.224   1.059  0.4041 -0.5688 -0.1549
   22MOL   C20112003   3.391   7.229   1.212  0.5151  0.1217  0.0945
   22MOL   C20212004   3.398   7.373   1.262  0.1674 -0.0790  0.5587
   22MOL   O20312005   3.337   7.398   1.381  0.4926  0.3080  0.3234
   22MOL   C20412006   3.390   7.359   1.500 -0.0474 -0.0470 -0.0400
   22MOL   O20512007   3.493   7.287   1.518 -0.5031 -0.3773 -0.2063
   22MOL   C20612008   3.304   7.397   1.619  0.3059  0.1558 -0.3314
   22MOL   C20712009   3.357   7.389   1.752  0.5962 -0.1206  0.3273
   22MOL   C20812010   3.281   7.433   1.861 -0.3949  0.8282  0.4555
   22MOL   C20912011   3.149   7.479   1.848  0.0729 -0.7952  0.2004
   22MOL   C21012012   3.061   7.517   1.957  0.3873 -0.5302  0.0563
   22MOL   O21112013   2.949   7.565   1.942  0.2263  0.4322 -0.2349
   22MOL   C21212014   3.100   7.484   1.713  0.1987 -0.0778  0.6880
   22MOL   C21312015   3.176   7.448   1.599 -0.4856  0.2005  0.6029
   22MOL   H21412016   3.262   7.118   0.969 -2.5811 -0.2214  0.2805
   22MOL   H21512017   3.314   7.260   0.876  0.6954  1.7939  0.8829
   22MOL   H21612018   3.492   7.304   1.026  0.8225 -0.6517  0.4981
   22MOL   H21712019   3.476   7.129   1.043  1.7237  0.0683  0.1758
   22MOL   H21812020   3.292   7.196   1.242  1.1467 -0.9093  1.0936
   22MOL   H21912021   3.464   7.167   1.264 -1.1939 -0.7650  1.4893
   22MOL   H22012022   3.504   7.393   1.283  0.1481 -0.1581  0.7373
   22MOL   H22112023   3.350   7.443   1.194  0.7094  0.5359  0.7981
   22MOL   H22212024   3.461   7.370   1.774  1.1955 -0.2825 -2.4657
   22MOL   H22312025   3.325   7.425   1.960 -2.1064 -0.3571  1.1490
   22MOL   H22412026   2.996   7.510   1.698  0.2164  0.8989  2.1170
   22MOL   H22512027   3.127   7.472   1.505 -0.7861 -2.8935 -0.0845
   22MOL   O22612028   3.103   7.478   2.077 -1.0740 -0.2764 -0.4365
   22MOL   C22712029   3.021   7.478   2.191  0.0057 -0.0549 -0.5430
   22MOL   C22812030   3.115   7.462   2.312  0.3211  0.3939  0.5901
   22MOL   C22912031   3.050   7.477   2.453  0.5624 -1.1066 -0.6298
   22MOL   C23012032   3.033   7.619   2.494 -0.2996  0.2279 -0.3029
   22MOL   O23112033   2.938   7.697   2.430 -0.2920 -0.2886  0.8793
   22MOL   C23212034   2.810   7.675   2.470  0.6161  0.4359 -0.2903
   22MOL   O23312035   2.780   7.609   2.566  0.1784 -0.0356  0.3677
   22MOL   C23412036   2.714   7.737   2.375  0.2484 -0.0364 -0.0413
   22MOL   C23512037   2.761   7.817   2.270  0.8796 -0.3566  0.5929
   22MOL   C23612038   2.665   7.878   2.188  0.0682 -0.0156 -0.2824
   22MOL   C23712039   2.527   7.869   2.216 -1.6431 -0.4466 -0.5708
   22MOL   C23812040   2.429   7.947   2.135  0.3026  0.1697  0.1869
   22MOL   O23912041   2.311   7.949   2.170  0.3152 -0.5743  0.1499
   22MOL   C24012042   2.480   7.782   2.317  0.2219  0.1048 -0.2558
   22MOL   C24112043   2.575   7.712   2.397 -0.3408  0.8321 -0.3911
   22MOL   H24212044   2.955   7.564   2.195 -0.7665 -0.6320 -0.8067
   22MOL   H24312045   2.949   7.398   2.182 -1.0526  0.8220  0.0362
   22MOL   H24412046   3.208   7.519   2.301  0.2232  0.6578  1.1418
   22MOL   H24512047   3.163   7.364   2.306  2.1633  1.1310  2.5102
   22MOL   H24612048   2.958   7.420   2.464  0.7105 -0.7641  3.4176
   22MOL   H24712049   3.126   7.435   2.519  2.0849 -1.1119 -2.3521
   22MOL   H24812050   3.022   7.626   2.603 -0.4529 -2.0777 -0.1549
   22MOL   H24912051   3.128   7.673   2.485 -0.6601  0.6736 -1.5756
   22MOL   H25012052   2.863   7.839   2.243 -0.5105  3.7055 -1.8258
   22MOL   H25112053   2.704   7.952   2.121  4.3661 -0.5695  1.4572
   22MOL   H25212054   2.375   7.774   2.341  0.6818 -2.5841  0.9619
   22MOL   H25312055   2.535   7.653   2.478  0.2238  0.0921 -0.6441
   22MOL   O25412056   2.482   8.025   2.044 -0.2828  0.4973 -0.6118
   22MOL   C25512057   2.393   8.097   1.963  1.1190 -0.1396 -0.2741
   22MOL   C25612058   2.463   0.137   1.945  0.3736 -0.2252 -0.8536
   22MOL   C25712059   2.600   0.130   1.874  0.8844 -0.8911  0.2656
   22MOL   C25812060   2.650   0.266   1.860 -0.3975 -0.1721  0.2181
   22MOL   O25912061   2.584   0.347   1.763 -0.2018 -0.2709  0.2678
   22MOL   C26012062   2.611   0.336   1.633 -0.4566 -0.0082 -0.1533
   22MOL   O26112063   2.711   0.285   1.591 -0.2194  0.1254 -0.0020
   22MOL   C26212064   2.528   0.422   1.553  0.1006 -0.3138 -0.1785
   22MOL   C26312065   2.406   0.476   1.599  0.6948 -0.1219  0.3400
   22MOL   C26412066   2.338   0.566   1.516  0.7726  0.2088 -0.5577
   22MOL   C26512067   2.384   0.594   1.384 -0.3410  0.5459  0.6818
   22MOL   C26612068   2.306   0.687   1.291  0.1332  0.3343  0.0671
   22MOL   O26712069   2.206   0.748   1.324 -0.3308  0.0471 -0.5534
   22MOL   C26812070   2.509   0.544   1.338  0.3934  0.6111 -0.2661
   22MOL   C26912071   2.581   0.452   1.425 -0.2481  0.1543 -0.3536
   22MOL   H27012072   2.366   8.050   1.869  2.0935  1.0847 -1.1763
   22MOL   H27112073   2.307   0.020   2.027 -0.9092 -4.2992 -1.4131
   22MOL   H27212074   2.470   0.177   2.046 -3.7755 -0.5113 -0.3459
   22MOL   H27312075   2.399   0.206   1.888 -1.4072 -0.7393  0.4833
   22MOL   H27412076   2.667   0.064   1.929  0.4226 -2.5527 -1.1309
   22MOL   H27512077   2.586   0.083   1.777  1.2782  1.5899 -1.0454
   22MOL   H27612078   2.650   0.321   1.954 -1.0634  1.3028 -0.6224
   22MOL   H27712079   2.754   0.258   1.826 -0.5445  0.2596 -0.3428
   22MOL   H27812080   2.367   0.454   1.698 -0.6891  1.8721  0.2539
   22MOL   H27912081   2.247   0.615   1.548 -0.0018 -2.0673  0.8639
   22MOL   H28012082   2.567   0.578   1.254  0.2928 -0.7428 -0.9086
   22MOL   H28112083   2.678   0.422   1.389  0.0604 -1.4003  1.6506
   22MOL   O28212084   2.362   0.700   1.166 -0.5701 -0.0135 -0.1354
   22MOL   C28312085   2.304   0.785   1.069 -0.4300 -0.1894  0.3381
   22MOL   C28412086   2.422   0.811   0.970 -0.3995 -0.5886 -0.4816
   22MOL   C28512087   2.541   0.890   1.036  0.0142 -0.6742 -0.4039
   22MOL   C28612088   2.666   0.919   0.946  0.0496 -0.5924  0.1261
   22MOL   O28712089   2.719   0.802   0.894  0.1486  0.1979  0.0110
   22MOL   C28812090   2.811   0.738   0.973  0.4610 -0.3384 -0.4822
   22MOL   O28912091   2.838   0.772   1.091  0.0004  0.2327  0.1105
   22MOL   C29012092   2.879   0.620   0.903 -0.2539  0.6207 -0.2930
   22MOL   C29112093   2.943   0.517   0.976  0.0777  0.4242  0.4319
   22MOL   C29212094   3.017   0.421   0.905 -0.3284  1.2357 -0.7089
   22MOL   C29312095   3.036   0.434   0.764  0.1990 -0.2606 -0.5106
   22MOL   C29412096   3.131   0.346   0.688 -0.2449  0.1789  0.4135
   22MOL   O29512097   3.173   0.370   0.577  0.2392  0.0089 -0.3480
   22MOL   C29612098   2.974   0.531   0.694  0.4599 -0.2399 -0.1466
   22MOL   C29712099   2.887   0.625   0.759  0.1908  0.2559 -0.0006
   22MOL   H29812100   2.210   0.743   1.031 -1.9672  1.7962  1.8358
   22MOL   H29912101   2.270   0.884   1.099 -0.5959 -0.2368  0.3120
   22MOL   H30012102   2.379   0.869   0.889 -1.2659 -1.3811 -0.5957
   22MOL   H30112103   2.462   0.723   0.919  1.7416  1.0176 -1.6696
   22MOL   H30212104   2.511   0.980   1.089  1.0138 -0.2969 -0.4716
   22MOL   H30312105   2.581   0.826   1.115  2.4814 -0.7405 -1.6432
   22MOL   H30412106   2.633   0.984   0.865  1.9811  0.6008  0.2821
   22MOL   H30512107   2.739   0.962   1.014  0.4522  1.0040 -1.3160
   22MOL   H30612108   2.934   0.518   1.083 -0.0425  0.0817  0.4235
   22MOL   H30712109   3.066   0.348   0.968 -0.5138  1.4338 -0.3304
   22MOL   H30812110   2.995   0.547   0.589  1.1695  0.2346  0.0607
   22MOL   H30912111   2.838   0.707   0.707  1.2393  1.2448  0.5706
   22MOL   O31012112   3.163   0.225   0.759 -0.5427 -0.1155  0.0353
   22MOL   C31112113   3.266   0.142   0.705  1.6179 -0.1529 -0.3634
   22MOL   C31212114   3.290   0.010   0.787 -0.1597 -0.5651 -0.3113
   22MOL   C31312115   3.411   8.025   0.759 -0.1780 -0.2628 -0.4052
   22MOL   C31412116   3.402   7.951   0.627 -0.6018 -0.0559 -0.0038
   22MOL   O31512117   3.529   7.878   0.606  0.3465 -0.5206 -0.4241
   22MOL   C31612118   3.549   7.803   0.502 -0.3148  0.0517 -0.3922
   22MOL   O31712119   3.462   7.771   0.421 -0.2729 -0.4825  0.1044
   22MOL   C31812120   3.696   7.767   0.486 -0.0430 -0.5381  0.2116
   22MOL   C31912121   3.732   7.681   0.380 -0.3080  0.0499 -0.2958
   22MOL   C32012122   3.863   7.641   0.359  0.2965 -0.3637  0.0841
   22MOL   C32112123   3.965   7.668   0.450 -1.0585 -0.1053  0.8311
   22MOL   C32212124   4.094   7.596   0.446 -0.3172 -0.2025  0.1197
   22MOL   O32312125   4.111   7.506   0.366  0.0852  0.0138 -0.9248
   22MOL   C32412126   3.930   7.744   0.559 -0.7914 -0.5467 -0.0533
   22MOL   C32512127   3.799   7.805   0.571 -0.9461  0.7991 -0.1624
   22MOL   H32612128   3.234   0.105   0.608 -1.5905  0.7619  0.2893
   22MOL   H32712129   3.367   0.178   0.683  0.5339  1.6115 -2.7094
   22MOL   H32812130   3.200   8.047   0.792  0.1483 -0.9129  1.5900
   22MOL   H32912131   3.301   0.057   0.885 -2.4888 -0.1214 -0.2189
   22MOL   H33012132   3.497   8.092   0.764 -0.1771 -0.2060 -1.1924
   22MOL   H33112133   3.428   7.953   0.839  0.6871 -0.2073 -0.5300
   22MOL   H33212134   3.326   7.872   0.622 -0.8934  0.1433  1.1032
   22MOL   H33312135   3.387   8.028   0.551  0.4644 -0.6873 -0.8704
   22MOL   H33412136   3.655   7.664   0.307  0.0927  1.0466 -0.9620
   22MOL   H33512137   3.892   7.583   0.273  0.9647  0.5426 -0.3061
   22MOL   H33612138   4.002   7.766   0.636 -0.7375  2.2692 -0.8646
   22MOL   H33712139   3.784   7.871   0.656 -0.5828  1.2385 -0.4376
   22MOL   O33812140   4.179   7.647   0.534  0.0266  0.2381  0.0667
   22MOL   C33912141   4.299   7.581   0.569 -0.2171 -0.5021  0.5643
   22MOL   C34012142   4.347   7.607   0.717 -0.4650 -0.1335  0.3566
   22MOL   C34112143   4.463   7.508   0.757  0.1292  0.4960 -0.3957
   22MOL   C34212144   4.528   7.545   0.893 -0.1760  0.1806  0.2687
   22MOL   O34312145   4.632   7.645   0.855  0.2720  0.3822 -0.0051
   22MOL   C34412146   4.745   7.655   0.921  0.1959  0.5668 -0.9072
   22MOL   O34512147   4.762   7.593   1.029 -0.1031 -0.6053  0.7491
   22MOL   C34612148   4.846   7.747   0.862  0.0700 -0.1450  0.4992
   22MOL   C34712149   4.816   7.808   0.737 -0.1805 -0.6677 -0.4347
   22MOL   C34812150   4.905   7.906   0.687  0.0352  0.1446 -0.4640
   22MOL   C34912151   5.022   7.947   0.757  0.6684 -0.0352 -0.5539
   22MOL   C35012152   5.109   8.056   0.708 -0.3157  0.1791 -0.7195
   22MOL   O35112153   5.097   0.004   0.596  0.3853 -0.0609 -0.1219
   22MOL   C35212154   5.052   7.882   0.877  0.3842  0.1918  0.4799
   22MOL   C35312155   4.967   7.782   0.931 -0.0990 -0.0754 -0.3919
   22MOL   H35412156   4.293   7.473   0.561 -0.9582 -0.4142 -0.1007
   22MOL   H35512157   4.376   7.619   0.502 -0.9690  1.3867  0.7273
   22MOL   H35612158   4.261   7.588   0.782 -3.1531  1.1138 -2.6738
   22MOL   H35712159   4.391   7.706   0.727 -1.5428  0.5985 -1.9158
   22MOL   H35812160   4.431   7.404   0.759 -2.0156  1.1598  1.0194
   22MOL   H35912161   4.545   7.498   0.686  1.7322 -0.6356  1.5894
   22MOL   H36012162   4.453   7.578   0.965 -1.6160  0.3469 -1.2725
   22MOL   H36112163   4.574   7.455   0.933  0.2477  0.9980  1.6437
   22MOL   H36212164   4.729   7.771   0.685 -1.2601  1.9806 -0.6280
   22MOL   H36312165   4.896   7.942   0.585 -2.0854 -0.1625 -0.4190
   22MOL   H36412166   5.145   7.906   0.927  0.4050  1.5275 -0.1734
   22MOL   H36512167   4.995   7.739   1.027 -0.1161  0.4148 -0.1681
   22MOL   O36612168   5.200   8.098   0.798 -0.4518  0.0948 -0.1223
   22MOL   C36712169   5.283   0.109   0.771  0.1207  0.1455  0.1512
   22MOL   C36812170   5.418   0.083   0.838  0.1643  0.4998 -0.4280
   22MOL   C36912171   5.510   8.079   0.771 -0.0492  0.3239 -0.1433
   22MOL   C37012172   5.624   8.039   0.866 -0.1758 -0.2182  1.1713
   22MOL   O37112173   5.582   7.988   0.991 -0.1920  0.1627 -0.0458
   22MOL   C37212174   5.540   7.861   1.004 -0.7614  0.2833  0.1917
   22MOL   O37312175   5.568   7.772   0.924 -0.1371  0.0914 -0.0611
   22MOL   C37412176   5.446   7.845   1.116  0.1818  0.3365  0.1591
   22MOL   C37512177   5.436   7.921   1.235  0.3269 -0.5006  0.4195
   22MOL   C37612178   5.330   7.901   1.329 -0.2461  0.0531 -0.3997
   22MOL   C37712179   5.228   7.800   1.315  0.3046  0.0949  0.2824
   22MOL   C37812180   5.126   7.791   1.421  0.2794 -0.0847  0.1175
   22MOL   O37912181   5.120   7.870   1.511  0.1456  0.1059  0.2185
   22MOL   C38012182   5.243   7.720   1.198 -0.2985 -0.3997 -0.3113
   22MOL   C38112183   5.345   7.745   1.104 -0.5239 -0.5363  0.0790
   22MOL   H38212184   5.303   0.113   0.664 -1.6138 -0.7537 -0.2248
   22MOL   H38312185   5.233   0.201   0.802  1.2654  0.1756  2.0040
   22MOL   H38412186   5.376   0.060   0.937 -1.0258  1.3194 -0.7341
   22MOL   H38512187   5.471   0.178   0.843  1.8672 -0.4452 -0.2917
   22MOL   H38612188   5.463   7.985   0.742 -2.4700  1.1769  0.8654
   22MOL   H38712189   5.556   0.010   0.677  2.4223  0.3877  1.0383
   22MOL   H38812190   5.696   7.969   0.824 -0.8367 -1.1895  1.6596
   22MOL   H38912191   5.686   0.028   0.885  0.3359 -0.5124  0.8589
   22MOL   H39012192   5.497   8.009   1.245 -0.8124  0.4615 -0.8660
   22MOL   H39112193   5.336   7.964   1.416 -3.3538 -0.1929  0.0581
   22MOL   H39212194   5.169   7.643   1.180 -1.6451  1.0432 -1.0394
   22MOL   H39312195   5.337   7.689   1.012  0.8011 -2.0062  0.8327
   22MOL   O39412196   5.047   7.685   1.404 -0.2058 -0.5521 -0.5184
   22MOL   C39512197   4.957   7.632   1.504 -0.5013 -0.4853  0.1984
   22MOL   C39612198   5.015   7.502   1.557 -0.9796  0.3550  0.6488
   22MOL   C39712199   4.947   7.457   1.678  0.3774 -0.2318  0.0785
   22MOL   C39812200   4.986   7.320   1.735 -0.1930 -0.5307 -0.1888
   22MOL   O39912201   4.930   7.225   1.648  0.2920  0.4094  0.1899
   22MOL   C40012202   5.005   7.141   1.585  0.3211 -0.4453  0.9060
   22MOL   O40112203   5.123   7.138   1.595 -0.6484 -0.2781  0.2303
   22MOL   C40212204   4.918   7.053   1.494 -0.1467 -0.3081  0.0590
   22MOL   C40312205   4.969   6.951   1.412  0.2550 -0.6105 -0.6330
   22MOL   C40412206   4.892   6.867   1.332 -0.3317 -0.5180  0.1605
   22MOL   C40512207   4.754   6.898   1.325 -0.3505 -0.2388  0.7436
   22MOL   C40612208   4.676   6.850   1.207 -0.2560  0.0607  0.4869
   22MOL   O40712209   4.556   6.880   1.197  0.0419  0.6088 -0.3416
   22MOL   C40812210   4.699   6.995   1.409  0.2658  0.2607 -0.2877
   22MOL   C40912211   4.779   7.075   1.493 -0.5079 -0.2763 -0.7636
   22MOL   H41012212   4.932   7.704   1.583 -2.9275 -0.4714 -0.5216
   22MOL   H41112213   4.860   7.611   1.458  0.4757 -1.2657 -1.5048
   22MOL   H41212214   5.124   7.512   1.558 -0.9014 -0.4796  0.8833
   22MOL   H41312215   4.997   7.421   1.485  0.3809  0.0001  0.6979
   22MOL   H41412216   4.982   7.536   1.744  0.4160 -0.0184 -0.1964
   22MOL   H41512217   4.841   7.466   1.659  0.1329  0.0395  1.4814
   22MOL   H41612218   5.093   7.304   1.745 -0.3727 -0.0668  3.0614
   22MOL   H41712219   4.937   7.308   1.832  0.3844 -0.5193  0.1056
   22MOL   H41812220   5.075   6.932   1.405  0.0474 -1.9532 -0.2700
   22MOL   H41912221   4.938   6.786   1.276  3.3360  0.1030  2.0877
   22MOL   H42012222   4.593   7.014   1.416  0.3336  0.2956  0.6976
   22MOL   H42112223   4.726   7.142   1.559  2.9235  2.1221 -0.3113
   22MOL   O42212224   4.748   6.772   1.121  0.0033 -0.3942  0.5640
   22MOL   C42312225   4.681   6.724   1.007  0.1409 -0.7033 -0.5420
   22MOL   C42412226   4.691   6.819   0.884 -0.1658 -0.1581  0.5599
   22MOL   C42512227   4.837   6.842   0.835  0.1918 -0.2789  1.0107
   22MOL   C42612228   4.860   6.894   0.694  0.8443 -0.1274  0.3556
   22MOL   O42712229   4.820   6.798   0.589 -0.0330  0.0036 -0.5291
   22MOL   C42812230   4.852   6.819   0.455 -0.2655  0.3661  0.1335
   22MOL   O42912231   4.918   6.915   0.421 -0.4130  0.1462 -0.8624
   22MOL   C43012232   4.809   6.715   0.353  0.6587 -0.3366 -1.0771
   22MOL   C43112233   4.852   6.734   0.223  0.4236 -0.1187 -0.4274
   22MOL   C43212234   4.814   6.643   0.124 -0.5446  0.1086  0.3735
   22MOL   C43312235   4.732   6.534   0.158  0.7707  0.4717 -0.4297
   22MOL   C43412236   4.702   6.429   0.064 -0.2565 -0.0704 -0.3243
   22MOL   O43512237   4.611   6.349   0.074 -0.5604 -0.0509  0.4221
   22MOL   C43612238   4.678   6.522   0.290  0.1063  0.0099 -0.0866
   22MOL   C43712239   4.726   6.612   0.390  0.1669 -0.3940  0.1010
   22MOL   H43812240   4.721   6.623   1.003 -2.2728 -1.7271  0.1125
   22MOL   H43912241   4.575   6.711   1.031 -0.0575 -1.4234 -1.7801
   22MOL   H44012242   4.637   6.912   0.905 -2.8170 -1.4436 -0.4001
   22MOL   H44112243   4.628   6.768   0.811  0.8277 -2.5054  1.3029
   22MOL   H44212244   4.866   6.925   0.899  2.7133 -0.2178 -0.1877
   22MOL   H44312245   4.891   6.749   0.854  1.2599  0.0218 -0.5270
   22MOL   H44412246   4.798   6.982   0.676  3.1538  1.8299  1.5995
   22MOL   H44512247   4.965   6.920   0.680  0.7433  0.6330  0.9869
   22MOL   H44612248   4.921   6.813   0.199 -0.1300  0.8380  1.0243
   22MOL   H44712249   4.841   6.655   0.020 -0.0401  2.4692  0.7531
   22MOL   H44812250   4.609   6.443   0.316 -0.4984  0.4047 -0.4745
   22MOL   H44912251   4.680   6.608   0.487 -0.2424  1.1995 -0.0176
   22MOL   O45012252   4.785   6.420   8.064 -0.3092  0.9609  0.4191
   22MOL   C45112253   4.768   6.324   7.956 -0.0525  0.2008 -0.1263
   22MOL   C45212254   4.885   6.321   7.863 -0.1008  0.0456  0.5696
   22MOL   C45312255   5.012   6.248   7.921  0.0415  0.2720  0.4856
   22MOL   C45412256   5.107   6.204   7.816 -0.2203 -0.1039 -0.1388
   22MOL   O45512257   5.198   6.307   7.777  0.0581  0.1807  0.1579
   22MOL   C45612258   5.304   6.268   7.711  0.8717 -0.1625 -0.3989
   22MOL   O45712259   5.330   6.155   7.675 -0.0582 -0.1572  0.3582
   22MOL   C45812260   5.383   6.386   7.662 -0.0290  0.5632 -0.0853
   22MOL   C45912261   5.345   6.520   7.682 -0.4215  0.5315 -0.1594
   22MOL   C46012262   5.423   6.619   7.633  0.2112 -0.3224 -0.0190
   22MOL   C46112263   5.535   6.595   7.557 -0.3104  0.4292  0.6971
   22MOL   C46212264   5.619   6.713   7.510  0.0007  0.1410 -0.0811
   22MOL   O46312265   5.718   6.692   7.436 -0.5547 -0.1366 -0.6026
   22MOL   C46412266   5.569   6.461   7.528  0.1756 -0.5042  0.1218
   22MOL   C46512267   5.497   6.354   7.585 -0.8523  0.4349 -0.3320
   22MOL   H46612268   4.745   6.230   8.006 -1.3286  0.7730  0.3838
   22MOL   H46712269   4.684   6.354   7.894  0.0508  0.3038 -0.2173
   22MOL   H46812270   4.909   6.423   7.831  0.5056 -0.2627  0.0218
   22MOL   H46912271   4.868   6.264   7.771 -1.2370 -0.5162  1.1250
   22MOL   H47012272   5.057   6.306   8.003 -1.6021  1.1598  0.7846
   22MOL   H47112273   4.989   6.154   7.970 -0.5058 -0.2121 -0.6974
   22MOL   H47212274   5.152   6.111   7.851 -3.6333 -0.7816  2.7495
   22MOL   H47312275   5.049   6.166   7.732 -0.9386 -1.3525  0.9082
   22MOL   H47412276   5.258   6.547   7.741 -0.4515 -0.7963  0.4318
   22MOL   H47512277   5.396   6.721   7.656 -0.4193 -0.5640  0.3328
   22MOL   H47612278   5.658   6.442   7.470 -0.3136 -1.5886 -0.2936
   22MOL   H47712279   5.527   6.252   7.565 -0.0852  1.1826 -3.2595
   22MOL   O47812280   5.567   6.834   7.534  0.3568  0.3174  0.1982
   22MOL   C47912281   5.620   6.951   7.474  0.2161  0.3255  0.0814
   22MOL   C48012282   5.589   6.970   7.325 -0.4339  0.1400  0.1626
   22MOL   C48112283   5.444   6.948   7.283  0.5305  0.8685  0.4607
   22MOL   C48212284   5.413   6.989   7.145  0.4522 -1.4558  0.1651
   22MOL   O48312285   5.489   6.913   7.052  0.3216  0.2144  0.3513
   22MOL   C48412286   5.503   6.955   6.933  0.1698 -0.1842 -0.3145
   22MOL   O48512287   5.456   7.052   6.888 -0.5966 -0.3479 -0.1940
   22MOL   C48612288   5.561   6.849   6.842 -0.9082  0.9699  0.5460
   22MOL   C48712289   5.546   6.871   6.704 -0.1241 -0.5513  0.3895
   22MOL   C48812290   5.595   6.779   6.607 -0.1763 -0.3088 -0.8501
   22MOL   C48912291   5.671   6.661   6.648  0.2954 -0.1094 -0.2098
   22MOL   C49012292   5.740   6.565   6.554  0.3986  0.1708  0.2874
   22MOL   O49112293   5.791   6.457   6.588  0.5114  0.0367  0.1787
   22MOL   C49212294   5.675   6.635   6.788 -0.1911  0.0902  0.0066
   22MOL   C49312295   5.624   6.726   6.879  0.0416 -0.9793  0.0847
   22MOL   H49412296   5.569   7.039   7.514  0.2256  0.9559 -1.2632
   22MOL   H49512297   5.724   6.951   7.507  0.1663 -1.0686  0.2607
   22MOL   H49612298   5.649   6.905   7.260 -2.6497 -2.2669  0.4700
   22MOL   H49712299   5.618   7.070   7.293 -2.2600  0.5160 -0.3481
   22MOL   H49812300   5.417   6.844   7.303 -2.9361  1.5722 -0.1659
   22MOL   H49912301   5.390   7.003   7.360 -1.8806  0.3401 -0.7870
   22MOL   H50012302   5.309   6.959   7.138 -1.0498  3.3172 -0.1640
   22MOL   H50112303   5.425   7.097   7.130  0.4213 -1.5823 -0.8073
   22MOL   H50212304   5.492   6.960   6.674  0.0836 -0.6653 -0.3312
   22MOL   H50312305   5.590   6.799   6.501  1.7284  1.0258 -0.7050
   22MOL   H50412306   5.717   6.541   6.820  0.1308 -0.5078 -2.0982
   22MOL   H50512307   5.622   6.706   6.985  0.4578 -3.1834 -0.2972
   22MOL   O50612308   5.739   6.610   6.421 -0.0651 -0.0871  0.6483
   22MOL   C50712309   5.778   6.524   6.317  0.0525  0.1093  0.1917
   22MOL   C50812310   5.683   6.539   6.194 -0.9733 -0.6620 -0.3310
   22MOL   C50912311   5.531   6.543   6.234 -0.5595  0.0896  0.0555
   22MOL   C51012312   5.435   6.510   6.123  1.1023 -0.9158 -1.0727
   22MOL   O51112313   5.419   6.627   6.045  0.2634  0.8897 -0.2341
   22MOL   C51212314   5.349   6.619   5.933 -0.8682 -0.4082  0.3246
   22MOL   O51312315   5.299   6.513   5.886  0.0282 -0.3580 -0.7357
   22MOL   C51412316   5.355   6.752   5.868  0.0718  0.2247  0.1064
   22MOL   C51512317   5.461   6.847   5.884  0.5662  0.2226 -0.9330
   22MOL   C51612318   5.465   6.960   5.806 -0.3843 -0.5939  0.0348
   22MOL   C51712319   5.351   6.995   5.735 -0.2395  0.5995  0.4509
   22MOL   C51812320   5.356   7.120   5.646  0.0577 -0.3899  0.0350
   22MOL   O51912321   5.416   7.220   5.683 -0.3069 -0.4504  0.0708
   22MOL   C52012322   5.243   6.904   5.710  0.0283  0.2016 -0.5279
   22MOL   C52112323   5.241   6.781   5.785  0.2536  0.2569  0.1281
   22MOL   H52212324   5.884   6.536   6.296 -0.2964  1.0036 -1.0935
   22MOL   H52312325   5.770   6.419   6.346 -0.7185  0.0687 -0.1356
   22MOL   H52412326   5.705   6.471   6.111 -1.5563 -1.8413  0.4533
   22MOL   H52512327   5.696   6.640   6.155 -0.3002 -1.8488 -3.3411
   22MOL   H52612328   5.508   6.464   6.306  0.7516 -0.5431 -0.1947
   22MOL   H52712329   5.499   6.628   6.294 -1.9495 -0.5338  0.2118
   22MOL   H52812330   5.470   6.426   6.063 -0.2386 -1.9319 -0.4586
   22MOL   H52912331   5.342   6.468   6.161  0.2449 -0.4900 -2.6395
   22MOL   H53012332   5.546   6.824   5.947  0.0339  0.9040  0.0408
   22MOL   H53112333   5.543   7.035   5.818 -2.0117  1.2099 -0.3632
   22MOL   H53212334   5.150   6.916   5.657  0.2313  0.4944 -0.8143
   22MOL   H53312335   5.159   6.712   5.775  0.5989 -0.2284  0.6010
   22MOL   O53412336   5.295   7.106   5.530 -0.2030  0.2951  0.2316
   22MOL   C53512337   5.304   7.220   5.441 -0.1936 -0.0168 -0.0230
   22MOL   C53612338   5.194   7.316   5.468 -0.2123 -0.0694 -0.0151
   22MOL   C53712339   5.178   7.432   5.361 -0.4537 -0.7097  0.0917
   22MOL   C53812340   5.102   7.560   5.414  0.6442 -0.2770 -0.6212
   22MOL   O53912341   5.195   7.633   5.488 -0.1306 -0.5060 -0.5676
   22MOL   C54012342   5.202   7.771   5.473  0.2199  0.1833  0.0213
   22MOL   O54112343   5.141   7.826   5.386 -0.1135 -0.1340  0.8691
   22MOL   C54212344   5.288   7.837   5.579 -0.5497 -0.4423 -0.4759
   22MOL   C54312345   5.361   7.760   5.667 -0.4065 -0.2428  0.9809
   22MOL   C54412346   5.449   7.819   5.760 -0.0917  0.0444 -0.1437
   22MOL   C54512347   5.461   7.964   5.760 -0.5899 -0.3345  0.0160
   22MOL   C54612348   5.564   8.035   5.846  0.8451  0.0679 -0.1954
   22MOL   O54712349   5.568   0.061   5.861  0.1847  0.3807 -0.2862
   22MOL   C54812350   5.381   8.041   5.676  0.9243  0.7845 -0.1229
   22MOL   C54912351   5.293   7.981   5.580 -0.3792  0.2452 -0.3177
   22MOL   H55012352   5.397   7.276   5.449  1.6505 -2.7909 -1.2218
   22MOL   H55112353   5.281   7.196   5.337  1.9630  0.0209 -0.5379
   22MOL   H55212354   5.221   7.365   5.561 -2.2540 -0.6992  0.9109
   22MOL   H55312355   5.098   7.265   5.465 -0.5093  0.5567 -1.4581
   22MOL   H55412356   5.277   7.464   5.329 -1.2066 -1.3094 -2.9579
   22MOL   H55512357   5.126   7.398   5.272 -0.1437 -1.9361  0.3699
   22MOL   H55612358   5.059   7.614   5.329  1.1496  3.0085  1.1195
   22MOL   H55712359   5.018   7.537   5.479  0.9917 -1.2536 -0.5034
   22MOL   H55812360   5.350   7.653   5.672  1.0223 -0.3376  2.6532
   22MOL   H55912361   5.518   7.770   5.827 -2.7211 -2.0058  1.1646
   22MOL   H56012362   5.390   0.050   5.678  0.4658  0.8683 -1.5254
   22MOL   H56112363   5.218   8.031   5.521  0.1796  3.0602  1.2828
   22MOL   H56212364   5.638   7.974   5.899 -1.5186 -1.3073  1.6065
   23MOL     O112365   6.784   2.986   0.322  0.0019  0.2280  0.2594
   23MOL     C212366   6.891   3.079   0.348 -0.6126  0.2710 -0.1012
   23MOL     C312367   7.020   3.017   0.391 -0.1406 -0.0219 -0.5765
   23MOL     C412368   7.133   3.118   0.428 -0.1285  0.4332  0.2506
   23MOL     C512369   7.263   3.054   0.465 -0.2386  0.1618  0.2007
   23MOL     O612370   7.252   2.963   0.575 -0.0712  0.0984  0.5766
   23MOL     C712371   7.275   2.828   0.540  0.1523 -0.0849  0.3825
   23MOL     O812372   7.331   2.788   0.439  0.7042 -0.1093  0.5793
   23MOL     C912373   7.230   2.744   0.646 -1.0653  0.9161  0.5372
   23MOL    C1012374   7.244   2.601   0.640  0.3601 -0.4630 -0.3927
   23MOL    C1112375   7.189   2.523   0.742 -0.4222  0.7215  0.6210
   23MOL    C1212376   7.120   2.581   0.853  0.7443 -0.1852  0.1941
   23MOL    C1312377   7.056   2.499   0.959  0.0420 -0.1956  0.2055
   23MOL    O1412378   7.070   2.523   1.080  0.1064  0.0810  0.0721
   23MOL    C1512379   7.124   2.721   0.869  0.4579 -0.0255 -0.1476
   23MOL    C1612380   7.173   2.800   0.764 -0.5708 -0.1588  0.1371
   23MOL    H1712381   6.911   3.138   0.258 -1.0070 -1.4286 -1.3476
   23MOL    H1812382   6.858   3.144   0.429  0.3671  0.9981 -0.2797
   23MOL    H1912383   7.056   2.956   0.309  1.6621 -0.0288  0.2061
   23MOL    H2012384   7.012   2.956   0.481 -0.3457 -1.0553 -1.2925
   23MOL    H2112385   7.150   3.183   0.343 -1.2370 -0.4406 -0.6469
   23MOL    H2212386   7.100   3.174   0.515 -0.8135  2.1386 -1.0892
   23MOL    H2312387   7.287   3.011   0.367  1.9834  1.0264  0.3266
   23MOL    H2412388   7.337   3.132   0.481 -1.0262  0.8215  0.6755
   23MOL    H2512389   7.314   2.555   0.572  0.2037  0.7891 -1.4145
   23MOL    H2612390   7.205   2.417   0.734 -0.2230  0.3305  4.7815
   23MOL    H2712391   7.073   2.761   0.955  0.5415  0.5083 -0.3427
   23MOL    H2812392   7.150   2.905   0.763  0.3617  0.0875  1.8763
   23MOL    H2912393   6.712   3.042   0.301  0.1524 -0.0031 -0.9004
   23MOL    O3012394   6.959   2.416   0.907  0.1099 -0.1892 -0.7394
   23MOL    C3112395   6.847   2.388   0.988 -0.1737 -0.0283  0.1233
   23MOL    C3212396   6.741   2.316   0.902 -0.3205 -0.3357  0.1884
   23MOL    C3312397   6.607   2.296   0.973 -0.8823 -0.1152  0.0668
   23MOL    C3412398   6.509   2.218   0.884 -0.3749  0.1374 -0.1953
   23MOL    O3512399   6.373   2.215   0.937  0.6504 -0.8655 -0.3810
   23MOL    C3612400   6.296   2.328   0.929 -0.2884  0.5532  0.0180
   23MOL    O3712401   6.332   2.433   0.883  0.4899 -0.0500 -0.4742
   23MOL    C3812402   6.164   2.306   0.991 -0.2288  0.2293  0.2963
   23MOL    C3912403   6.069   2.403   0.961  0.0927 -0.5694  0.8520
   23MOL    C4012404   5.937   2.384   1.014 -0.8096 -0.2295  0.3859
   23MOL    C4112405   5.907   2.276   1.096  1.1493  0.1732  1.1497
   23MOL    C4212406   5.771   2.261   1.155 -0.0376 -0.5674 -0.1245
   23MOL    O4312407   5.744   2.177   1.242 -0.4664  0.1810 -0.0002
   23MOL    C4412408   6.003   2.177   1.118  0.7401  0.2931 -0.1386
   23MOL    C4512409   6.128   2.189   1.062  0.2782  0.0589  0.2786
   23MOL    H4612410   6.883   2.328   1.072 -1.9597 -1.3800 -0.0583
   23MOL    H4712411   6.799   2.480   1.021  0.9386 -0.0141  1.7652
   23MOL    H4812412   6.770   2.219   0.861 -0.1717 -0.7230  1.2026
   23MOL    H4912413   6.711   2.377   0.817  0.2275  0.1197  0.3254
   23MOL    H5012414   6.618   2.249   1.070 -0.6108  0.8237  0.4995
   23MOL    H5112415   6.561   2.393   0.993  0.3878  0.3150  1.0242
   23MOL    H5212416   6.515   2.260   0.784 -1.7061  0.3007 -0.2167
   23MOL    H5312417   6.546   2.117   0.868 -2.5124 -0.7567  0.3381
   23MOL    H5412418   6.090   2.499   0.916  0.7435 -1.1410 -0.0704
   23MOL    H5512419   5.858   2.455   0.992  0.1865  0.9641  0.5849
   23MOL    H5612420   5.972   2.087   1.169  1.3747  0.3500  0.3522
   23MOL    H5712421   6.200   2.110   1.076 -0.1420 -0.1273  1.4646
   23MOL    O5812422   5.685   2.353   1.105 -0.1682  0.1110 -0.0005
   23MOL    C5912423   5.556   2.364   1.162 -0.4270 -0.1256 -0.3719
   23MOL    C6012424   5.485   2.482   1.100  0.0899 -0.2028  0.0059
   23MOL    C6112425   5.438   2.454   0.961 -0.3520 -0.6866  0.8104
   23MOL    C6212426   5.373   2.579   0.889  0.5503 -1.0354  0.1178
   23MOL    O6312427   5.233   2.591   0.918  0.5988  0.4224 -0.1508
   23MOL    C6412428   5.164   2.689   0.849  0.0620 -0.2152 -0.0966
   23MOL    O6512429   5.216   2.769   0.769 -0.0318 -0.2414 -0.0832
   23MOL    C6612430   5.012   2.671   0.868 -0.1571 -0.2072 -0.1920
   23MOL    C6712431   4.954   2.547   0.893  0.7277  0.4617 -0.0454
   23MOL    C6812432   4.808   2.542   0.893 -0.3081 -0.2198  0.7207
   23MOL    C6912433   4.723   2.647   0.849 -0.2069  0.0169  0.0340
   23MOL    C7012434   4.580   2.628   0.836 -0.0338  0.4444 -0.3210
   23MOL    O7112435   4.505   2.688   0.762  0.3000 -0.4753  0.2592
   23MOL    C7212436   4.788   2.769   0.817 -0.0653  0.2471 -0.7168
   23MOL    C7312437   4.929   2.784   0.831 -0.5587  0.0073  0.0722
   23MOL    H7412438   5.493   2.275   1.153 -2.1823  1.0158  0.3476
   23MOL    H7512439   5.569   2.383   1.269  1.7740  3.8563 -1.2624
   23MOL    H7612440   5.554   2.566   1.113  1.9426 -1.9110  1.5541
   23MOL    H7712441   5.394   2.502   1.157  0.3058  0.9649 -0.0481
   23MOL    H7812442   5.528   2.431   0.904  0.2288  0.4063  1.2734
   23MOL    H7912443   5.364   2.374   0.956  0.4719 -1.3429 -4.0604
   23MOL    H8012444   5.437   2.665   0.907 -0.0338 -0.5207 -0.2286
   23MOL    H8112445   5.374   2.567   0.781  0.1113  1.3492 -0.1836
   23MOL    H8212446   5.014   2.462   0.919 -0.6243 -1.2267 -2.3443
   23MOL    H8312447   4.767   2.447   0.924  1.6776 -1.6626 -0.9986
   23MOL    H8412448   4.725   2.854   0.793  1.2872  0.9470 -1.8630
   23MOL    H8512449   4.972   2.880   0.805  0.0098 -0.0611  0.7465
   23MOL    O8612450   4.528   2.534   0.922 -0.6533  0.1127 -0.4894
   23MOL    C8712451   4.388   2.490   0.911  0.0315  0.3981  0.3628
   23MOL    C8812452   4.359   2.407   0.782 -0.2898 -0.1025 -0.7507
   23MOL    C8912453   4.433   2.276   0.756  0.2507  0.1175  0.0728
   23MOL    C9012454   4.381   2.212   0.625  0.0020 -0.6044 -0.2118
   23MOL    O9112455   4.449   2.090   0.597  0.2784  0.5155 -0.2277
   23MOL    C9212456   4.392   1.978   0.557 -0.2925  0.3307 -0.9237
   23MOL    O9312457   4.268   1.959   0.542 -0.3559  0.3973 -0.1460
   23MOL    C9412458   4.490   1.868   0.534 -0.6877  0.0527 -0.2978
   23MOL    C9512459   4.616   1.892   0.475 -0.1816 -0.5135  0.1438
   23MOL    C9612460   4.709   1.790   0.450 -0.3556 -0.8460  1.2558
   23MOL    C9712461   4.677   1.659   0.498 -0.7287 -0.1877  0.9333
   23MOL    C9812462   4.769   1.545   0.483  0.8115 -0.0791  0.1793
   23MOL    O9912463   4.732   1.422   0.501 -0.4735  0.0906 -0.1267
   23MOL   C10012464   4.548   1.634   0.561 -0.3542 -0.1561 -0.3094
   23MOL   C10112465   4.456   1.740   0.582  0.1634 -0.9275  0.0021
   23MOL   H10212466   4.374   2.419   0.992 -0.9646 -1.7467 -1.6149
   23MOL   H10312467   4.322   2.577   0.921 -1.4721 -0.6518 -0.2465
   23MOL   H10412468   4.384   2.465   0.694  2.1924 -2.2511 -1.5264
   23MOL   H10512469   4.253   2.384   0.782 -0.6314  1.3149  0.4698
   23MOL   H10612470   4.541   2.282   0.738 -0.1920 -0.2902 -3.0881
   23MOL   H10712471   4.420   2.210   0.841 -0.4422 -3.0421 -2.3653
   23MOL   H10812472   4.275   2.195   0.644 -0.7591  1.3084 -2.4694
   23MOL   H10912473   4.384   2.281   0.541  1.1126  1.5038  1.5256
   23MOL   H11012474   4.641   1.989   0.435  1.2686 -0.8582  0.1993
   23MOL   H11112475   4.797   1.810   0.391  0.0735 -2.6423  1.2763
   23MOL   H11212476   4.529   1.529   0.574  0.1482  0.0161  1.9707
   23MOL   H11312477   4.357   1.715   0.615 -0.0417  0.0874  0.1495
   23MOL   O11412478   4.893   1.584   0.458  0.4393 -0.4270  0.1619
   23MOL   C11512479   5.000   1.493   0.453  0.3318  0.4597 -0.3491
   23MOL   C11612480   5.124   1.543   0.376 -0.8827  0.2828 -0.2207
   23MOL   C11712481   5.193   1.674   0.437 -0.4056  0.2279  0.6325
   23MOL   C11812482   5.253   1.667   0.578 -0.2214  0.2254 -0.1356
   23MOL   O11912483   5.150   1.671   0.670  0.2878 -0.0144 -0.3058
   23MOL   C12012484   5.164   1.689   0.803  0.2235 -0.8612  0.9128
   23MOL   O12112485   5.271   1.688   0.864  0.0499 -0.1322  0.8467
   23MOL   C12212486   5.029   1.717   0.867  0.2781  0.3945  0.0915
   23MOL   C12312487   5.018   1.724   1.006 -1.0858 -0.0943  0.1319
   23MOL   C12412488   4.897   1.774   1.060  0.4986  0.0157 -0.0639
   23MOL   C12512489   4.775   1.792   0.984  0.3813  0.1452  0.5679
   23MOL   C12612490   4.640   1.821   1.040  0.1719 -0.8116  0.1699
   23MOL   O12712491   4.569   1.903   0.989 -0.3070 -0.0604  0.1716
   23MOL   C12812492   4.794   1.791   0.842 -0.0057  0.8115 -0.3163
   23MOL   C12912493   4.917   1.755   0.788  0.2325  0.7140 -0.6376
   23MOL   H13012494   5.014   1.465   0.557  2.2346 -0.4849 -0.8365
   23MOL   H13112495   4.969   1.411   0.388 -0.9551  0.5297  0.1535
   23MOL   H13212496   5.097   1.568   0.274 -0.6969  2.9013  0.3393
   23MOL   H13312497   5.194   1.460   0.391  0.0517  1.0347 -0.4123
   23MOL   H13412498   5.277   1.703   0.373 -0.7388  0.8849  0.4913
   23MOL   H13512499   5.117   1.752   0.435  0.6662  1.3111 -2.1345
   23MOL   H13612500   5.309   1.576   0.600 -2.3266 -0.7428  1.3223
   23MOL   H13712501   5.320   1.748   0.607  0.2191  0.1133 -0.8189
   23MOL   H13812502   5.102   1.714   1.073 -0.7979  0.0636 -0.2088
   23MOL   H13912503   4.893   1.799   1.165 -0.3288  0.5144 -0.2088
   23MOL   H14012504   4.703   1.805   0.785 -0.4138  0.0208  0.1387
   23MOL   H14112505   4.924   1.757   0.681 -0.1233  1.5592 -0.6489
   23MOL   O14212506   4.625   1.754   1.152 -0.4395 -0.3087  0.1285
   23MOL   C14312507   4.501   1.776   1.218 -0.0522 -0.3855 -0.2523
   23MOL   C14412508   4.536   1.886   1.329  0.0340  0.0155  0.6198
   23MOL   C14512509   4.640   1.826   1.429  0.2771  0.4652  0.7915
   23MOL   C14612510   4.687   1.926   1.536  0.1385 -0.2144 -0.2094
   23MOL   O14712511   4.773   1.847   1.626 -0.1597 -0.0003  0.3500
   23MOL   C14812512   4.757   1.861   1.762  0.4693  0.0841 -0.5690
   23MOL   O14912513   4.674   1.936   1.818  0.1982  0.3511 -0.4619
   23MOL   C15012514   4.853   1.780   1.839  0.1447 -0.0668 -0.0512
   23MOL   C15112515   4.881   1.806   1.975  0.5453  0.4675  0.2901
   23MOL   C15212516   4.987   1.743   2.045  0.3324 -0.4450  0.3181
   23MOL   C15312517   5.074   1.659   1.972  0.4761  0.5598  0.3293
   23MOL   C15412518   5.192   1.608   2.040  0.3926  0.1934 -0.0048
   23MOL   O15512519   5.211   1.607   2.163  0.6409  0.1310  0.0345
   23MOL   C15612520   5.040   1.620   1.838 -0.2495 -0.6034 -0.1467
   23MOL   C15712521   4.927   1.679   1.778 -0.4555 -0.1073 -0.4343
   23MOL   H15812522   4.421   1.819   1.157  1.1856 -0.6216 -2.1058
   23MOL   H15912523   4.461   1.690   1.271 -1.4896  0.7856  0.6017
   23MOL   H16012524   4.447   1.915   1.385 -0.3034  1.4732 -0.6250
   23MOL   H16112525   4.571   1.977   1.280  1.2462 -1.4592 -1.2990
   23MOL   H16212526   4.600   1.736   1.475  0.4155  0.0614  0.1313
   23MOL   H16312527   4.728   1.785   1.380 -1.0858 -0.2864 -1.1234
   23MOL   H16412528   4.745   2.009   1.494 -0.0792 -0.5349 -1.1528
   23MOL   H16512529   4.603   1.972   1.588 -0.0075 -2.3813  1.5319
   23MOL   H16612530   4.827   1.884   2.027 -0.8105 -0.9880  1.1185
   23MOL   H16712531   4.996   1.779   2.146  0.7000  1.0981 -0.2450
   23MOL   H16812532   5.100   1.553   1.779  0.2071 -0.3404  0.0139
   23MOL   H16912533   4.918   1.652   1.674  0.8821 -1.3031 -0.2622
   23MOL   O17012534   5.283   1.557   1.953 -0.4274 -0.2038 -0.0082
   23MOL   C17112535   5.398   1.494   1.991 -0.1464  0.3538  0.1927
   23MOL   C17212536   5.520   1.546   1.919 -0.1600  0.3189  0.8952
   23MOL   C17312537   5.500   1.534   1.768 -0.5372 -0.4265  0.3535
   23MOL   C17412538   5.620   1.578   1.685  0.6755  0.9268  0.1976
   23MOL   O17512539   5.620   1.508   1.562  0.3455  0.3230  0.0638
   23MOL   C17612540   5.734   1.501   1.479  0.0953 -0.2073 -0.0441
   23MOL   O17712541   5.825   1.575   1.513 -0.6058 -0.3648 -0.4530
   23MOL   C17812542   5.728   1.408   1.360 -0.4034  0.5817 -0.2134
   23MOL   C17912543   5.834   1.394   1.272 -0.3162  0.8040 -0.7288
   23MOL   C18012544   5.826   1.298   1.171  0.1943 -0.2301  1.2939
   23MOL   C18112545   5.709   1.225   1.145  0.8051  0.3612  0.2055
   23MOL   C18212546   5.697   1.149   1.021  0.1715  0.8137  0.1839
   23MOL   O18312547   5.607   1.063   1.018  0.6700 -0.7986  0.6901
   23MOL   C18412548   5.600   1.238   1.233  0.0444 -0.2891  0.7057
   23MOL   C18512549   5.611   1.326   1.345  0.3572  0.1763  0.1968
   23MOL   H18612550   5.422   1.521   2.094  1.5501  0.6144 -0.2529
   23MOL   H18712551   5.393   1.385   1.986  1.7721  0.2431  0.1757
   23MOL   H18812552   5.607   1.491   1.954  0.1338  0.9336  1.1465
   23MOL   H18912553   5.541   1.650   1.946  0.2939 -0.0885  2.1395
   23MOL   H19012554   5.478   1.429   1.747 -1.7585 -0.5838  2.2444
   23MOL   H19112555   5.409   1.580   1.731  0.1408 -0.7052 -1.7606
   23MOL   H19212556   5.628   1.684   1.660 -0.3254  1.4073  1.8633
   23MOL   H19312557   5.706   1.557   1.748 -0.4339 -3.7827  0.3073
   23MOL   H19412558   5.923   1.454   1.285 -0.8577  1.5031 -0.2182
   23MOL   H19512559   5.911   1.300   1.105  0.9611 -0.3225  2.2741
   23MOL   H19612560   5.507   1.187   1.214  0.6738 -1.5997  1.0438
   23MOL   H19712561   5.531   1.328   1.418 -0.2775 -1.5013 -0.4067
   23MOL   O19812562   5.785   1.174   0.921 -0.5846 -0.3114  0.0955
   23MOL   C19912563   5.787   1.090   0.802  0.1430  0.2988 -0.8001
   23MOL   C20012564   5.775   1.179   0.674 -0.5020 -0.1079  0.6225
   23MOL   C20112565   5.785   1.093   0.555  0.2291  0.4186 -0.0754
   23MOL   C20212566   5.786   1.176   0.419  0.1377 -0.3050  0.6675
   23MOL   O20312567   5.787   1.105   0.299 -0.5648  0.0664 -0.4292
   23MOL   C20412568   5.670   1.055   0.249 -0.3206  0.5460  0.2976
   23MOL   O20512569   5.566   1.038   0.312 -0.0912  0.2689 -0.3052
   23MOL   C20612570   5.687   1.002   0.108 -0.4416  0.7343 -0.9222
   23MOL   C20712571   5.815   0.995   0.057 -0.6123 -0.1559 -0.6761
   23MOL   C20812572   5.844   0.947   8.029  0.1018  0.1186  0.0951
   23MOL   C20912573   5.738   0.887   7.953  0.2983  0.3968  0.0944
   23MOL   C21012574   5.770   0.809   7.828  0.4466 -0.4199  0.3323
   23MOL   O21112575   5.688   0.749   7.754  0.1607  0.1754 -0.1823
   23MOL   C21212576   5.606   0.895   8.004 -0.1943  0.3933  0.6425
   23MOL   C21312577   5.575   0.959   0.029 -0.1158 -0.0131  0.0929
   23MOL   H21412578   5.883   1.039   0.794  0.8927  1.3770  0.8943
   23MOL   H21512579   5.706   1.019   0.819  1.1571 -0.7878 -0.4761
   23MOL   H21612580   5.854   1.253   0.667 -0.5945 -0.2249 -2.4695
   23MOL   H21712581   5.677   1.225   0.675 -0.4703  0.0816 -2.0767
   23MOL   H21812582   5.875   1.031   0.550 -0.6034 -0.8495  0.4722
   23MOL   H21912583   5.704   1.022   0.567  1.2106 -0.4006  1.9776
   23MOL   H22012584   5.699   1.242   0.416  0.5081  0.2719  2.0973
   23MOL   H22112585   5.878   1.234   0.415  0.8453 -1.5881 -2.0983
   23MOL   H22212586   5.903   1.034   0.105 -2.2773 -1.7319  3.9705
   23MOL   H22312587   5.948   0.939   8.001  0.0827 -0.4414  0.1722
   23MOL   H22412588   5.532   0.841   7.948  1.1155 -0.8222  0.0901
   23MOL   H22512589   5.479   0.953   0.077 -0.2028  0.3529 -0.0310
   23MOL   O22612590   5.897   0.807   7.803  0.2858 -0.5755  0.6140
   23MOL   C22712591   5.949   0.725   7.709  0.1113 -0.1821  0.6373
   23MOL   C22812592   6.001   0.596   7.780 -0.3702  0.5364 -0.3783
   23MOL   C22912593   6.092   0.514   7.693  0.1507  0.6388 -0.3661
   23MOL   C23012594   6.149   0.383   7.755  0.2355  0.4202 -0.3677
   23MOL   O23112595   6.201   0.384   7.885 -0.6224  0.2933 -0.4585
   23MOL   C23212596   6.128   0.338   7.985 -0.6834  0.1039  0.2457
   23MOL   O23312597   6.028   0.271   7.969 -0.1241  0.0876  0.4732
   23MOL   C23412598   6.186   0.368   0.025  0.9667  0.5290 -0.5912
   23MOL   C23512599   6.143   0.299   0.140  0.2496 -0.5399 -0.3984
   23MOL   C23612600   6.193   0.337   0.265  0.8755 -0.6520  0.6130
   23MOL   C23712601   6.293   0.441   0.278  0.3956  0.0983 -0.2925
   23MOL   C23812602   6.333   0.487   0.409 -0.0362  0.5070  0.4192
   23MOL   O23912603   6.290   0.436   0.512  0.1307 -0.3895  0.4589
   23MOL   C24012604   6.340   0.501   0.162 -0.1259 -0.1489 -0.3666
   23MOL   C24112605   6.288   0.466   0.035  0.4075 -0.9231  0.1145
   23MOL   H24212606   5.875   0.703   7.632 -0.9972 -1.0711  1.9276
   23MOL   H24312607   6.029   0.774   7.653 -1.5184  1.9233  0.1010
   23MOL   H24412608   5.924   0.531   7.821 -0.7824  0.1196 -1.7858
   23MOL   H24512609   6.057   0.626   7.869 -0.1383 -1.5480  0.1957
   23MOL   H24612610   6.037   0.488   7.602 -1.5130 -1.6301  1.2250
   23MOL   H24712611   6.177   0.575   7.661  1.2422  1.2911  3.5147
   23MOL   H24812612   6.083   0.299   7.734  0.6070 -0.5135  2.0594
   23MOL   H24912613   6.234   0.356   7.692  1.2241 -0.3195  1.2721
   23MOL   H25012614   6.059   0.232   0.132 -0.6412  0.2812  1.8982
   23MOL   H25112615   6.138   0.305   0.352 -0.8393 -1.3357 -0.6925
   23MOL   H25212616   6.414   0.578   0.175  0.0149 -0.5277  1.2166
   23MOL   H25312617   6.331   0.522   8.051 -0.2936  0.4850  0.6957
   23MOL   O25412618   6.427   0.573   0.409  0.1577  0.6295 -0.1306
   23MOL   C25512619   6.477   0.623   0.526  0.4558  0.0752  0.2549
   23MOL   C25612620   6.619   0.572   0.546  0.0580  0.3997  0.2489
   23MOL   C25712621   6.704   0.617   0.428 -0.1061 -1.0209  0.7620
   23MOL   C25812622   6.848   0.580   0.454 -0.1387  0.3883 -0.3990
   23MOL   O25912623   6.918   0.550   0.338  0.2475  0.3137 -0.1272
   23MOL   C26012624   6.957   0.642   0.250  0.6370  0.1383  0.0099
   23MOL   O26112625   6.927   0.760   0.255 -0.3884  1.0562  0.4703
   23MOL   C26212626   7.033   0.587   0.143  0.8219  0.6846  0.5874
   23MOL   C26312627   7.058   0.446   0.135  0.3627  0.1908  0.3771
   23MOL   C26412628   7.123   0.400   0.021  0.0574  0.2684 -0.5091
   23MOL   C26512629   7.172   0.490   8.022  0.4296  0.3890  0.3650
   23MOL   C26612630   7.244   0.448   7.906 -0.0356  0.3077 -0.4997
   23MOL   O26712631   7.292   0.510   7.814  0.6204 -0.4835  0.3594
   23MOL   C26812632   7.150   0.622   8.033 -0.5972  0.2071  0.8076
   23MOL   C26912633   7.075   0.675   0.046 -0.5001 -0.4910 -0.5367
   23MOL   H27012634   6.459   0.730   0.517 -1.7301 -0.4220 -1.7117
   23MOL   H27112635   6.416   0.600   0.613 -1.8683  1.2273 -1.0218
   23MOL   H27212636   6.618   0.463   0.549 -1.3495  0.4004  0.3530
   23MOL   H27312637   6.657   0.610   0.641 -2.4192  0.2020  1.3725
   23MOL   H27412638   6.672   0.566   0.337  0.8335 -1.0880  0.4600
   23MOL   H27512639   6.686   0.720   0.398 -2.0877 -0.9658  2.0345
   23MOL   H27612640   6.897   0.655   0.517  0.0671 -1.8178  2.1641
   23MOL   H27712641   6.858   0.483   0.504  0.3702  0.7375  0.1875
   23MOL   H27812642   7.017   0.376   0.206 -0.6191  0.1477 -0.2209
   23MOL   H27912643   7.133   0.293   0.008 -2.1753 -0.3421  2.2711
   23MOL   H28012644   7.196   0.693   7.966  0.7114 -0.4550  0.9766
   23MOL   H28112645   7.059   0.781   0.051  0.8641 -0.2399 -1.1407
   23MOL   O28212646   7.258   0.313   7.912 -0.5142 -0.4239  0.5468
   23MOL   C28312647   7.337   0.250   7.809 -0.4511 -0.9825  0.2154
   23MOL   C28412648   7.486   0.239   7.828 -0.2092 -0.0019 -0.1056
   23MOL   C28512649   7.544   0.186   7.962  0.0966 -0.3209  0.2271
   23MOL   C28612650   7.695   0.196   7.975 -0.0761  0.7101 -0.0750
   23MOL   O28712651   7.745   0.183   0.005 -0.3267  1.0442 -0.3364
   23MOL   C28812652   7.872   0.132   0.014  0.1180 -0.7955  0.4026
   23MOL   O28912653   7.934   0.083   8.018 -0.9440 -0.2034  0.2336
   23MOL   C29012654   7.931   0.146   0.150 -0.1634  0.5222 -0.2057
   23MOL   C29112655   7.869   0.205   0.255  0.2960  0.0957 -0.6572
   23MOL   C29212656   7.928   0.210   0.383 -0.1210  0.0802  0.6397
   23MOL   C29312657   8.058   0.154   0.401 -0.6215 -0.2375 -0.4816
   23MOL   C29412658   0.011   0.165   0.536 -0.4344  0.0867 -0.4678
   23MOL   O29512659   8.056   0.226   0.630 -0.4748 -0.0866  0.0744
   23MOL   C29612660   0.018   0.081   0.299  0.8945  0.5201  0.0361
   23MOL   C29712661   8.054   0.081   0.172  0.2524 -0.5108 -0.2893
   23MOL   H29812662   7.297   0.149   7.802  0.4215 -1.2529 -1.1795
   23MOL   H29912663   7.319   0.295   7.711 -2.5758 -0.4793  0.8147
   23MOL   H30012664   7.535   0.335   7.809 -0.4830 -0.1085 -1.3982
   23MOL   H30112665   7.527   0.176   7.748 -3.0813  0.2643 -1.8800
   23MOL   H30212666   7.503   0.259   8.031  1.0281  0.2864  0.1431
   23MOL   H30312667   7.485   0.094   7.971 -2.3936  1.1736 -0.2564
   23MOL   H30412668   7.724   0.117   7.906  1.5203  1.5606 -0.3881
   23MOL   H30512669   7.712   0.295   7.933  0.9383 -0.0871 -1.5963
   23MOL   H30612670   7.771   0.249   0.247 -0.0884 -0.9626 -1.8744
   23MOL   H30712671   7.882   0.255   0.470 -0.1737  0.3897  0.4518
   23MOL   H30812672   0.112   0.030   0.309  0.1610 -0.7050  0.7792
   23MOL   H30912673   8.097   0.018   0.096 -3.2934 -3.3250 -0.0730
   23MOL   O31012674   0.136   0.124   0.538 -0.5164  0.5664  0.1750
   23MOL   C31112675   0.226   0.155   0.654  0.4577  0.4480  0.1981
   23MOL   C31212676   0.231   0.067   0.783  0.6437 -0.1320  0.1321
   23MOL   C31312677   0.106   0.093   0.876  0.3809  0.6814  0.4864
   23MOL   C31412678   0.137   0.084   1.031 -0.2681 -1.1471 -0.0445
   23MOL   O31512679   0.216   0.193   1.066 -0.3693  0.8692 -0.2855
   23MOL   C31612680   0.293   0.194   1.181 -0.1899 -0.2378  0.1314
   23MOL   O31712681   0.287   0.098   1.262 -0.3515  0.2227 -0.3757
   23MOL   C31812682   0.397   0.299   1.199  0.3785  0.6391 -0.8223
   23MOL   C31912683   0.463   0.317   1.321 -0.8345  0.9541 -0.6965
   23MOL   C32012684   0.574   0.405   1.327 -0.4345  0.4486  0.3791
   23MOL   C32112685   0.623   0.474   1.211 -0.1466  0.3045 -0.0361
   23MOL   C32212686   0.740   0.559   1.212  0.5212  0.2407  0.7903
   23MOL   O32312687   0.781   0.607   1.104  0.2254  0.0630  0.6884
   23MOL   C32412688   0.551   0.456   1.091  0.7307  0.7944  0.4899
   23MOL   C32512689   0.431   0.372   1.088  0.8247  0.0445  0.5773
   23MOL   H32612690   0.333   0.159   0.630  0.3638 -0.7387 -0.4695
   23MOL   H32712691   0.199   0.257   0.679 -1.7181 -0.0397 -0.0555
   23MOL   H32812692   0.326   0.097   0.826  1.3736 -0.5575 -1.1574
   23MOL   H32912693   0.230   8.058   0.764  2.5391 -0.2029  0.4117
   23MOL   H33012694   0.083   0.197   0.853  1.1683  0.7478 -0.0096
   23MOL   H33112695   0.017   0.037   0.846 -1.4251  2.0736  3.0566
   23MOL   H33212696   0.044   0.091   1.086 -0.9821 -0.7794 -1.2759
   23MOL   H33312697   0.185   8.084   1.037  1.2764 -0.5110 -1.3753
   23MOL   H33412698   0.427   0.266   1.409  3.2453 -0.4605  0.2343
   23MOL   H33512699   0.623   0.426   1.420 -1.4818  0.4183  0.9405
   23MOL   H33612700   0.577   0.506   0.998  1.5326 -1.2343 -0.4042
   23MOL   H33712701   0.365   0.368   1.003  0.5091 -1.9270  0.8901
   23MOL   O33812702   0.788   0.579   1.330 -0.2013 -0.3219 -0.3202
   23MOL   C33912703   0.917   0.636   1.345  0.1708  0.2909  0.2544
   23MOL   C34012704   0.903   0.784   1.381  0.0449  0.3030 -0.2834
   23MOL   C34112705   0.880   0.878   1.265  0.1150  0.7424 -0.3122
   23MOL   C34212706   1.004   0.913   1.181  0.2541  0.5490 -0.4836
   23MOL   O34312707   0.979   1.001   1.065 -0.3293 -0.0484  0.1322
   23MOL   C34412708   0.951   1.125   1.088  0.0365  0.3974 -0.6059
   23MOL   O34512709   0.976   1.181   1.197  0.3646 -0.0580 -0.4141
   23MOL   C34612710   0.882   1.191   0.971  0.2099 -0.3862  0.3034
   23MOL   C34712711   0.797   1.115   0.892 -0.2994 -0.1569 -0.6164
   23MOL   C34812712   0.734   1.174   0.785 -0.2431  0.5972  0.0182
   23MOL   C34912713   0.741   1.317   0.763 -0.0030 -0.3103 -0.7684
   23MOL   C35012714   0.651   1.384   0.667 -0.5357  0.1871  0.3683
   23MOL   O35112715   0.669   1.495   0.617 -0.0771  0.2249 -0.3591
   23MOL   C35212716   0.828   1.393   0.841  0.2666 -0.0862  0.0448
   23MOL   C35312717   0.902   1.328   0.941  0.3233  0.0416 -0.1290
   23MOL   H35412718   0.962   0.573   1.422  0.0638  0.6618  0.6239
   23MOL   H35512719   0.977   0.632   1.254 -0.7916 -2.7231 -0.2994
   23MOL   H35612720   0.998   0.818   1.422 -0.1323  0.1324  0.2747
   23MOL   H35712721   0.834   0.794   1.465 -0.5284 -1.0577 -0.5797
   23MOL   H35812722   0.796   0.850   1.201 -0.8324  0.5419  1.0050
   23MOL   H35912723   0.841   0.971   1.308 -1.3355 -0.5892  1.2894
   23MOL   H36012724   1.083   0.951   1.245 -0.2940 -0.2537  0.6744
   23MOL   H36112725   1.039   0.821   1.134 -1.1480 -0.5154  0.5184
   23MOL   H36212726   0.786   1.010   0.916 -0.4336 -0.1589 -0.6826
   23MOL   H36312727   0.670   1.117   0.719 -0.5314  0.0658  0.7515
   23MOL   H36412728   0.837   1.499   0.823 -1.6117 -0.0699 -0.9049
   23MOL   H36512729   0.961   1.396   1.001 -0.0106  0.2855 -0.0744
   23MOL   O36612730   0.543   1.307   0.640  0.3435  0.1662  0.1474
   23MOL   C36712731   0.448   1.351   0.541  0.0197  0.5322  0.3036
   23MOL   C36812732   0.407   1.240   0.455  0.0795 -0.2784 -0.3845
   23MOL   C36912733   0.361   1.107   0.526  0.3075 -0.0181  0.0511
   23MOL   C37012734   0.331   0.997   0.416 -0.9564  0.3096  0.0248
   23MOL   O37112735   0.216   1.026   0.343 -0.0613  0.3429 -0.1673
   23MOL   C37212736   0.141   0.921   0.299  0.3535  0.7337  0.3089
   23MOL   O37312737   0.168   0.803   0.310  0.7315 -0.0121  0.3243
   23MOL   C37412738   0.028   0.969   0.215 -0.3309 -0.6566 -0.8199
   23MOL   C37512739   0.010   1.102   0.180 -0.6696 -0.3139  0.1818
   23MOL   C37612740   8.000   1.140   0.095  0.6128 -0.7458 -1.0918
   23MOL   C37712741   7.911   1.044   0.042 -0.6256 -0.3125 -1.4167
   23MOL   C37812742   7.795   1.075   8.052  0.0905  0.5455  0.1249
   23MOL   O37912743   7.710   0.994   8.014 -0.0267  0.1428  0.6018
   23MOL   C38012744   7.925   0.908   0.080  0.0358 -0.1827  0.2409
   23MOL   C38112745   8.032   0.872   0.166  0.3001  0.2437 -0.1883
   23MOL   H38212746   0.360   1.390   0.592  0.3632  0.0887  1.2507
   23MOL   H38312747   0.485   1.439   0.487 -2.2939  0.5904 -1.2392
   23MOL   H38412748   0.491   1.203   0.396  0.1160 -2.2709  0.8444
   23MOL   H38512749   0.340   1.276   0.377  0.1689 -0.3681 -0.5033
   23MOL   H38612750   0.435   1.089   0.604  0.7172 -0.3160 -0.4005
   23MOL   H38712751   0.267   1.126   0.577 -0.3726  0.0758 -1.2185
   23MOL   H38812752   0.405   0.983   0.337 -0.9657  1.2425 -0.1578
   23MOL   H38912753   0.320   0.905   0.474  0.9349 -0.2956 -0.5223
   23MOL   H39012754   0.080   1.173   0.222 -1.5002 -0.5401  2.0256
   23MOL   H39112755   7.992   1.245   0.074 -1.2601 -1.2010 -2.7736
   23MOL   H39212756   7.859   0.830   0.045 -1.5773  0.1302  2.4870
   23MOL   H39312757   8.052   0.767   0.178 -0.2009  0.3009  1.2564
   23MOL   O39412758   7.787   1.203   8.036  0.0253  0.0347 -0.4139
   23MOL   C39512759   7.666   1.266   7.992  0.7582 -0.0987 -0.1543
   23MOL   C39612760   7.679   1.420   7.994 -0.5308  0.3422  0.1676
   23MOL   C39712761   7.748   1.489   0.014 -0.1300  0.4763 -0.2457
   23MOL   C39812762   7.676   1.457   0.143  0.3143  0.5809 -0.2245
   23MOL   O39912763   7.743   1.355   0.220 -0.4532 -0.1892  0.0550
   23MOL   C40012764   7.664   1.253   0.271  0.2260 -0.3975 -0.8029
   23MOL   O40112765   7.541   1.245   0.242  0.1794  0.0776 -0.3891
   23MOL   C40212766   7.744   1.156   0.352  0.3301  0.0959 -0.4403
   23MOL   C40312767   7.721   1.017   0.361 -0.2918  0.1415  0.2509
   23MOL   C40412768   7.803   0.928   0.423 -0.2192  0.0436 -0.1801
   23MOL   C40512769   7.921   0.977   0.489 -0.1874  0.0302  0.4251
   23MOL   C40612770   8.017   0.886   0.559 -0.1827 -0.0034  0.0857
   23MOL   O40712771   0.015   0.931   0.621  0.0921 -0.0040 -0.0773
   23MOL   C40812772   7.948   1.113   0.483 -0.4031 -0.6606  0.2084
   23MOL   C40912773   7.858   1.196   0.417  0.4056 -0.0029  0.5472
   23MOL   H41012774   7.659   1.231   7.889 -0.1268  1.3792 -0.6061
   23MOL   H41112775   7.584   1.244   8.060  2.3893 -2.0462  1.2574
   23MOL   H41212776   7.583   1.470   7.978 -0.1499  2.1169  3.0643
   23MOL   H41312777   7.745   1.441   7.910 -0.8538  0.2545 -0.1088
   23MOL   H41412778   7.852   1.465   0.039  0.5288  3.7982  0.4836
   23MOL   H41512779   7.761   1.596   8.093  0.3799  0.2547 -1.1489
   23MOL   H41612780   7.677   1.552   0.197 -1.0133  0.7672 -0.5159
   23MOL   H41712781   7.571   1.440   0.119  0.0258  1.3276  0.4921
   23MOL   H41812782   7.634   0.972   0.316  0.5229 -1.5048  0.2796
   23MOL   H41912783   7.774   0.825   0.411  0.0937  0.1442 -1.8118
   23MOL   H42012784   8.029   1.155   0.540  1.0116 -2.1478 -0.6544
   23MOL   H42112785   7.889   1.299   0.415  2.3126 -0.5267  1.5735
   23MOL   O42212786   7.989   0.754   0.546 -0.3482 -0.0323 -0.2727
   23MOL   C42312787   8.065   0.659   0.620 -0.8690  0.6735  0.4435
   23MOL   C42412788   7.989   0.598   0.735  0.0314 -0.3311 -0.8971
   23MOL   C42512789   7.892   0.484   0.684  0.5925  0.5855 -0.3166
   23MOL   C42612790   7.762   0.535   0.636  0.0066  0.4248 -0.1946
   23MOL   O42712791   7.686   0.439   0.566  0.4316 -0.3483  0.8390
   23MOL   C42812792   7.636   0.464   0.445 -0.0649 -0.0829 -0.1589
   23MOL   O42912793   7.636   0.572   0.398  0.0307  0.4931 -0.4632
   23MOL   C43012794   7.556   0.356   0.389 -0.6310 -0.0583 -0.3325
   23MOL   C43112795   7.545   0.226   0.450 -0.0353 -0.4699  0.0281
   23MOL   C43212796   7.465   0.129   0.398  0.1701 -0.1033 -0.5058
   23MOL   C43312797   7.400   0.145   0.275  0.2024 -0.1681  0.0502
   23MOL   C43412798   7.302   0.041   0.229  0.0487  0.1757  0.5134
   23MOL   O43512799   7.263   8.042   0.300 -0.0446 -0.2724 -0.3217
   23MOL   C43612800   7.409   0.267   0.210 -0.2053 -0.5716  0.2278
   23MOL   C43712801   7.495   0.364   0.258 -0.2704 -0.2987 -0.2162
   23MOL   H43812802   0.001   0.587   0.545 -0.3343  0.6521  0.7122
   23MOL   H43912803   0.060   0.702   0.655 -0.1964  0.1315 -0.6639
   23MOL   H44012804   7.938   0.671   0.797 -2.6107 -1.4511 -1.6517
   23MOL   H44112805   8.055   0.543   0.802  1.2559  0.9986 -1.0081
   23MOL   H44212806   7.928   0.415   0.608  2.4430 -0.2833  1.3129
   23MOL   H44312807   7.858   0.412   0.758  1.2310 -0.5653 -1.1450
   23MOL   H44412808   7.700   0.566   0.720 -1.6484 -0.6624 -0.9842
   23MOL   H44512809   7.775   0.626   0.576  0.0829  0.7522  0.3165
   23MOL   H44612810   7.594   0.202   0.543 -1.4918 -1.4019  0.5764
   23MOL   H44712811   7.460   0.030   0.443  1.0764 -0.2745 -0.7652
   23MOL   H44812812   7.364   0.287   0.114  0.2935 -0.0068  0.1087
   23MOL   H44912813   7.499   0.456   0.202  0.4480 -1.0445 -1.4095
   23MOL   O45012814   7.258   0.065   0.104 -0.8058  0.2669  0.8502
   23MOL   C45112815   7.158   8.078   0.054  0.7038  0.2095 -0.8256
   23MOL   C45212816   7.159   8.084   8.006 -0.6513 -0.1191  0.1704
   23MOL   C45312817   7.065   7.994   7.928 -0.2094 -0.0312  0.0317
   23MOL   C45412818   7.019   8.043   7.795  0.4553 -0.5987 -0.1436
   23MOL   O45512819   7.124   8.047   7.707 -0.5093  0.1537  0.1186
   23MOL   C45612820   7.107   8.075   7.581 -0.5401  0.2325  0.6906
   23MOL   O45712821   7.002   0.023   7.539  0.2676  0.1490  1.4676
   23MOL   C45812822   7.219   8.055   7.490 -0.0974  0.0336  0.4725
   23MOL   C45912823   7.312   7.948   7.509  0.2501 -0.8226  0.2375
   23MOL   C46012824   7.418   7.932   7.426 -0.4119  0.3070  0.7755
   23MOL   C46112825   7.445   8.018   7.317 -0.7582  0.1729  0.3134
   23MOL   C46212826   7.567   7.996   7.233  0.5071  0.3924  0.5849
   23MOL   O46312827   7.651   7.912   7.249 -0.5798 -0.2705  0.2843
   23MOL   C46412828   7.352   0.025   7.297  0.1883 -0.3529 -0.5569
   23MOL   C46512829   7.237   0.049   7.379  0.4864 -0.2868  0.0506
   23MOL   H46612830   7.170   7.974   0.086  1.0953  0.0215 -1.5607
   23MOL   H46712831   7.061   0.002   0.097  1.2512 -1.0208  1.1345
   23MOL   H46812832   7.258   8.065   7.965 -0.9687 -2.7420  0.5182
   23MOL   H46912833   7.135   0.087   7.976 -0.0039  0.7980  2.6454
   23MOL   H47012834   7.102   7.894   7.905 -0.3442  0.2835 -1.5776
   23MOL   H47112835   6.979   7.980   7.994 -1.6263  0.1034 -1.7638
   23MOL   H47212836   6.953   7.965   7.758  0.3120 -0.7634  0.4596
   23MOL   H47312837   6.966   0.039   7.803 -0.7119 -1.0992 -1.7971
   23MOL   H47412838   7.299   7.891   7.600  1.0728 -1.6963 -0.1974
   23MOL   H47512839   7.484   7.849   7.448 -1.5969 -0.5526  1.1659
   23MOL   H47612840   7.370   0.099   7.221  1.3701  1.7247  1.6544
   23MOL   H47712841   7.171   0.131   7.356  0.1864 -0.5701 -0.1064
   23MOL   O47812842   7.577   8.078   7.128 -0.3063 -0.0494 -0.0360
   23MOL   C47912843   7.674   8.042   7.022  0.2966 -0.0490  0.2771
   23MOL   C48012844   7.810   0.016   7.049 -0.3517  0.1440  0.6189
   23MOL   C48112845   7.779   0.166   7.029 -0.5763 -0.0022 -0.3146
   23MOL   C48212846   7.799   0.209   6.883  0.0401  0.2630 -0.0968
   23MOL   O48312847   7.779   0.351   6.862  0.0002 -0.4856  0.1142
   23MOL   C48412848   7.656   0.396   6.841 -0.0955 -0.8658 -0.2415
   23MOL   O48512849   7.557   0.324   6.840  0.2801  0.0174  0.3048
   23MOL   C48612850   7.636   0.543   6.825 -0.2128 -0.3770  0.3627
   23MOL   C48712851   7.521   0.583   6.766  0.2825 -0.8177  0.4582
   23MOL   C48812852   7.506   0.713   6.716 -0.0598  0.4264 -0.1398
   23MOL   C48912853   7.611   0.808   6.742 -0.4443  0.5151  0.4322
   23MOL   C49012854   7.610   0.946   6.681 -1.2188 -0.5364  0.7194
   23MOL   O49112855   7.693   1.040   6.711  0.8946 -0.2477  0.0202
   23MOL   C49212856   7.720   0.774   6.824 -0.2095 -0.3789  0.1230
   23MOL   C49312857   7.734   0.635   6.855  0.5379 -0.0207  0.0344
   23MOL   H49412858   7.676   7.936   6.995  1.2835  0.2913 -1.0062
   23MOL   H49512859   7.634   8.085   6.931 -2.0509  3.3577  2.8263
   23MOL   H49612860   7.892   8.082   6.984 -2.0120 -0.0931 -1.4096
   23MOL   H49712861   7.849   8.096   7.149 -1.4169  1.2339  1.2428
   23MOL   H49812862   7.680   0.197   7.063 -1.0056  1.5660 -2.8447
   23MOL   H49912863   7.856   0.207   7.094 -1.4496  0.5494  0.3920
   23MOL   H50012864   7.900   0.181   6.852 -0.4699 -3.2252  1.1862
   23MOL   H50112865   7.734   0.155   6.815 -2.0573  2.3570  0.1991
   23MOL   H50212866   7.444   0.510   6.747 -0.7428  0.5502 -0.7603
   23MOL   H50312867   7.425   0.735   6.648 -0.2824 -1.1343 -0.4026
   23MOL   H50412868   7.795   0.845   6.854 -1.5761  0.5857  1.2976
   23MOL   H50512869   7.826   0.598   6.898 -1.7290 -1.1352  4.1678
   23MOL   O50612870   7.514   0.962   6.600  0.4803 -0.3765 -0.2839
   23MOL   C50712871   7.502   1.078   6.522 -0.4550 -0.2427 -0.4682
   23MOL   C50812872   7.399   1.047   6.413  0.5399  0.6384 -0.4138
   23MOL   C50912873   7.254   1.006   6.453 -0.4214 -0.2064  0.0009
   23MOL   C51012874   7.173   0.935   6.347 -0.6000  0.8202 -0.3992
   23MOL   O51112875   7.217   0.802   6.360 -0.0010 -0.6426  0.2392
   23MOL   C51212876   7.147   0.705   6.419  0.1129  0.1251 -0.1576
   23MOL   O51312877   7.026   0.713   6.452 -0.5736  0.2313  0.1195
   23MOL   C51412878   7.232   0.589   6.457  0.3197  0.6003 -0.8203
   23MOL   C51512879   7.167   0.468   6.500 -0.1010 -0.2654  0.5680
   23MOL   C51612880   7.246   0.351   6.522  0.6058 -0.5286  0.4752
   23MOL   C51712881   7.382   0.345   6.491 -0.3988 -0.6534  0.2732
   23MOL   C51812882   7.473   0.221   6.506 -0.0245  0.3478 -0.3257
   23MOL   O51912883   7.599   0.223   6.490 -0.0343 -0.2745 -0.4416
   23MOL   C52012884   7.444   0.466   6.448  0.3567 -0.5692 -0.0755
   23MOL   C52112885   7.371   0.584   6.431 -0.3323  0.4642  0.1079
   23MOL   H52212886   7.483   1.161   6.589  1.7771  1.5600 -1.9740
   23MOL   H52312887   7.602   1.087   6.478 -0.2060 -1.7920 -0.2677
   23MOL   H52412888   7.431   0.975   6.337  0.9838 -1.9488  2.1303
   23MOL   H52512889   7.391   1.140   6.357 -0.8125  1.0793  0.5064
   23MOL   H52612890   7.268   0.943   6.541  1.1141 -0.4101 -0.3782
   23MOL   H52712891   7.199   1.092   6.491 -0.8505 -1.3116  1.9733
   23MOL   H52812892   7.065   0.949   6.356 -0.9183 -1.8818  0.5258
   23MOL   H52912893   7.203   0.982   6.254 -0.8764 -0.1304 -0.9819
   23MOL   H53012894   7.065   0.475   6.533 -0.6531  1.8854 -1.4444
   23MOL   H53112895   7.184   0.274   6.566  0.8626 -1.2520 -0.3934
   23MOL   H53212896   7.549   0.471   6.424 -0.0526  0.6723 -1.7047
   23MOL   H53312897   7.420   0.666   6.379 -0.4416  0.7493  0.4565
   23MOL   O53412898   7.396   0.107   6.523  0.1812  0.2533 -0.3134
   23MOL   C53512899   7.450   8.078   6.539 -0.0221 -0.0719 -0.3589
   23MOL   C53612900   7.353   7.976   6.600  0.8095  0.5346  0.7504
   23MOL   C53712901   7.408   7.835   6.603  0.1657 -0.0752  0.5846
   23MOL   C53812902   7.311   7.728   6.658  0.9113  0.2115 -0.0102
   23MOL   O53912903   7.194   7.705   6.579  0.7839  0.8052  0.1380
   23MOL   C54012904   7.069   7.705   6.638 -0.0975  0.1634 -0.8381
   23MOL   O54112905   7.053   7.693   6.753 -0.2254  0.5327 -1.2213
   23MOL   C54212906   6.953   7.713   6.551 -0.0440  0.4676 -0.2484
   23MOL   C54312907   6.825   7.729   6.602 -0.2139  0.3969  0.2061
   23MOL   C54412908   6.709   7.745   6.525 -0.6484 -0.7738 -0.5170
   23MOL   C54512909   6.727   7.764   6.387  0.5191  0.0593 -0.0221
   23MOL   C54612910   6.612   7.811   6.304 -0.2648  0.1103  0.4837
   23MOL   O54712911   6.623   7.814   6.178 -0.4207  0.1342 -0.0108
   23MOL   C54812912   6.860   7.760   6.333  0.1884  0.3175  0.4873
   23MOL   C54912913   6.973   7.731   6.415  0.2337  0.4399  0.5119
   23MOL   H55012914   7.501   8.048   6.447  0.5914  0.2052 -0.1147
   23MOL   H55112915   7.531   8.097   6.609  1.1935 -0.6320 -1.5621
   23MOL   H55212916   7.265   7.974   6.536  1.9584  1.4787 -0.8870
   23MOL   H55312917   7.327   8.016   6.698  1.4949  1.0775  0.7120
   23MOL   H55412918   7.441   7.805   6.504  1.2191 -0.1562  0.9516
   23MOL   H55512919   7.502   7.825   6.656 -1.1298 -1.7759  2.6313
   23MOL   H55612920   7.369   7.636   6.667  0.4378  0.1174  2.4340
   23MOL   H55712921   7.278   7.755   6.758 -0.8994  1.1819 -0.8650
   23MOL   H55812922   6.811   7.721   6.709  2.3670 -0.8337  0.4852
   23MOL   H55912923   6.612   7.737   6.571 -1.4531 -1.5019 -2.2926
   23MOL   H56012924   6.877   7.763   6.226  1.1488 -1.7194  0.5470
   23MOL   H56112925   7.069   7.715   6.368 -0.0187 -1.0651  0.4776
   23MOL   H56212926   6.531   7.853   6.364 -0.3271 -1.5167  1.5740
   24MOL     O112927   4.391   6.386   6.970  0.3317 -0.3673  0.3298
   24MOL     C212928   4.494   6.427   7.057  0.8667 -0.3893 -0.0416
   24MOL     C312929   4.466   6.369   7.192 -0.0964  0.7382  0.4136
   24MOL     C412930   4.325   6.381   7.255 -0.3970 -0.6598  0.1153
   24MOL     C512931   4.308   6.321   7.393 -0.1219  0.4715 -1.3841
   24MOL     O612932   4.179   6.305   7.431 -0.2802 -0.1077  0.9825
   24MOL     C712933   4.134   6.213   7.525  0.9743 -0.9340  0.4525
   24MOL     O812934   4.209   6.121   7.558 -0.0189 -0.0742  0.8586
   24MOL     C912935   3.994   6.228   7.570  0.4242 -0.5596  0.8515
   24MOL    C1012936   3.947   6.148   7.676 -0.1046 -0.5460 -0.4776
   24MOL    C1112937   3.811   6.161   7.717  0.0272  0.6552 -0.4123
   24MOL    C1212938   3.725   6.251   7.663 -0.0938  0.6824  0.6247
   24MOL    C1312939   3.590   6.256   7.716  1.1436  0.3318 -0.4420
   24MOL    O1412940   3.546   6.176   7.803  0.4322  0.2797 -0.1651
   24MOL    C1512941   3.771   6.325   7.551 -0.5320  0.0328  1.5120
   24MOL    C1612942   3.905   6.320   7.515 -0.4704 -0.1202 -0.0162
   24MOL    H1712943   4.584   6.378   7.020 -0.1269 -0.9878 -1.7254
   24MOL    H1812944   4.496   6.535   7.069  2.2556 -0.5183  0.9215
   24MOL    H1912945   4.536   6.400   7.270 -1.0733  2.6830  0.5465
   24MOL    H2012946   4.477   6.262   7.172  0.6043  1.0533 -0.9606
   24MOL    H2112947   4.293   6.485   7.252  3.8366  0.8065  2.0639
   24MOL    H2212948   4.261   6.323   7.189  1.9252 -3.4825  0.2383
   24MOL    H2312949   4.351   6.221   7.387 -0.8898  0.0445  0.0319
   24MOL    H2412950   4.371   6.371   7.466 -3.9427 -0.4434  2.7766
   24MOL    H2512951   4.011   6.074   7.722 -0.1302 -0.4049 -0.2163
   24MOL    H2612952   3.785   6.092   7.796  0.3561 -0.3135 -1.1316
   24MOL    H2712953   3.699   6.377   7.490  0.0297  0.2452  1.0181
   24MOL    H2812954   3.929   6.375   7.426 -2.6325  0.2045 -0.4241
   24MOL    H2912955   4.358   6.306   7.007 -1.8265  0.2918 -0.1053
   24MOL    O3012956   3.520   6.351   7.666  0.2341 -0.2587  0.0843
   24MOL    C3112957   3.384   6.375   7.709  0.1382  0.3463  0.8181
   24MOL    C3212958   3.301   6.444   7.593 -0.4150  0.1566 -0.4633
   24MOL    C3312959   3.380   6.550   7.520  0.0371  0.2352  0.3228
   24MOL    C3412960   3.291   6.654   7.447 -0.8303  0.5491 -0.2078
   24MOL    O3512961   3.217   6.733   7.537 -0.3119  0.2739  0.5861
   24MOL    C3612962   3.123   6.810   7.495  0.4606  0.1523  0.1415
   24MOL    O3712963   3.104   6.831   7.377 -0.0553  0.1166 -0.0590
   24MOL    C3812964   3.033   6.879   7.592  0.5809 -0.2848 -1.5145
   24MOL    C3912965   3.061   6.872   7.734 -0.0993 -0.9158 -0.3106
   24MOL    C4012966   2.970   6.938   7.824  0.4069  0.1920 -0.2377
   24MOL    C4112967   2.859   7.013   7.781  0.1433  0.4982 -0.5788
   24MOL    C4212968   2.763   7.067   7.883  0.0516 -0.5695 -0.1699
   24MOL    O4312969   2.663   7.132   7.855 -0.1082  0.2036 -0.2190
   24MOL    C4412970   2.836   7.022   7.640 -0.4446 -0.0902 -0.0200
   24MOL    C4512971   2.917   6.953   7.548 -0.6013 -0.2541  0.1794
   24MOL    H4612972   3.336   6.279   7.728 -1.9685  1.3690  0.7468
   24MOL    H4712973   3.387   6.438   7.798 -1.0855  0.7896  0.5575
   24MOL    H4812974   3.202   6.482   7.620 -1.1509 -1.2599 -1.1111
   24MOL    H4912975   3.275   6.361   7.528  1.9804  0.0962 -1.3993
   24MOL    H5012976   3.439   6.609   7.591  0.1028  1.0042 -0.3709
   24MOL    H5112977   3.442   6.491   7.453 -0.6900 -0.3295  0.1446
   24MOL    H5212978   3.353   6.716   7.382 -2.3382 -0.3367 -2.5347
   24MOL    H5312979   3.232   6.598   7.374  0.0763 -0.7229  0.0128
   24MOL    H5412980   3.153   6.824   7.763  0.9463  1.2301 -0.0027
   24MOL    H5512981   2.992   6.934   7.930 -1.3316  2.1496  0.2299
   24MOL    H5612982   2.754   7.079   7.598  1.8485  2.8040 -0.7225
   24MOL    H5712983   2.892   6.963   7.444 -1.4275  1.0344  0.4951
   24MOL    O5812984   2.792   7.023   8.006 -0.0878  0.4945  0.2588
   24MOL    C5912985   2.708   7.050   0.018  0.0589  0.2631 -0.3194
   24MOL    C6012986   2.779   7.076   0.149  0.2075 -0.2697 -0.0361
   24MOL    C6112987   2.691   7.080   0.272 -0.1537 -0.0489  0.0522
   24MOL    C6212988   2.769   7.085   0.404 -0.8247  0.5707 -0.3990
   24MOL    O6312989   2.680   7.096   0.515  0.9050 -0.0460 -0.1899
   24MOL    C6412990   2.662   7.219   0.578 -0.4528  0.4094  0.1062
   24MOL    O6512991   2.715   7.326   0.540 -0.3705 -0.4782  0.2342
   24MOL    C6612992   2.593   7.197   0.707 -0.3254  0.1970 -0.5278
   24MOL    C6712993   2.611   7.296   0.806 -0.4593 -0.5877 -0.1254
   24MOL    C6812994   2.552   7.288   0.935  0.2913 -0.6066 -0.2392
   24MOL    C6912995   2.471   7.179   0.960  0.3919  0.4506  0.3679
   24MOL    C7012996   2.411   7.172   1.088 -0.4991  1.0862 -0.1020
   24MOL    O7112997   2.404   7.274   1.161 -0.7019  0.3658  0.0523
   24MOL    C7212998   2.454   7.071   0.867 -0.2968  0.7317  0.2894
   24MOL    C7312999   2.523   7.084   0.742 -0.3227  0.3370  0.1448
   24MOL    H7413000   2.645   7.138   0.014  1.4280  1.3777  1.6315
   24MOL    H7513001   2.642   6.967   0.043  1.7099 -0.2753  2.5273
   24MOL    H7613002   2.847   7.161   0.144 -2.4586  1.9579 -0.0613
   24MOL    H7713003   2.841   6.987   0.156  2.5423  1.2179 -1.1098
   24MOL    H7813004   2.627   7.167   0.258 -0.2610  0.0587  1.2089
   24MOL    H7913005   2.629   6.990   0.269  0.9926 -0.8105 -1.6531
   24MOL    H8013006   2.831   6.995   0.416 -1.9413 -0.2335 -0.5643
   24MOL    H8113007   2.840   7.168   0.408  0.2973 -0.2545 -2.2537
   24MOL    H8213008   2.671   7.386   0.796  2.8179 -2.6746  0.2244
   24MOL    H8313009   2.580   7.367   1.002 -1.2573  0.5432 -0.9123
   24MOL    H8413010   2.396   6.984   0.894  0.0046  0.6649  0.7362
   24MOL    H8513011   2.510   7.008   0.668 -0.0257 -0.6493  1.0953
   24MOL    O8613012   2.367   7.041   1.117  0.0839 -0.2059 -1.4692
   24MOL    C8713013   2.293   7.022   1.240 -0.1303 -0.4707 -0.5161
   24MOL    C8813014   2.250   6.880   1.241  0.0128 -0.1516  0.1065
   24MOL    C8913015   2.360   6.775   1.263 -0.1481 -0.0751 -0.6867
   24MOL    C9013016   2.311   6.635   1.243  0.2219 -0.2382 -0.0911
   24MOL    O9113017   2.404   6.541   1.301  0.6053 -0.0475 -0.5807
   24MOL    C9213018   2.417   6.417   1.250 -0.1478 -0.2893  0.5683
   24MOL    O9313019   2.359   6.371   1.151 -0.3280 -0.1747 -0.4887
   24MOL    C9413020   2.537   6.344   1.300 -0.3244 -0.5210 -0.4031
   24MOL    C9513021   2.588   6.234   1.229 -0.8658 -0.3760  0.5273
   24MOL    C9613022   2.700   6.166   1.274  0.2164 -0.0108 -0.4289
   24MOL    C9713023   2.771   6.205   1.393 -0.0590  0.4892  0.4424
   24MOL    C9813024   2.901   6.140   1.436 -0.4231  0.3255  0.0898
   24MOL    O9913025   2.945   6.136   1.554  0.0715  0.2131  0.2092
   24MOL   C10013026   2.703   6.297   1.478  0.3072 -0.0269  0.0902
   24MOL   C10113027   2.589   6.368   1.431 -0.4958  0.3772  0.5661
   24MOL   H10213028   2.346   7.047   1.332 -1.5918  1.8849 -0.2683
   24MOL   H10313029   2.203   7.084   1.243  0.3275  0.1317  2.6055
   24MOL   H10413030   2.185   6.869   1.154 -2.5839  0.1700  1.9346
   24MOL   H10513031   2.189   6.874   1.332  0.8463  0.6809  0.7309
   24MOL   H10613032   2.443   6.802   1.198  0.8321 -1.4123 -0.0256
   24MOL   H10713033   2.405   6.792   1.361 -3.9796 -0.7426  1.2569
   24MOL   H10813034   2.213   6.621   1.287 -0.1938  1.1253 -0.5800
   24MOL   H10913035   2.297   6.622   1.136  1.0705  1.5904 -0.4394
   24MOL   H11013036   2.542   6.195   1.140 -0.4340  0.1318  0.0730
   24MOL   H11113037   2.740   6.091   1.207  1.7901  0.7530 -0.3667
   24MOL   H11213038   2.744   6.337   1.570  0.2934  0.8883 -0.3044
   24MOL   H11313039   2.544   6.449   1.487 -1.0637  0.5126 -0.0855
   24MOL   O11413040   2.967   6.100   1.325  0.0270 -0.1517 -0.0394
   24MOL   C11513041   3.074   6.018   1.324 -0.2561  0.6679  0.0853
   24MOL   C11613042   3.030   5.909   1.226  0.7922 -0.3149 -0.6488
   24MOL   C11713043   3.132   5.795   1.207 -0.2632 -0.8133  0.0848
   24MOL   C11813044   3.135   5.714   1.071  0.3146 -0.2334  0.6716
   24MOL   O11913045   3.200   5.594   1.102  0.0068 -0.1274 -0.0950
   24MOL   C12013046   3.213   5.495   1.010 -0.4142 -0.2712  0.4630
   24MOL   O12113047   3.192   5.524   0.887  0.1917  0.4610 -0.2652
   24MOL   C12213048   3.260   5.365   1.068 -0.2844  0.2670  0.0140
   24MOL   C12313049   3.317   5.352   1.197  0.6435 -0.3154  0.3877
   24MOL   C12413050   3.360   5.227   1.244  0.3970 -0.4489  0.9626
   24MOL   C12513051   3.369   5.116   1.161  0.2586  0.1055  0.2228
   24MOL   C12613052   3.408   4.987   1.220 -0.2504  0.3896 -0.2385
   24MOL   O12713053   3.480   4.979   1.319 -0.0403  0.3379 -0.0955
   24MOL   C12813054   3.320   5.130   1.027 -0.6141  0.2414 -0.1965
   24MOL   C12913055   3.269   5.250   0.983  0.0621  0.1412  0.2611
   24MOL   H13013056   3.163   6.063   1.281  0.5027  0.5875  1.5373
   24MOL   H13113057   3.109   5.973   1.417 -1.3566  0.0613  0.2122
   24MOL   H13213058   3.033   5.953   1.126  0.1778  2.3546  0.4547
   24MOL   H13313059   2.926   5.879   1.240  0.6940  1.1261  1.9717
   24MOL   H13413060   3.234   5.820   1.237  0.4198  0.1966 -2.9868
   24MOL   H13513061   3.094   5.722   1.280 -1.8258 -0.0196  0.1006
   24MOL   H13613062   3.035   5.687   1.037  1.7905 -1.0245 -3.2600
   24MOL   H13713063   3.193   5.766   0.995  0.2670 -1.2385 -0.0611
   24MOL   H13813064   3.323   5.439   1.261 -0.9051 -0.3342  0.5804
   24MOL   H13913065   3.376   5.226   1.350 -1.1921  0.3661  1.2205
   24MOL   H14013066   3.325   5.044   0.961 -0.1412 -0.7878  1.1320
   24MOL   H14113067   3.244   5.266   0.879  1.6092 -3.0036 -0.6412
   24MOL   O14213068   3.349   4.892   1.148  0.5583 -0.1795 -0.2841
   24MOL   C14313069   3.350   4.759   1.198  0.2709 -0.6892 -0.7159
   24MOL   C14413070   3.265   4.668   1.110 -0.7966  0.6291  0.3198
   24MOL   C14513071   3.127   4.718   1.088 -0.2871 -0.6719  0.2493
   24MOL   C14613072   3.036   4.705   1.214  0.1609 -0.0640 -0.2405
   24MOL   O14713073   3.071   4.808   1.303  0.8891 -0.1840 -0.4563
   24MOL   C14813074   3.023   4.802   1.433 -0.3743  0.1939  0.0677
   24MOL   O14913075   2.953   4.710   1.478  0.7574 -0.3922  0.8130
   24MOL   C15013076   3.066   4.922   1.517 -1.0729  0.0970  0.3629
   24MOL   C15113077   3.072   4.905   1.661  0.1320  0.1458  0.4468
   24MOL   C15213078   3.116   5.011   1.743  0.2815 -0.4565  0.6309
   24MOL   C15313079   3.155   5.128   1.684 -0.5659  0.4886  0.0026
   24MOL   C15413080   3.209   5.242   1.761  0.0702  0.1100 -0.0827
   24MOL   O15513081   3.212   5.361   1.724  0.0275  0.1097 -0.0810
   24MOL   C15613082   3.149   5.149   1.546 -0.5812 -0.1178 -0.3900
   24MOL   C15713083   3.094   5.050   1.463  0.2048  0.0356  0.1738
   24MOL   H15813084   3.451   4.723   1.215  1.5966  2.4890 -1.4382
   24MOL   H15913085   3.300   4.762   1.295 -1.1208 -0.8152 -1.4114
   24MOL   H16013086   3.262   4.564   1.142 -0.8476  0.0687 -1.4547
   24MOL   H16113087   3.300   4.663   1.007 -2.8502  1.7090 -0.4545
   24MOL   H16213088   3.125   4.811   1.032  0.8684 -2.6425 -3.2421
   24MOL   H16313089   3.085   4.645   1.018 -0.5708  0.2648 -0.5674
   24MOL   H16413090   2.932   4.706   1.182  0.1333 -1.2069 -0.1798
   24MOL   H16513091   3.043   4.610   1.267 -1.2709 -0.6402 -1.0596
   24MOL   H16613092   3.048   4.816   1.716 -0.4473  1.2839  2.0509
   24MOL   H16713093   3.109   5.011   1.851  2.1639  1.7652  0.7709
   24MOL   H16813094   3.188   5.234   1.492 -0.1608 -1.0904 -1.6365
   24MOL   H16913095   3.099   5.062   1.356 -0.9416  1.0230  0.2244
   24MOL   O17013096   3.263   5.201   1.875 -0.2387 -0.4216  0.1832
   24MOL   C17113097   3.333   5.285   1.962  0.1568 -0.4109  0.7000
   24MOL   C17213098   3.241   5.328   2.071 -0.3903 -0.7039  0.0845
   24MOL   C17313099   3.311   5.338   2.206  0.0054  0.1492 -0.0837
   24MOL   C17413100   3.215   5.369   2.326  0.6361  0.1780  0.3121
   24MOL   O17513101   3.204   5.510   2.332  0.1748 -0.0083  0.2341
   24MOL   C17613102   3.184   5.576   2.448 -0.4011  0.3944  0.1320
   24MOL   O17713103   3.189   5.514   2.551 -0.1702 -0.1915 -0.6678
   24MOL   C17813104   3.176   5.727   2.426  0.5204  0.1643 -0.1613
   24MOL   C17913105   3.156   5.811   2.535  0.5370 -0.2897  0.4077
   24MOL   C18013106   3.149   5.958   2.519  0.2807 -0.1560 -0.0463
   24MOL   C18113107   3.161   6.008   2.386  0.0517 -1.0273 -0.3260
   24MOL   C18213108   3.159   6.155   2.366  0.0361 -0.4649  0.1210
   24MOL   O18313109   3.124   6.226   2.454 -0.3641  0.7424  0.3323
   24MOL   C18413110   3.195   5.924   2.280  0.5249  0.4811 -0.8556
   24MOL   C18513111   3.204   5.786   2.299 -0.4551  0.3627  0.1399
   24MOL   H18613112   3.410   5.226   2.011  1.0870 -0.3734 -0.6932
   24MOL   H18713113   3.387   5.369   1.918 -0.8562  0.3336  0.8595
   24MOL   H18813114   3.160   5.255   2.080 -0.2036 -0.8401  0.6577
   24MOL   H18913115   3.185   5.419   2.053  1.3887  0.0500 -1.9101
   24MOL   H19013116   3.345   5.237   2.229  0.1367  0.3030  0.4000
   24MOL   H19113117   3.401   5.398   2.198 -1.4611  2.9083  2.7654
   24MOL   H19213118   3.118   5.319   2.327  1.0580 -0.6435  1.7200
   24MOL   H19313119   3.263   5.328   2.415 -0.7173 -0.4187  0.7795
   24MOL   H19413120   3.134   5.764   2.629 -1.7704 -1.3405 -0.6236
   24MOL   H19513121   3.128   6.026   2.600 -0.8548  1.2639 -1.4835
   24MOL   H19613122   3.230   5.960   2.184  1.1140  1.0193 -0.4427
   24MOL   H19713123   3.223   5.729   2.209  0.3077 -0.3189  0.7207
   24MOL   O19813124   3.187   6.197   2.234 -0.0112 -0.3132 -0.1725
   24MOL   C19913125   3.170   6.330   2.181 -0.2109  0.0165  0.0110
   24MOL   C20013126   3.101   6.312   2.045  0.2904 -0.4477 -0.5646
   24MOL   C20113127   3.067   6.444   1.975 -0.1095 -0.3490 -0.8876
   24MOL   C20213128   2.951   6.447   1.869 -0.3266  0.2636  0.2561
   24MOL   O20313129   2.834   6.465   1.944 -0.0610 -0.2006  0.3217
   24MOL   C20413130   2.711   6.454   1.885 -0.2256  0.2562 -0.0358
   24MOL   O20513131   2.705   6.447   1.765  0.0424 -0.2807 -0.6151
   24MOL   C20613132   2.597   6.458   1.976  0.3930 -0.0200  0.1902
   24MOL   C20713133   2.471   6.413   1.934  0.5064 -0.9497 -0.0860
   24MOL   C20813134   2.372   6.418   2.034 -0.0773  0.2188  0.3560
   24MOL   C20913135   2.385   6.497   2.151 -0.0979  0.7196 -0.1545
   24MOL   C21013136   2.279   6.506   2.253  0.2050 -0.2523  0.0874
   24MOL   O21113137   2.289   6.563   2.363  0.2093 -0.1486 -0.1231
   24MOL   C21213138   2.514   6.553   2.180  0.2640  1.0921  0.1534
   24MOL   C21313139   2.616   6.527   2.096  0.0952 -0.1234  0.4468
   24MOL   H21413140   3.101   6.383   2.247  0.1785  0.5647 -0.0223
   24MOL   H21513141   3.268   6.377   2.171 -0.2368 -0.1437 -1.1284
   24MOL   H21613142   3.010   6.253   2.059 -0.6023  0.7089 -1.3890
   24MOL   H21713143   3.168   6.254   1.982  2.2110 -0.2771  1.2847
   24MOL   H21813144   3.047   6.514   2.056  0.7680  0.8670 -1.7168
   24MOL   H21913145   3.168   6.462   1.938 -0.7378  0.8554 -2.0378
   24MOL   H22013146   2.958   6.526   1.794 -1.1696 -3.4537 -3.9366
   24MOL   H22113147   2.960   6.358   1.807  1.4350  1.1783 -0.8085
   24MOL   H22213148   2.453   6.365   1.839 -0.4419 -1.1225  0.1795
   24MOL   H22313149   2.277   6.369   2.015 -0.2987  0.5675  0.5477
   24MOL   H22413150   2.533   6.612   2.269 -1.5575  0.6764  0.8345
   24MOL   H22513151   2.717   6.558   2.119 -0.1160  1.1710 -0.3459
   24MOL   O22613152   2.163   6.453   2.218 -0.1539 -0.0140  0.2165
   24MOL   C22713153   2.053   6.455   2.308 -0.3079 -0.9551 -0.0808
   24MOL   C22813154   1.924   6.432   2.226  0.0623 -0.1307  0.2947
   24MOL   C22913155   1.828   6.343   2.299  0.6554 -0.1079 -0.1555
   24MOL   C23013156   1.721   6.279   2.216 -0.3421 -0.2521  0.2410
   24MOL   O23113157   1.644   6.380   2.154  0.7869 -0.3151  0.0613
   24MOL   C23213158   1.515   6.367   2.125 -0.5607  0.1106  0.1212
   24MOL   O23313159   1.458   6.259   2.142 -0.0204  0.8754  0.2343
   24MOL   C23413160   1.451   6.478   2.044  0.1218  0.0039 -0.4607
   24MOL   C23513161   1.507   6.607   2.026  0.6368 -0.4640  0.1656
   24MOL   C23613162   1.442   6.714   1.958 -0.1369  1.2710  0.1927
   24MOL   C23713163   1.310   6.698   1.917  0.7977 -0.2522  0.1389
   24MOL   C23813164   1.237   6.811   1.856 -0.3131 -0.8257 -0.1019
   24MOL   O23913165   1.257   6.927   1.886 -0.2955 -0.2856 -0.5257
   24MOL   C24013166   1.253   6.568   1.932  0.8170  0.3766 -0.7056
   24MOL   C24113167   1.320   6.459   1.985 -0.4945 -0.0539 -0.8204
   24MOL   H24213168   2.078   6.371   2.373 -1.0487 -1.1330 -0.0275
   24MOL   H24313169   2.051   6.546   2.367 -0.9019 -0.6310 -0.5905
   24MOL   H24413170   1.946   6.379   2.133 -2.0993 -1.2998  0.4091
   24MOL   H24513171   1.890   6.535   2.213 -0.6151 -0.3683  0.1367
   24MOL   H24613172   1.875   6.265   2.359  0.1812  1.7410  2.6770
   24MOL   H24713173   1.770   6.398   2.372 -0.5844 -0.1212 -1.1196
   24MOL   H24813174   1.762   6.209   2.143  1.4244 -1.9049  2.7553
   24MOL   H24913175   1.656   6.237   2.293 -0.1421  1.3737  1.3317
   24MOL   H25013176   1.612   6.616   2.051 -0.0028  0.7931  2.5801
   24MOL   H25113177   1.491   6.807   1.933 -0.6006  1.5004  0.1262
   24MOL   H25213178   1.155   6.549   1.891  1.2291  0.4725 -1.7596
   24MOL   H25313179   1.280   6.359   1.995  0.6248 -0.1654  3.6193
   24MOL   O25413180   1.142   6.776   1.765  0.0127  0.3533  0.4733
   24MOL   C25513181   1.033   6.854   1.734 -0.4223  0.8676  0.3200
   24MOL   C25613182   0.910   6.801   1.804  0.4712 -0.2595 -0.1103
   24MOL   C25713183   0.783   6.857   1.749  0.2586 -0.2767 -0.4928
   24MOL   C25813184   0.662   6.794   1.818  0.4776  1.5434  0.4639
   24MOL   O25913185   0.537   6.816   1.747 -0.1002  0.3796  0.1137
   24MOL   C26013186   0.426   6.763   1.797 -0.6732 -0.4670  1.0189
   24MOL   O26113187   0.414   6.699   1.901  0.0183  0.2812  0.1472
   24MOL   C26213188   0.300   6.784   1.708 -0.5510 -0.0742 -0.4612
   24MOL   C26313189   0.299   6.858   1.583  0.1012  0.0862 -0.1945
   24MOL   C26413190   0.175   6.869   1.514 -0.2448 -0.1839  0.5195
   24MOL   C26513191   0.061   6.800   1.556 -0.0747 -0.5470 -0.6077
   24MOL   C26613192   8.039   6.789   1.476 -0.4326 -0.2750 -0.0110
   24MOL   O26713193   8.019   6.862   1.378 -0.7452  0.4578 -0.3795
   24MOL   C26813194   0.056   6.733   1.680 -0.4328  0.1775 -0.2863
   24MOL   C26913195   0.180   6.730   1.754  0.7746  0.1913  0.0186
   24MOL   H27013196   1.048   6.953   1.776  0.5927  0.4252  1.0218
   24MOL   H27113197   1.029   6.864   1.626 -1.3625  2.3903  0.4784
   24MOL   H27213198   0.919   6.793   1.913 -1.4902 -4.0383 -0.1453
   24MOL   H27313199   0.893   6.700   1.768 -0.5214  0.2000 -0.9584
   24MOL   H27413200   0.780   6.965   1.763  0.5307 -0.8103  5.1213
   24MOL   H27513201   0.780   6.838   1.642 -1.4182  0.0250 -0.5094
   24MOL   H27613202   0.668   6.686   1.827  0.3392  1.4368 -0.6912
   24MOL   H27713203   0.644   6.835   1.918 -0.4885  2.3120 -0.0099
   24MOL   H27813204   0.390   6.898   1.542  0.1546 -1.3984 -1.5777
   24MOL   H27913205   0.169   6.933   1.427  2.5406 -0.2785  0.1979
   24MOL   H28013206   8.065   6.695   1.728 -1.1509 -1.2109 -2.6599
   24MOL   H28113207   0.180   6.679   1.850  2.9285  0.3577  0.1386
   24MOL   O28213208   7.948   6.693   1.511  0.4874  0.1420 -1.1390
   24MOL   C28313209   7.856   6.644   1.408  0.4732 -0.3761 -0.0924
   24MOL   C28413210   7.734   6.728   1.418 -0.0659  0.3390  0.0059
   24MOL   C28513211   7.656   6.714   1.288 -0.0744  0.1464  0.4063
   24MOL   C28613212   7.731   6.785   1.178  0.9689  0.2239  0.3250
   24MOL   O28713213   7.658   6.790   1.056  0.7474 -0.4438 -0.2023
   24MOL   C28813214   7.703   6.862   0.949 -0.3908  0.0449 -0.6746
   24MOL   O28913215   7.805   6.926   0.951  0.1607  0.3039 -0.3699
   24MOL   C29013216   7.603   6.869   0.839  0.6118 -0.4071  0.8612
   24MOL   C29113217   7.649   6.886   0.703 -0.0187  0.1169  0.4271
   24MOL   C29213218   7.559   6.896   0.599  0.2460 -0.0745 -0.3175
   24MOL   C29313219   7.423   6.874   0.617 -0.6364 -0.3295 -0.1134
   24MOL   C29413220   7.333   6.884   0.498 -0.4292  1.3937  0.1908
   24MOL   O29513221   7.371   6.885   0.385  0.0767 -0.1899  0.4766
   24MOL   C29613222   7.381   6.834   0.745  0.7513 -0.6186 -0.0721
   24MOL   C29713223   7.469   6.832   0.859  0.3684 -0.4228 -0.0851
   24MOL   H29813224   7.904   6.650   1.310 -3.1108 -1.9549 -2.0199
   24MOL   H29913225   7.830   6.540   1.429 -1.6927  0.3585  1.0290
   24MOL   H30013226   7.747   6.831   1.453 -1.6713  0.2244  1.0112
   24MOL   H30113227   7.675   6.686   1.498  2.2017 -1.5458  0.7328
   24MOL   H30213228   7.622   6.613   1.267  1.0559 -0.1231 -0.1241
   24MOL   H30313229   7.558   6.762   1.299 -0.3433  0.3520 -2.5141
   24MOL   H30413230   7.752   6.888   1.208  3.1889  0.0446 -0.4780
   24MOL   H30513231   7.820   6.725   1.160  0.1769 -0.6059 -0.9366
   24MOL   H30613232   7.753   6.911   0.685  1.0650 -2.1738  3.2199
   24MOL   H30713233   7.600   6.918   0.501  1.7211  0.5257  0.4221
   24MOL   H30813234   7.278   6.805   0.760 -0.0394  2.9465  1.7430
   24MOL   H30913235   7.420   6.816   0.954 -2.7880  0.7046 -1.4420
   24MOL   O31013236   7.204   6.894   0.537 -0.6791  0.1923 -0.3741
   24MOL   C31113237   7.102   6.858   0.447 -0.6289 -0.0582  0.9105
   24MOL   C31213238   6.965   6.889   0.503 -0.1031 -1.2279  0.1841
   24MOL   C31313239   6.910   7.035   0.490  0.5420 -0.2835 -0.5133
   24MOL   C31413240   6.902   7.088   0.349  0.7044 -0.3305  0.2325
   24MOL   O31513241   7.033   7.120   0.298  0.2179  0.0575 -0.1483
   24MOL   C31613242   7.037   7.202   0.197 -0.2214 -0.2449  0.3255
   24MOL   O31713243   6.938   7.255   0.150  0.0087  0.0486  0.4961
   24MOL   C31813244   7.170   7.235   0.140 -0.2890 -0.2421  0.4391
   24MOL   C31913245   7.187   7.322   0.029 -0.2421  0.0171 -0.0790
   24MOL   C32013246   7.318   7.352   8.079 -0.1611  0.1862 -0.4789
   24MOL   C32113247   7.428   7.296   0.041  0.0724 -0.0056  0.7144
   24MOL   C32213248   7.570   7.317   8.090  0.6914  0.5891 -0.5436
   24MOL   O32313249   7.658   7.232   0.000  0.1356 -0.4524  0.3762
   24MOL   C32413250   7.409   7.211   0.152 -0.4815 -0.0941  0.2993
   24MOL   C32513251   7.280   7.169   0.194 -0.1751  1.1401  0.3432
   24MOL   H32613252   7.118   6.899   0.348  1.8468 -3.7263 -0.2930
   24MOL   H32713253   7.115   6.752   0.426  0.4840  0.3918 -0.7653
   24MOL   H32813254   6.965   6.852   0.605 -0.9411  3.5585  2.0464
   24MOL   H32913255   6.891   6.819   0.464  1.9681 -2.2651 -2.0689
   24MOL   H33013256   6.813   7.026   0.540  1.4921 -1.6565  1.1846
   24MOL   H33113257   6.959   7.103   0.560 -0.4858 -0.7113  0.6433
   24MOL   H33213258   6.861   7.006   0.290 -0.5758  2.1104 -2.4068
   24MOL   H33313259   6.853   7.186   0.352  0.8192 -0.2633 -0.0668
   24MOL   H33413260   7.099   7.348   8.071 -1.3508 -2.1706  0.6117
   24MOL   H33513261   7.332   7.421   7.998 -0.3435  1.9982  0.9976
   24MOL   H33613262   7.486   7.154   0.201 -0.8174 -0.7353  0.0907
   24MOL   H33713263   7.272   7.094   0.272  1.0462  2.2169  1.5362
   24MOL   O33813264   7.587   7.441   8.034 -0.0279 -0.2962 -0.2165
   24MOL   C33913265   7.717   7.473   7.983  0.1660 -0.3868  0.3037
   24MOL   C34013266   7.714   7.475   7.832 -0.3882  0.8693  0.2040
   24MOL   C34113267   7.694   7.339   7.745 -0.2209 -0.3229 -0.7791
   24MOL   C34213268   7.631   7.364   7.611  0.5273 -0.6071 -0.0318
   24MOL   O34313269   7.730   7.432   7.537 -0.0800  0.7141 -0.9265
   24MOL   C34413270   7.694   7.514   7.439  0.2716  0.3804 -0.2130
   24MOL   O34513271   7.579   7.521   7.397  0.0594  0.2266  0.9335
   24MOL   C34613272   7.806   7.568   7.358 -0.0968 -0.1117 -0.2113
   24MOL   C34713273   7.780   7.640   7.239  0.0258 -0.5351  0.4465
   24MOL   C34813274   7.887   7.705   7.178 -0.3327  1.0889  0.0212
   24MOL   C34913275   8.020   7.701   7.228  0.4123  0.8636 -0.0773
   24MOL   C35013276   0.035   7.767   7.155 -0.0946  0.0211 -1.3031
   24MOL   O35113277   0.148   7.765   7.207  0.6766  0.6154  0.1230
   24MOL   C35213278   8.039   7.624   7.342 -1.0016 -0.3823 -0.3160
   24MOL   C35313279   7.935   7.559   7.409 -0.0145  0.6571  0.9910
   24MOL   H35413280   7.733   7.575   8.018 -0.0269 -0.7783  1.5704
   24MOL   H35513281   7.787   7.399   8.023  0.6501 -1.3406 -2.2555
   24MOL   H35613282   7.809   7.514   7.795 -0.1229 -1.6240 -1.8798
   24MOL   H35713283   7.636   7.540   7.792 -1.8365 -1.2288 -0.4406
   24MOL   H35813284   7.788   7.284   7.734  0.8771  1.3023  0.2280
   24MOL   H35913285   7.632   7.272   7.805  1.9943 -0.6398  1.2350
   24MOL   H36013286   7.607   7.266   7.570  0.7450 -0.2008 -1.1480
   24MOL   H36113287   7.541   7.421   7.632  0.6433  0.1934 -1.5837
   24MOL   H36213288   7.681   7.648   7.197  0.4182 -0.6868 -0.5178
   24MOL   H36313289   7.886   7.769   7.090  1.9863 -0.9737 -1.5626
   24MOL   H36413290   0.041   7.618   7.381 -0.6400 -1.0885 -1.3179
   24MOL   H36513291   7.956   7.510   7.503  0.8917  1.2831  1.1207
   24MOL   O36613292   0.011   7.815   7.034  0.6641 -0.0335 -0.1201
   24MOL   C36713293   0.116   7.850   6.947 -0.9234  0.0988  0.2127
   24MOL   C36813294   0.190   7.975   6.988  0.5552  1.2097 -0.5156
   24MOL   C36913295   0.319   7.996   6.910 -0.4528  0.1713  0.1898
   24MOL   C37013296   0.290   8.012   6.757  0.0754 -0.7198 -0.0299
   24MOL   O37113297   0.223   0.043   6.746 -0.4973  0.4634  0.1838
   24MOL   C37213298   0.165   0.084   6.626  0.0024 -0.6599  1.1556
   24MOL   O37313299   0.144   0.007   6.530 -0.0667  0.2553  0.4707
   24MOL   C37413300   0.104   0.223   6.635 -0.0256  0.3854  0.2175
   24MOL   C37513301   0.128   0.308   6.744  0.0540  0.5384 -0.4214
   24MOL   C37613302   0.071   0.436   6.759 -0.2323  0.7677  0.9406
   24MOL   C37713303   8.089   0.480   6.649  0.5350 -0.0283 -0.4329
   24MOL   C37813304   8.025   0.609   6.660 -0.8670 -0.7852 -0.4453
   24MOL   O37913305   8.038   0.681   6.758  0.0553 -0.2815  0.1758
   24MOL   C38013306   8.067   0.400   6.534 -0.9725  0.7101  0.5368
   24MOL   C38113307   0.024   0.267   6.528  0.0733 -0.6236 -0.4066
   24MOL   H38213308   0.177   7.759   6.948 -2.8623 -1.2616 -1.8170
   24MOL   H38313309   0.073   7.856   6.847 -0.2312  1.6138 -0.0155
   24MOL   H38413310   0.223   7.975   7.092  1.0329  0.0968 -0.6675
   24MOL   H38513311   0.127   8.064   6.983  1.2829  1.7152 -0.8539
   24MOL   H38613312   0.360   8.088   6.949 -1.0920 -0.1671  1.6992
   24MOL   H38713313   0.390   7.914   6.925 -0.1200  0.5949  0.9654
   24MOL   H38813314   0.378   8.009   6.692 -0.1867 -0.0596 -0.4185
   24MOL   H38913315   0.218   7.935   6.729 -2.8314  1.1311  2.0745
   24MOL   H39013316   0.180   0.271   6.831 -0.7183 -0.6732 -0.4650
   24MOL   H39113317   0.079   0.496   6.849 -1.5291 -1.9650  2.9605
   24MOL   H39213318   8.010   0.428   6.446 -0.0167  0.2802 -0.2362
   24MOL   H39313319   0.006   0.207   6.441 -1.4402 -2.3231  1.0380
   24MOL   O39413320   7.943   0.629   6.556 -0.8491 -0.2405  0.1763
   24MOL   C39513321   7.881   0.753   6.529  0.0676  0.2182 -0.2611
   24MOL   C39613322   7.910   0.800   6.383  0.1915 -0.2219 -0.3108
   24MOL   C39713323   7.873   0.946   6.354 -0.0207 -0.1148 -0.0956
   24MOL   C39813324   7.895   0.992   6.211  0.2856 -0.4947  0.3967
   24MOL   O39913325   7.775   0.952   6.144 -0.0864  0.2351  0.2582
   24MOL   C40013326   7.691   1.042   6.102  0.3732  0.4747 -0.4033
   24MOL   O40113327   7.719   1.163   6.096 -0.0730  0.5353  1.0066
   24MOL   C40213328   7.556   0.981   6.065  0.2609 -0.1478 -0.4128
   24MOL   C40313329   7.446   1.060   6.031 -0.1898 -0.5545  0.2924
   24MOL   C40413330   7.319   1.005   6.017 -0.3997  0.0699 -0.0281
   24MOL   C40513331   7.294   0.864   6.032 -0.4613 -0.5758 -0.5709
   24MOL   C40613332   7.157   0.802   6.008  0.1642 -0.7039 -0.3241
   24MOL   O40713333   7.060   0.875   5.999  0.1204 -0.7113  0.2262
   24MOL   C40813334   7.402   0.781   6.062  0.2030 -0.2421  0.1845
   24MOL   C40913335   7.534   0.840   6.078 -0.4183  0.3676  0.4252
   24MOL   H41013336   7.773   0.750   6.543  0.1427 -1.1621  0.1660
   24MOL   H41113337   7.908   0.820   6.611 -2.6735 -0.2825  1.1142
   24MOL   H41213338   7.857   0.730   6.318 -1.0251 -2.5843  3.0990
   24MOL   H41313339   8.012   0.775   6.355  0.1681  0.6248 -1.1605
   24MOL   H41413340   7.770   0.945   6.390  0.8317 -1.9124  2.4813
   24MOL   H41513341   7.933   1.002   6.426 -0.7583  2.0066 -1.1077
   24MOL   H41613342   7.915   1.099   6.202 -1.0680 -0.1906  0.9530
   24MOL   H41713343   7.978   0.945   6.157  0.6185 -0.3338  0.7624
   24MOL   H41813344   7.461   1.167   6.018 -0.4764 -0.3987  1.1968
   24MOL   H41913345   7.232   1.066   5.996  0.2644  0.6947 -1.0127
   24MOL   H42013346   7.389   0.675   6.077  3.0908 -0.6061  0.4568
   24MOL   H42113347   7.615   0.774   6.104 -0.3832 -0.1011 -0.8238
   24MOL   O42213348   7.159   0.669   5.997  0.7182  0.3644  0.1741
   24MOL   C42313349   7.034   0.606   5.998  0.4253  0.5987 -0.0265
   24MOL   C42413350   7.049   0.455   6.017 -0.7270  0.1571 -0.1791
   24MOL   C42513351   7.136   0.415   6.145  0.3498 -0.1721  0.3104
   24MOL   C42613352   7.143   0.262   6.169 -0.0817  0.7184  0.1896
   24MOL   O42713353   7.039   0.204   6.240 -0.0846  0.1117 -0.0569
   24MOL   C42813354   7.050   0.093   6.322 -0.1569 -0.4144 -0.0866
   24MOL   O42913355   7.137   0.014   6.304 -0.3201  0.0227  0.4523
   24MOL   C43013356   6.932   0.079   6.420  0.1065 -0.0861 -0.3832
   24MOL   C43113357   6.948   8.082   6.527 -0.3122 -0.0198 -0.2183
   24MOL   C43213358   6.836   8.060   6.610  0.5969 -0.5033 -0.3102
   24MOL   C43313359   6.708   0.011   6.578  0.7855 -0.0511  0.1207
   24MOL   C43413360   6.585   8.066   6.646 -0.0039  0.3105  0.1107
   24MOL   O43513361   6.474   0.022   6.636  0.0499  0.2168 -0.5684
   24MOL   C43613362   6.704   0.109   6.481 -0.2496 -0.2548  0.9098
   24MOL   C43713363   6.812   0.154   6.401  0.0011 -0.0006 -0.0919
   24MOL   H43813364   6.982   0.644   6.086  0.6309 -0.8900  0.7669
   24MOL   H43913365   6.978   0.631   5.908 -0.6569  0.8547  0.6995
   24MOL   H44013366   7.091   0.415   5.925 -0.2548 -0.7012  0.4035
   24MOL   H44113367   6.947   0.424   6.036  0.1503 -2.0568  1.0400
   24MOL   H44213368   7.231   0.464   6.122  1.0851 -1.5109  0.4510
   24MOL   H44313369   7.101   0.470   6.232 -3.4285 -0.4554 -0.9534
   24MOL   H44413370   7.153   0.208   6.075  1.0119  0.8643  0.2224
   24MOL   H44513371   7.235   0.253   6.227 -0.2050  1.5360  0.5326
   24MOL   H44613372   7.039   8.028   6.544  0.6379  2.2146  2.0934
   24MOL   H44713373   6.855   7.996   6.694  1.3364  0.8768  0.5991
   24MOL   H44813374   6.610   0.156   6.455 -0.6673 -0.9169  1.2148
   24MOL   H44913375   6.786   0.244   6.348 -0.0203  0.9896  1.5444
   24MOL   O45013376   6.608   7.962   6.719  0.3642 -0.4222  0.3232
   24MOL   C45113377   6.515   7.901   6.801  0.4882 -0.4420  0.0474
   24MOL   C45213378   6.579   7.776   6.869 -0.2480  0.2770 -0.2878
   24MOL   C45313379   6.693   7.801   6.967  0.4124 -0.6332  0.0136
   24MOL   C45413380   6.760   7.671   7.004 -0.4771  0.2903 -0.5347
   24MOL   O45513381   6.676   7.597   7.097  0.9506  0.3774 -0.3768
   24MOL   C45613382   6.696   7.611   7.230  0.4740  0.5202 -0.2792
   24MOL   O45713383   6.780   7.691   7.276 -0.0116 -0.3172 -0.1664
   24MOL   C45813384   6.605   7.533   7.307  0.0754  0.0683 -0.4377
   24MOL   C45913385   6.505   7.456   7.242 -0.3100  0.1306 -0.9330
   24MOL   C46013386   6.419   7.369   7.316  0.3599 -0.0121 -0.1831
   24MOL   C46113387   6.409   7.380   7.457 -0.9659  0.4814 -0.0074
   24MOL   C46213388   6.304   7.307   7.535  0.1563 -0.4180  0.5807
   24MOL   O46313389   6.291   7.318   7.655 -0.1509  0.4186 -0.8261
   24MOL   C46413390   6.507   7.463   7.522 -0.4257 -0.5564  0.0814
   24MOL   C46513391   6.602   7.537   7.446  0.3854 -0.1738 -0.0064
   24MOL   H46613392   6.480   7.963   6.884 -0.3251 -0.3052 -0.3908
   24MOL   H46713393   6.432   7.875   6.736 -0.0068  1.6404 -0.1747
   24MOL   H46813394   6.597   7.702   6.792 -2.3219 -0.4432 -0.1277
   24MOL   H46913395   6.495   7.734   6.925 -0.6597  0.4903 -0.7376
   24MOL   H47013396   6.765   7.862   6.913  0.7183 -0.3617  0.7213
   24MOL   H47113397   6.652   7.862   7.047  0.5746 -0.3755 -0.0999
   24MOL   H47213398   6.767   7.616   6.910 -0.5933  0.8849 -0.8936
   24MOL   H47313399   6.858   7.677   7.050 -1.0339 -0.3877  0.7733
   24MOL   H47413400   6.501   7.449   7.134 -0.0677  2.5175 -1.1121
   24MOL   H47513401   6.351   7.301   7.267  0.9023  1.0626 -2.5155
   24MOL   H47613402   6.496   7.474   7.629  0.0429 -2.1242  0.3156
   24MOL   H47713403   6.670   7.599   7.503 -0.4148  0.5911  0.1286
   24MOL   O47813404   6.224   7.227   7.456 -0.6100 -0.5248  0.0763
   24MOL   C47913405   6.104   7.183   7.525 -0.4885 -0.1598  0.4956
   24MOL   C48013406   6.016   7.098   7.433  0.9198  0.4654  0.0995
   24MOL   C48113407   6.080   6.968   7.389 -0.6875  0.6392  0.0311
   24MOL   C48213408   5.983   6.877   7.319 -0.2702 -0.3957  0.3537
   24MOL   O48313409   5.938   6.938   7.197 -0.8532 -0.2189 -0.1459
   24MOL   C48413410   5.988   6.898   7.074  0.0197  0.2289  0.1668
   24MOL   O48513411   6.080   6.815   7.072  0.3889  0.0625  0.1232
   24MOL   C48613412   5.924   6.970   6.958 -0.2305 -1.1957  0.0927
   24MOL   C48713413   5.955   6.930   6.824 -0.6340  0.7166 -0.2626
   24MOL   C48813414   5.895   6.993   6.714  0.5249  0.2427 -0.4070
   24MOL   C48913415   5.805   7.102   6.732 -0.1008  0.8000  0.4077
   24MOL   C49013416   5.733   7.170   6.616  0.0267 -0.0020  0.3808
   24MOL   O49113417   5.697   7.288   6.619 -0.8425 -0.0778 -0.4244
   24MOL   C49213418   5.782   7.145   6.865  0.2968  0.3759  0.2065
   24MOL   C49313419   5.841   7.088   6.972 -0.2788  0.3110 -0.8579
   24MOL   H49413420   6.126   7.123   7.612  0.6562 -1.8170 -0.8960
   24MOL   H49513421   6.046   7.274   7.540  2.1595  1.4439  1.2873
   24MOL   H49613422   5.978   7.150   7.345  0.7038  2.1098  1.1258
   24MOL   H49713423   5.927   7.084   7.494  1.2225  0.3327  0.5155
   24MOL   H49813424   6.160   6.998   7.322 -0.7454 -0.7085 -0.6453
   24MOL   H49913425   6.117   6.916   7.477  0.7890  2.7059  0.6692
   24MOL   H50013426   6.029   6.779   7.314  3.5036  1.2785  0.6197
   24MOL   H50113427   5.900   6.847   7.382 -1.3461  0.9315 -0.3917
   24MOL   H50213428   6.019   6.844   6.808  1.1392  2.2492 -1.5172
   24MOL   H50313429   5.918   6.956   6.616  1.4452  0.7188 -0.3809
   24MOL   H50413430   5.712   7.225   6.880  1.7955  2.0948 -1.7037
   24MOL   H50513431   5.825   7.126   7.072  0.6243 -0.7195 -0.3144
   24MOL   O50613432   5.713   7.092   6.505 -0.0415 -0.0641 -0.2916
   24MOL   C50713433   5.661   7.144   6.386 -0.1192 -0.1763  0.6111
   24MOL   C50813434   5.565   7.042   6.316 -0.0552  1.0012 -0.5433
   24MOL   C50913435   5.637   6.927   6.252 -0.2391 -0.3819 -0.0406
   24MOL   C51013436   5.735   6.974   6.134 -0.2102  0.3874  0.1265
   24MOL   O51113437   5.774   6.868   6.042 -0.1446  0.4586 -0.1000
   24MOL   C51213438   5.875   6.791   6.089 -0.0528  0.2776 -0.2722
   24MOL   O51313439   5.942   6.816   6.191  0.2558 -0.3008 -0.4758
   24MOL   C51413440   5.917   6.680   6.003 -0.2195 -0.8646 -0.0408
   24MOL   C51513441   6.049   6.626   6.020 -0.2363  0.6848  0.3888
   24MOL   C51613442   6.092   6.529   5.926  0.7385 -0.3321 -0.0636
   24MOL   C51713443   6.011   6.475   5.823 -0.5289  0.5329  0.1310
   24MOL   C51813444   6.067   6.384   5.720  0.0027 -0.3551  0.0631
   24MOL   O51913445   6.181   6.337   5.737  0.8133 -0.1014 -0.2756
   24MOL   C52013446   5.880   6.523   5.818 -0.6011 -0.2586  0.2948
   24MOL   C52113447   5.831   6.621   5.907 -0.7052 -0.0486 -0.3223
   24MOL   H52213448   5.593   7.228   6.403 -1.8096 -1.2576 -0.7562
   24MOL   H52313449   5.742   7.177   6.321 -0.3115 -2.1670 -0.6660
   24MOL   H52413450   5.509   7.096   6.240 -1.2495 -0.2174 -0.5505
   24MOL   H52513451   5.497   7.005   6.392 -0.3127 -0.2123 -1.3374
   24MOL   H52613452   5.687   6.865   6.326 -0.0870 -1.2163 -0.8389
   24MOL   H52713453   5.560   6.861   6.214 -0.7082  0.9116 -1.4003
   24MOL   H52813454   5.674   7.050   6.085 -0.2519  1.1410  1.3138
   24MOL   H52913455   5.823   7.018   6.180 -0.7049  0.4720  1.0085
   24MOL   H53013456   6.117   6.658   6.097  1.6443  0.0226 -0.9452
   24MOL   H53113457   6.193   6.492   5.932  0.4225 -0.9807  1.6091
   24MOL   H53213458   5.817   6.475   5.746  0.0025 -1.4741  0.5650
   24MOL   H53313459   5.734   6.666   5.893 -0.6329 -0.4132 -2.0900
   24MOL   O53413460   6.002   6.392   5.600  0.1237 -0.4996 -0.4349
   24MOL   C53513461   6.054   6.317   5.490 -0.0601  0.4611  0.3738
   24MOL   C53613462   6.149   6.399   5.403  0.6920  0.1386  0.6522
   24MOL   C53713463   6.070   6.505   5.321 -0.6699  0.9837  0.3935
   24MOL   C53813464   5.961   6.587   5.384 -0.0659  0.2724  0.4645
   24MOL   O53913465   6.016   6.681   5.474 -0.1856  0.1025 -0.3960
   24MOL   C54013466   5.937   6.744   5.566 -0.1205 -0.0567  0.0314
   24MOL   O54113467   5.822   6.715   5.586  0.6168  0.4803  0.2531
   24MOL   C54213468   6.003   6.868   5.621 -0.0868 -0.5180 -0.5501
   24MOL   C54313469   6.123   6.924   5.567 -0.3963  0.1005 -0.3098
   24MOL   C54413470   6.168   7.049   5.622 -0.6595  0.8178  0.2933
   24MOL   C54513471   6.103   7.109   5.731  0.7380  0.5571 -0.7379
   24MOL   C54613472   6.162   7.240   5.777 -0.6773  0.2195 -0.5690
   24MOL   O54713473   6.117   7.307   5.874  0.6432  0.0183 -0.2811
   24MOL   C54813474   5.982   7.051   5.787 -0.2860 -0.8400 -0.9152
   24MOL   C54913475   5.941   6.931   5.736 -0.1002 -0.0674 -0.3218
   24MOL   H55013476   6.103   6.224   5.516 -0.3899 -0.3755 -1.8543
   24MOL   H55113477   5.979   6.296   5.414 -1.5329 -1.1819  2.2311
   24MOL   H55213478   6.202   6.323   5.345 -1.6140 -0.5490 -0.6021
   24MOL   H55313479   6.224   6.448   5.465  3.1752 -1.1705 -1.2147
   24MOL   H55413480   6.137   6.579   5.278  0.2098  0.6251  1.1351
   24MOL   H55513481   6.017   6.441   5.250 -0.1723  1.7295 -0.6610
   24MOL   H55613482   5.903   6.642   5.309 -0.8482 -0.2156  0.7089
   24MOL   H55713483   5.889   6.531   5.442  2.0496 -2.3137  0.6565
   24MOL   H55813484   6.174   6.877   5.484 -0.7885 -1.6257  0.4030
   24MOL   H55913485   6.250   7.099   5.572  0.3898 -2.1065 -1.0079
   24MOL   H56013486   5.938   7.086   5.879 -0.0625  2.7658 -2.1100
   24MOL   H56113487   5.861   6.875   5.784 -0.9187  2.7695  1.6986
   24MOL   H56213488   6.239   7.283   5.712  0.6694 -0.7563  0.3584
   25MOL     O113489   0.387   5.256   7.231 -0.2835 -0.5671  0.5030
   25MOL     C213490   0.466   5.137   7.245 -0.0939  0.4607  0.3613
   25MOL     C313491   0.373   5.019   7.244  0.2035 -0.4652  0.5725
   25MOL     C413492   0.448   4.893   7.281 -0.1332  0.2717 -0.1412
   25MOL     C513493   0.360   4.768   7.300  0.1362 -1.1628 -0.1546
   25MOL     O613494   0.275   4.785   7.410 -0.5990  0.3597 -0.3773
   25MOL     C713495   0.172   4.701   7.420 -0.1699 -0.7882  0.4795
   25MOL     O813496   0.145   4.612   7.342 -0.4461  0.6547  0.1225
   25MOL     C913497   0.097   4.735   7.540 -0.2083 -1.1657  0.6400
   25MOL    C1013498   0.107   4.865   7.602  0.3659  0.6348  0.1536
   25MOL    C1113499   0.032   4.888   7.723 -0.2970  0.0695  0.7696
   25MOL    C1213500   8.042   4.787   7.765 -0.2394 -0.0436 -0.4139
   25MOL    C1313501   7.963   4.815   7.889 -0.3955  0.1126  0.2771
   25MOL    O1413502   7.972   4.916   7.958 -0.0351 -0.4188  0.5606
   25MOL    C1513503   8.028   4.666   7.701 -0.1063  0.0509  0.0189
   25MOL    C1613504   0.004   4.642   7.583 -0.7058  0.6548 -0.4083
   25MOL    H1713505   0.544   5.134   7.170  0.2665  0.0280  0.7599
   25MOL    H1813506   0.516   5.139   7.342  2.4879 -1.5668 -0.8783
   25MOL    H1913507   0.308   5.015   7.157  2.4043 -2.5718 -1.0395
   25MOL    H2013508   0.306   5.018   7.330 -0.9655  1.0728 -0.2878
   25MOL    H2113509   0.510   4.868   7.195  1.3594 -0.0749  1.0070
   25MOL    H2213510   0.517   4.905   7.365  2.1477  0.0513 -1.9234
   25MOL    H2313511   0.290   4.778   7.218 -0.0510  2.1075  0.3177
   25MOL    H2413512   0.411   4.672   7.305  1.1298 -0.5974  0.9196
   25MOL    H2513513   0.180   4.937   7.568  0.5147  0.6016  0.3921
   25MOL    H2613514   0.043   4.981   7.777  0.4601  0.8442 -0.6713
   25MOL    H2713515   7.968   4.580   7.727  1.4592 -1.8133 -2.3238
   25MOL    H2813516   0.001   4.552   7.523  2.6141  0.1787  0.0451
   25MOL    H2913517   0.453   5.322   7.245  0.5112 -1.0249 -1.0302
   25MOL    O3013518   7.898   4.712   7.935  0.4963 -0.6952  0.1954
   25MOL    C3113519   7.816   4.724   8.049  0.1125 -0.3371 -0.9563
   25MOL    C3213520   7.695   4.634   8.020 -0.3710 -0.6434 -0.1752
   25MOL    C3313521   7.625   4.665   7.895  0.3924  0.2519 -0.9864
   25MOL    C3413522   7.529   4.555   7.857 -0.2822 -0.1575 -0.0873
   25MOL    O3513523   7.433   4.536   7.956 -0.2795 -0.0682 -0.0394
   25MOL    C3613524   7.328   4.459   7.931 -0.0133  0.6623 -0.2314
   25MOL    O3713525   7.281   4.435   7.824 -0.0783  0.0125  0.1036
   25MOL    C3813526   7.254   4.417   8.055 -0.4042  0.4595 -0.3273
   25MOL    C3913527   7.132   4.349   8.042  0.0783 -0.5843 -0.7504
   25MOL    C4013528   7.063   4.305   0.058  0.2120 -0.2500  0.2157
   25MOL    C4113529   7.119   4.316   0.185  0.3024 -0.4124 -0.4039
   25MOL    C4213530   7.043   4.267   0.298 -0.1971 -0.0169 -0.9624
   25MOL    O4313531   7.062   4.300   0.411 -0.5025  0.0831  0.1807
   25MOL    C4413532   7.246   4.380   0.201  0.6428  0.6096  0.1296
   25MOL    C4513533   7.309   4.432   0.089  0.0526 -0.0719 -0.5100
   25MOL    H4613534   7.872   4.686   0.036 -2.1890 -1.1792  0.1907
   25MOL    H4713535   7.795   4.829   8.069  2.0554 -0.3414  1.2750
   25MOL    H4813536   7.619   4.632   8.098  0.8664  0.4524  1.0979
   25MOL    H4913537   7.724   4.529   8.012 -0.4936 -0.8593  1.8059
   25MOL    H5013538   7.574   4.761   7.901 -2.2131 -1.0493 -1.3897
   25MOL    H5113539   7.699   4.664   7.814  1.7995 -2.0261  0.2832
   25MOL    H5213540   7.467   4.579   7.770 -0.4253 -1.8199 -0.4641
   25MOL    H5313541   7.573   4.458   7.833  0.7384  0.3580 -0.3070
   25MOL    H5413542   7.082   4.333   7.947 -2.4564 -0.5236  0.5396
   25MOL    H5513543   6.965   4.259   0.047 -0.5461  1.5390 -0.7425
   25MOL    H5613544   7.293   4.405   0.295 -1.8888  0.3115  1.5236
   25MOL    H5713545   7.397   4.492   0.109 -1.0074  0.9497  1.2626
   25MOL    O5813546   6.946   4.181   0.263  0.0104 -1.1185  0.0601
   25MOL    C5913547   6.865   4.120   0.360  0.1964 -0.6581 -0.8113
   25MOL    C6013548   6.729   4.183   0.361  0.2221  0.0138  0.0284
   25MOL    C6113549   6.641   4.148   0.477  0.6239 -0.4360  0.0331
   25MOL    C6213550   6.616   3.994   0.500  0.4680  0.5118 -0.7882
   25MOL    O6313551   6.517   3.934   0.415  0.0928  0.3060  0.0571
   25MOL    C6413552   6.537   3.867   0.312  0.3692 -0.0889 -0.0452
   25MOL    O6513553   6.650   3.853   0.260  0.7239  0.1584 -0.0526
   25MOL    C6613554   6.406   3.813   0.272 -0.1181  0.5591 -0.0638
   25MOL    C6713555   6.403   3.762   0.143 -0.0552  0.1286 -1.1785
   25MOL    C6813556   6.277   3.710   0.097 -0.2422  0.0935  0.2881
   25MOL    C6913557   6.162   3.699   0.169  0.4291 -0.1338 -0.0579
   25MOL    C7013558   6.033   3.649   0.109 -0.2614  1.1882 -0.1467
   25MOL    O7113559   6.025   3.609   8.093 -0.5140 -0.1205  0.3218
   25MOL    C7213560   6.172   3.751   0.298  0.0676  0.8875 -0.7541
   25MOL    C7313561   6.289   3.805   0.356  0.0960  0.1693  0.3181
   25MOL    H7413562   6.864   4.012   0.343 -0.7679 -1.1971  2.4140
   25MOL    H7513563   6.913   4.137   0.456 -1.6096  0.4781 -0.0846
   25MOL    H7613564   6.686   4.149   0.267 -0.5425 -3.0838  1.4596
   25MOL    H7713565   6.734   4.292   0.353 -0.1408 -0.0172 -0.6216
   25MOL    H7813566   6.686   4.180   0.571 -1.0578 -0.1023  0.7422
   25MOL    H7913567   6.545   4.199   0.470 -0.0126 -1.6541 -0.3898
   25MOL    H8013568   6.711   3.942   0.489  2.2812  3.2295  1.2756
   25MOL    H8113569   6.592   3.976   0.604  0.0708 -0.1742 -0.9974
   25MOL    H8213570   6.492   3.772   0.082  2.4535 -2.7875  1.7705
   25MOL    H8313571   6.285   3.663   8.098  0.4401  0.2727  0.2575
   25MOL    H8413572   6.086   3.740   0.363 -0.4806  2.0860 -1.2606
   25MOL    H8513573   6.296   3.848   0.455  1.9574  0.0456  0.2527
   25MOL    O8613574   5.932   3.659   0.184 -0.0704  0.4794  0.4706
   25MOL    C8713575   5.804   3.626   0.136  0.1040  0.1491 -0.2248
   25MOL    C8813576   5.703   3.583   0.251 -0.1506 -0.3099 -0.1985
   25MOL    C8913577   5.754   3.452   0.308  0.6963  0.2609  0.6002
   25MOL    C9013578   5.685   3.399   0.436  0.0767 -0.0961 -0.2594
   25MOL    O9113579   5.749   3.279   0.482 -0.1522 -0.7756  0.0398
   25MOL    C9213580   5.681   3.165   0.469  0.0716  0.0318  0.1744
   25MOL    O9313581   5.561   3.155   0.436  1.0277  0.1931  0.2253
   25MOL    C9413582   5.760   3.040   0.512  0.8475  0.4109  0.1550
   25MOL    C9513583   5.699   2.931   0.577  0.2350 -0.5939  0.4352
   25MOL    C9613584   5.773   2.814   0.609 -0.2394  0.3058 -0.4572
   25MOL    C9713585   5.909   2.809   0.583 -0.8091 -0.2403 -0.5854
   25MOL    C9813586   5.998   2.695   0.635 -0.2191  0.4456 -0.1060
   25MOL    O9913587   5.952   2.603   0.697 -0.3473 -0.3552 -0.0932
   25MOL   C10013588   5.971   2.917   0.511 -0.1771 -0.3866 -0.7784
   25MOL   C10113589   5.899   3.037   0.480 -0.3004  0.5293  0.1076
   25MOL   H10213590   5.780   3.718   0.084 -1.7656  0.8272  1.7695
   25MOL   H10313591   5.795   3.540   0.069 -0.0160 -0.3210  0.3809
   25MOL   H10413592   5.601   3.563   0.218 -0.2407 -2.7494  1.4177
   25MOL   H10513593   5.698   3.661   0.327  1.3542 -1.2922  0.9387
   25MOL   H10613594   5.739   3.378   0.228 -0.2459 -1.0372  1.9451
   25MOL   H10713595   5.859   3.449   0.334  0.3918  0.3772  1.8777
   25MOL   H10813596   5.721   3.473   0.506 -2.1331 -0.6683  1.5485
   25MOL   H10913597   5.576   3.408   0.437  0.0898  0.0065  0.8196
   25MOL   H11013598   5.597   2.944   0.607  0.1043  2.0637 -1.0064
   25MOL   H11113599   5.723   2.738   0.667  1.4527 -0.8025 -0.4122
   25MOL   H11213600   6.078   2.910   0.496 -0.0073  0.0867  0.1245
   25MOL   H11313601   5.941   3.111   0.414  0.8288  0.5104  0.8061
   25MOL   O11413602   6.132   2.711   0.614  0.5943 -0.4706  0.4516
   25MOL   C11513603   6.219   2.606   0.643  0.0795 -0.4419 -0.0602
   25MOL   C11613604   6.371   2.636   0.614 -0.0823  0.4208  0.0977
   25MOL   C11713605   6.431   2.755   0.691  0.7075  0.9109 -0.5424
   25MOL   C11813606   6.460   2.717   0.838  0.9751  0.2154  0.2172
   25MOL   O11913607   6.484   2.827   0.919 -0.7777 -0.1691  0.2773
   25MOL   C12013608   6.508   2.807   1.049  0.0884  0.4646 -0.2240
   25MOL   O12113609   6.525   2.695   1.105 -0.6423 -0.2092 -0.1566
   25MOL   C12213610   6.523   2.938   1.118  0.0833 -0.0084  0.0476
   25MOL   C12313611   6.591   2.950   1.240 -0.0010  0.1834 -0.1805
   25MOL   C12413612   6.617   3.076   1.301  1.3267  0.1095 -0.2951
   25MOL   C12513613   6.552   3.189   1.250 -0.0375  0.0800 -0.8827
   25MOL   C12613614   6.555   3.315   1.337 -0.0420  0.2745 -0.3240
   25MOL   O12713615   6.615   3.322   1.448  0.4743  0.5576 -0.1463
   25MOL   C12813616   6.481   3.179   1.131 -0.1432 -0.0671  0.5985
   25MOL   C12913617   6.466   3.055   1.063  0.2112  0.1422  0.4024
   25MOL   H13013618   6.221   2.577   0.748  3.3227  1.1210  0.3714
   25MOL   H13113619   6.181   2.521   0.586 -1.0869 -0.3845  0.6281
   25MOL   H13213620   6.380   2.673   0.512 -0.7543 -2.1313 -0.9346
   25MOL   H13313621   6.425   2.542   0.627  0.7377  0.7855 -0.6635
   25MOL   H13413622   6.523   2.789   0.643  0.0052 -0.1089 -2.6641
   25MOL   H13513623   6.368   2.843   0.694  0.8726  1.0710 -1.7129
   25MOL   H13613624   6.371   2.679   0.888  1.1044  2.2131  2.0285
   25MOL   H13713625   6.537   2.640   0.845 -0.6885 -1.3770  1.1795
   25MOL   H13813626   6.636   2.857   1.270 -1.1700  0.3144  2.0432
   25MOL   H13913627   6.671   3.080   1.395 -0.5394 -1.5925  0.8854
   25MOL   H14013628   6.430   3.267   1.095 -1.9419 -1.3959 -0.2109
   25MOL   H14113629   6.421   3.058   0.964 -0.5059 -1.4586  0.6536
   25MOL   O14213630   6.488   3.418   1.277 -0.0257  0.2509  0.2608
   25MOL   C14313631   6.414   3.510   1.358  0.2947  0.3698 -0.0407
   25MOL   C14413632   6.287   3.438   1.404 -0.2112 -0.3259 -0.0346
   25MOL   C14513633   6.203   3.390   1.289 -0.1674  1.0236 -0.0090
   25MOL   C14613634   6.052   3.357   1.316  0.2249 -0.5089  0.4760
   25MOL   O14713635   5.977   3.479   1.319  0.2082  0.1679  0.0518
   25MOL   C14813636   5.949   3.539   1.439 -0.9101 -0.7511  0.0335
   25MOL   O14913637   5.968   3.486   1.547 -0.3435  0.3486  0.0562
   25MOL   C15013638   5.879   3.671   1.429  0.7646 -0.2885  0.4981
   25MOL   C15113639   5.825   3.734   1.543 -0.3370  0.2859  0.5239
   25MOL   C15213640   5.753   3.857   1.529  0.1418  0.8013 -0.6647
   25MOL   C15313641   5.723   3.915   1.400 -0.0025  0.5555  0.5878
   25MOL   C15413642   5.639   4.034   1.387 -0.7158 -0.0801  0.7909
   25MOL   O15513643   5.608   4.108   1.476 -0.0055 -0.8746 -0.0272
   25MOL   C15613644   5.777   3.846   1.290  0.0472  0.4378 -0.9744
   25MOL   C15713645   5.862   3.729   1.304  0.1100  0.2956  0.5282
   25MOL   H15813646   6.482   3.547   1.435 -0.7045  0.5718  0.7525
   25MOL   H15913647   6.395   3.598   1.296  0.9878  1.0979  0.7489
   25MOL   H16013648   6.230   3.518   1.451 -0.3228  0.4765 -1.4914
   25MOL   H16113649   6.296   3.361   1.481 -1.0332  0.2698  0.6565
   25MOL   H16213650   6.207   3.462   1.207  0.5895  0.5054 -0.4283
   25MOL   H16313651   6.248   3.298   1.253 -0.6650  0.1612  1.5004
   25MOL   H16413652   6.006   3.289   1.244  0.5063 -1.2296  0.9738
   25MOL   H16513653   6.042   3.302   1.410  1.3710  0.0691  0.9457
   25MOL   H16613654   5.842   3.692   1.641 -1.8551 -2.3683 -0.2953
   25MOL   H16713655   5.715   3.897   1.622 -0.7970  0.5941 -0.9514
   25MOL   H16813656   5.766   3.893   1.193  0.2227  2.5252 -0.0084
   25MOL   H16913657   5.911   3.682   1.221 -2.0768 -0.8574 -0.1596
   25MOL   O17013658   5.597   4.049   1.266 -0.0562  0.2731  0.1220
   25MOL   C17113659   5.514   4.153   1.225 -0.4321  0.4811 -0.3905
   25MOL   C17213660   5.375   4.106   1.207  0.2872  0.1510 -0.2333
   25MOL   C17313661   5.286   4.198   1.108  0.7825  0.0560  0.3109
   25MOL   C17413662   5.137   4.156   1.094  0.2025  0.0507 -0.1862
   25MOL   O17513663   5.061   4.191   1.197  0.4953 -0.2722 -0.3927
   25MOL   C17613664   5.049   4.126   1.310  0.2340  0.0031 -0.0327
   25MOL   O17713665   5.089   4.011   1.322  0.5632  0.0052 -0.0107
   25MOL   C17813666   4.960   4.190   1.418 -0.0068 -0.3517 -0.1302
   25MOL   C17913667   4.910   4.109   1.521  0.1307  0.5824  0.1087
   25MOL   C18013668   4.822   4.161   1.619  0.6603  0.0446  0.0295
   25MOL   C18113669   4.775   4.293   1.608 -0.4227  0.2962  0.1415
   25MOL   C18213670   4.667   4.343   1.695  0.2495  0.0591  0.3539
   25MOL   O18313671   4.633   4.295   1.800 -0.2768  0.5909 -0.0217
   25MOL   C18413672   4.820   4.367   1.498 -0.6546  0.4887  0.5343
   25MOL   C18513673   4.919   4.321   1.412  0.3126  0.2840  0.0461
   25MOL   H18613674   5.528   4.244   1.283  2.0005 -0.6691  0.8618
   25MOL   H18713675   5.552   4.175   1.126  3.1718 -0.9207  0.6205
   25MOL   H18813676   5.326   4.092   1.303 -0.2353  0.6949 -0.4214
   25MOL   H18913677   5.365   4.001   1.178 -2.2894 -0.0003  1.0718
   25MOL   H19013678   5.288   4.300   1.145 -0.8412  0.1109  0.2583
   25MOL   H19113679   5.326   4.189   1.007 -0.3684  3.4824 -0.5133
   25MOL   H19213680   5.088   4.191   1.003 -1.8117  0.5293  1.0585
   25MOL   H19313681   5.137   4.047   1.086 -0.1232  0.0255  0.1559
   25MOL   H19413682   4.947   4.007   1.516  1.9435  1.1680  1.0995
   25MOL   H19513683   4.798   4.094   1.700  1.3433 -1.6010 -1.1177
   25MOL   H19613684   4.803   4.473   1.486  1.9308  0.9686  0.6625
   25MOL   H19713685   4.958   4.387   1.336  1.2418 -0.0240  0.2548
   25MOL   O19813686   4.608   4.457   1.650 -0.3999 -0.2635  0.1893
   25MOL   C19913687   4.508   4.522   1.727  0.0464  0.2881 -1.0728
   25MOL   C20013688   4.494   4.667   1.682 -0.3790  0.1904  0.1437
   25MOL   C20113689   4.433   4.744   1.797 -0.0896  0.0331  0.3026
   25MOL   C20213690   4.393   4.888   1.759  0.0861 -0.6183 -0.4722
   25MOL   O20313691   4.517   4.960   1.758 -0.4477 -0.0872  0.0695
   25MOL   C20413692   4.528   5.075   1.683 -0.3622 -0.3250 -0.1078
   25MOL   O20513693   4.434   5.119   1.613  0.1202 -0.1366  0.2064
   25MOL   C20613694   4.667   5.137   1.701  0.4151  0.0856  0.2163
   25MOL   C20713695   4.700   5.260   1.649 -0.3479 -0.5097 -0.4023
   25MOL   C20813696   4.831   5.314   1.653 -0.2770 -0.0924 -0.1990
   25MOL   C20913697   4.932   5.245   1.730  0.6492 -0.2503 -0.0632
   25MOL   C21013698   5.070   5.297   1.751  0.1198 -0.7579  0.9627
   25MOL   O21113699   5.088   5.418   1.732 -0.2881 -0.6750 -0.2827
   25MOL   C21213700   4.899   5.120   1.778 -0.3998 -0.8252 -0.2150
   25MOL   C21313701   4.770   5.065   1.763  0.3186  0.2819 -0.4015
   25MOL   H21413702   4.417   4.469   1.701  0.4874 -0.8618 -0.2949
   25MOL   H21513703   4.516   4.512   1.835 -0.0824  0.0622 -1.0839
   25MOL   H21613704   4.430   4.665   1.594  1.4876 -1.6317 -1.2047
   25MOL   H21713705   4.589   4.715   1.659  0.9457 -1.4098  2.1277
   25MOL   H21813706   4.341   4.700   1.834  0.3230 -0.1562  1.1225
   25MOL   H21913707   4.495   4.751   1.887 -0.3352  0.7893  0.4161
   25MOL   H22013708   4.353   4.891   1.657  0.2660  0.5370 -0.5168
   25MOL   H22113709   4.335   4.950   1.827  0.0156 -0.9786 -0.2049
   25MOL   H22213710   4.624   5.315   1.595 -0.1905  1.6486  1.5075
   25MOL   H22313711   4.844   5.415   1.618 -1.1796 -0.1615 -0.7485
   25MOL   H22413712   4.979   5.067   1.829  0.2269  0.3132  0.0151
   25MOL   H22513713   4.753   4.966   1.804 -0.4738  0.9115  0.8550
   25MOL   O22613714   5.167   5.202   1.780  0.1688  0.3374 -0.4537
   25MOL   C22713715   5.295   5.232   1.829  0.5690  0.1665 -0.6867
   25MOL   C22813716   5.337   5.135   1.939  0.2757  0.0107  0.4025
   25MOL   C22913717   5.367   4.989   1.894 -0.2581  0.1524 -0.7167
   25MOL   C23013718   5.384   4.879   1.999  0.4359 -0.0423 -0.0391
   25MOL   O23113719   5.496   4.886   2.083 -0.7662 -0.3744  0.7191
   25MOL   C23213720   5.493   4.956   2.200 -0.2972 -0.1755 -0.0741
   25MOL   O23313721   5.396   5.023   2.236 -0.0969  0.0797  0.5312
   25MOL   C23413722   5.620   4.964   2.281  0.7204 -0.4211  0.3270
   25MOL   C23513723   5.610   4.992   2.421 -0.3519  0.7867  0.0493
   25MOL   C23613724   5.725   5.013   2.493 -0.0299  0.0776  0.1891
   25MOL   C23713725   5.856   4.988   2.435  0.2269 -0.5851 -0.5747
   25MOL   C23813726   5.972   4.993   2.533 -0.2661  1.0347 -0.2186
   25MOL   O23913727   5.963   5.017   2.656  0.4521 -0.4233  0.7213
   25MOL   C24013728   5.865   4.963   2.300  1.1075  0.2435 -0.5901
   25MOL   C24113729   5.751   4.951   2.223  0.1342 -0.2074  0.5814
   25MOL   H24213730   5.366   5.234   1.746 -0.1527  0.5814 -1.2916
   25MOL   H24313731   5.294   5.329   1.880 -1.3116 -0.1423 -0.1132
   25MOL   H24413732   5.260   5.132   2.017 -1.6299 -0.4563 -1.4474
   25MOL   H24513733   5.426   5.185   1.976 -0.0056  1.6085 -1.0274
   25MOL   H24613734   5.276   4.964   1.840 -2.2250 -0.2892  2.6965
   25MOL   H24713735   5.444   4.974   1.817  0.7946  2.6726 -0.2109
   25MOL   H24813736   5.296   4.895   2.061  0.1752  2.4188 -0.9985
   25MOL   H24913737   5.378   4.789   1.937 -0.6010 -0.3748  0.5298
   25MOL   H25013738   5.508   4.999   2.457 -1.3835 -2.1072 -2.1695
   25MOL   H25113739   5.709   5.042   2.596 -2.6955 -1.0915  0.1457
   25MOL   H25213740   5.963   4.953   2.255 -0.2807 -2.3382 -3.2381
   25MOL   H25313741   5.760   4.929   2.117 -0.5560  0.4943  0.3710
   25MOL   O25413742   6.089   4.957   2.471  0.6335  0.0780  0.1376
   25MOL   C25513743   6.210   4.938   2.541  0.9145  0.4549  0.3513
   25MOL   C25613744   6.295   4.827   2.481  0.6708 -0.0008  0.6734
   25MOL   C25713745   6.443   4.844   2.513 -0.1269 -0.4237 -0.3429
   25MOL   C25813746   6.528   4.722   2.477  0.5368 -0.0462 -0.9563
   25MOL   O25913747   6.542   4.711   2.336 -0.2827 -0.1089  0.0643
   25MOL   C26013748   6.501   4.605   2.275 -0.7796 -0.0143 -0.2033
   25MOL   O26113749   6.443   4.508   2.325  0.0214  0.3583  0.2056
   25MOL   C26213750   6.526   4.619   2.128 -0.1262  0.4303  0.4259
   25MOL   C26313751   6.460   4.524   2.050 -0.0760 -0.7625 -0.0389
   25MOL   C26413752   6.454   4.533   1.912  0.4253  1.1384  0.3884
   25MOL   C26513753   6.523   4.636   1.848  0.3778 -0.8462  0.6490
   25MOL   C26613754   6.505   4.644   1.703  0.3091  0.4582  0.0865
   25MOL   O26713755   6.461   4.550   1.630 -0.3209  0.0861  0.6546
   25MOL   C26813756   6.600   4.727   1.923 -0.1710 -0.7200 -0.9720
   25MOL   C26913757   6.600   4.723   2.064  0.9061  0.1466 -0.5792
   25MOL   H27013758   6.268   5.029   2.534  0.7001  0.5189 -0.6525
   25MOL   H27113759   6.179   4.922   2.644 -2.8009  1.2561 -0.5556
   25MOL   H27213760   6.280   4.832   2.373 -2.4366 -1.2768  0.9890
   25MOL   H27313761   6.253   4.737   2.525 -1.7107  0.1511 -1.1863
   25MOL   H27413762   6.481   4.924   2.451  1.0939 -1.4450 -0.9257
   25MOL   H27513763   6.448   4.872   2.618  0.3090  2.2577 -1.0358
   25MOL   H27613764   6.629   4.718   2.519 -0.1390  0.2438  0.7543
   25MOL   H27713765   6.486   4.633   2.523  1.8021 -0.7858 -1.2305
   25MOL   H27813766   6.395   4.452   2.097  1.2103  0.0740  3.1224
   25MOL   H27913767   6.395   4.460   1.860 -0.4364  0.3061  2.4831
   25MOL   H28013768   6.663   4.805   1.881 -0.6063  0.3980  0.4198
   25MOL   H28113769   6.662   4.796   2.112  2.3182  0.1733 -2.3863
   25MOL   O28213770   6.561   4.762   1.652  0.2696 -0.2009 -0.4674
   25MOL   C28313771   6.581   4.771   1.515 -0.4726  0.3662  0.4750
   25MOL   C28413772   6.629   4.909   1.474  0.6432 -0.0595  0.2558
   25MOL   C28513773   6.530   5.015   1.502  0.3166 -0.1294 -0.3503
   25MOL   C28613774   6.589   5.161   1.487  0.1082 -0.1381 -0.0741
   25MOL   O28713775   6.488   5.251   1.530 -0.6921  0.1594  0.2979
   25MOL   C28813776   6.507   5.388   1.531  0.4898  0.1863  0.5810
   25MOL   O28913777   6.612   5.448   1.499  0.1687  0.4546  0.1205
   25MOL   C29013778   6.396   5.467   1.582 -0.5151 -0.0031 -0.3691
   25MOL   C29113779   6.266   5.422   1.559  0.1445  0.1627  0.1266
   25MOL   C29213780   6.157   5.492   1.614 -0.1357  0.2556 -0.3433
   25MOL   C29313781   6.178   5.597   1.709  0.2434  0.3010  0.1581
   25MOL   C29413782   6.062   5.673   1.762  0.2214  0.2811 -0.1988
   25MOL   O29513783   6.080   5.770   1.833 -0.9788  0.8693  0.1280
   25MOL   C29613784   6.312   5.640   1.730 -0.2699 -0.4495  0.5837
   25MOL   C29713785   6.421   5.574   1.670 -0.1369  0.0653 -0.3283
   25MOL   H29813786   6.648   4.690   1.485  0.4551  0.4522  2.2388
   25MOL   H29913787   6.483   4.762   1.468  0.3709 -0.2352 -1.2119
   25MOL   H30013788   6.653   4.922   1.368  0.1958  0.3418  0.2052
   25MOL   H30113789   6.723   4.922   1.526  0.8326 -0.3983  0.0042
   25MOL   H30213790   6.439   5.002   1.444 -2.0308  0.8287  2.9695
   25MOL   H30313791   6.497   4.998   1.605  0.2914  0.2633 -0.2926
   25MOL   H30413792   6.684   5.178   1.537  1.4781 -2.2575 -1.8872
   25MOL   H30513793   6.614   5.177   1.383  0.9014 -1.7674 -0.1448
   25MOL   H30613794   6.248   5.340   1.491  1.4936  0.6467 -0.8267
   25MOL   H30713795   6.064   5.474   1.562 -0.3458  0.1435  0.0672
   25MOL   H30813796   6.324   5.724   1.797  0.5111 -1.4398  1.7131
   25MOL   H30913797   6.524   5.602   1.687 -0.1359 -0.3482  0.3426
   25MOL   O31013798   5.944   5.626   1.723  0.0627  0.4317 -0.1029
   25MOL   C31113799   5.827   5.681   1.776  0.4125  0.2667  0.0760
   25MOL   C31213800   5.798   5.622   1.911  0.2124 -0.0445 -0.6076
   25MOL   C31313801   5.755   5.478   1.913  0.5356  0.7178 -0.2352
   25MOL   C31413802   5.870   5.375   1.882 -0.1719  0.3818 -0.0743
   25MOL   O31513803   5.963   5.382   1.985  0.2561 -0.4749  0.2694
   25MOL   C31613804   6.004   5.278   2.064 -0.4912  0.1534 -0.7806
   25MOL   O31713805   5.947   5.167   2.069  0.0869 -1.0651 -0.5640
   25MOL   C31813806   6.103   5.332   2.166  0.4089  0.2962 -0.9711
   25MOL   C31913807   6.118   5.472   2.183  0.6373  0.2459  0.2085
   25MOL   C32013808   6.200   5.524   2.282  0.6368 -0.2326  0.4732
   25MOL   C32113809   6.276   5.434   2.360 -0.5108  0.0985 -0.3063
   25MOL   C32213810   6.377   5.482   2.454  0.1536 -0.1222  0.7447
   25MOL   O32313811   6.424   5.411   2.547  0.0108  0.3978  0.5246
   25MOL   C32413812   6.256   5.295   2.352 -0.2661  0.4857 -0.3089
   25MOL   C32513813   6.162   5.240   2.256 -0.4211  0.7016 -0.3687
   25MOL   H32613814   5.840   5.789   1.773 -1.3822  0.4909 -0.7072
   25MOL   H32713815   5.746   5.662   1.705  0.5153  1.5757 -0.4073
   25MOL   H32813816   5.706   5.665   1.950  1.5186  0.7051  1.7524
   25MOL   H32913817   5.880   5.644   1.979 -0.0851 -0.5108 -0.0890
   25MOL   H33013818   5.711   5.456   2.010 -1.8540  2.0590 -0.9727
   25MOL   H33113819   5.677   5.470   1.837  1.2688 -2.3307 -0.7216
   25MOL   H33213820   5.830   5.275   1.866 -2.4462  1.3727 -0.8354
   25MOL   H33313821   5.914   5.389   1.783 -2.0185 -0.2637 -0.9950
   25MOL   H33413822   6.065   5.544   2.123  0.2539 -0.0802  0.1569
   25MOL   H33513823   6.217   5.629   2.301 -1.0452 -0.2603  2.2191
   25MOL   H33613824   6.312   5.225   2.411  1.4518  1.5165 -0.6666
   25MOL   H33713825   6.163   5.133   2.243  2.3296  0.3310  2.1208
   25MOL   O33813826   6.398   5.620   2.438  0.1458  0.1285  0.1475
   25MOL   C33913827   6.486   5.678   2.532  0.4682 -0.3794  0.3023
   25MOL   C34013828   6.497   5.829   2.516  0.2902 -1.0279  0.2920
   25MOL   C34113829   6.592   5.886   2.623  0.1376  0.3839  0.4891
   25MOL   C34213830   6.586   6.042   2.648 -0.7781  0.2769 -0.5001
   25MOL   O34313831   6.593   6.110   2.523 -0.2345 -0.7131  0.1884
   25MOL   C34413832   6.698   6.190   2.482  0.4084  1.0898 -0.6768
   25MOL   O34513833   6.793   6.215   2.556  0.2887 -0.4021  0.0433
   25MOL   C34613834   6.686   6.240   2.346  0.6315 -0.3520 -0.3925
   25MOL   C34713835   6.790   6.310   2.290  0.0729  0.0444 -0.2303
   25MOL   C34813836   6.790   6.342   2.150 -0.3291  0.6175  0.1158
   25MOL   C34913837   6.673   6.316   2.074 -0.2908 -0.1052  0.4115
   25MOL   C35013838   6.667   6.367   1.932 -0.4618 -0.1272 -0.0212
   25MOL   O35113839   6.564   6.365   1.865  0.9095 -0.3863  0.3332
   25MOL   C35213840   6.559   6.251   2.130 -0.3632  0.6563 -0.5983
   25MOL   C35313841   6.572   6.215   2.266 -0.8270  0.0648  0.5399
   25MOL   H35413842   6.441   5.674   2.632 -1.9001  0.7918 -0.6639
   25MOL   H35513843   6.584   5.631   2.537  1.3267  0.9040 -3.1909
   25MOL   H35613844   6.402   5.879   2.533 -0.9212 -3.1666 -0.1474
   25MOL   H35713845   6.529   5.861   2.417 -1.7785  1.8346  0.4845
   25MOL   H35813846   6.576   5.827   2.714 -2.3793 -0.2874 -0.3558
   25MOL   H35913847   6.687   5.857   2.579  0.6227 -2.0264  2.9731
   25MOL   H36013848   6.488   6.061   2.693 -0.5034  0.0048  0.2115
   25MOL   H36113849   6.668   6.057   2.717 -1.2314 -1.5531  0.4780
   25MOL   H36213850   6.883   6.327   2.343  0.8013  0.5637 -1.6576
   25MOL   H36313851   6.878   6.392   2.113  1.2939 -0.2923  2.6191
   25MOL   H36413852   6.469   6.229   2.075 -1.3234  0.4590  1.0117
   25MOL   H36513853   6.489   6.170   2.318 -0.4742 -0.4813  0.6341
   25MOL   O36613854   6.781   6.411   1.890  0.5495 -0.3848 -0.2477
   25MOL   C36713855   6.802   6.460   1.758  0.1989  0.2690  0.1151
   25MOL   C36813856   6.947   6.494   1.731  0.2009  0.3552 -0.1144
   25MOL   C36913857   7.022   6.364   1.708 -0.0553  0.8438  0.2717
   25MOL   C37013858   7.168   6.401   1.681  0.1990 -0.6287 -0.0491
   25MOL   O37113859   7.173   6.510   1.583 -0.1633 -0.2751 -0.2348
   25MOL   C37213860   7.154   6.483   1.450  0.2148  0.7350 -0.2617
   25MOL   O37313861   7.124   6.370   1.405  0.2697  0.1614 -0.4984
   25MOL   C37413862   7.182   6.600   1.365  0.1134  0.3308  0.1391
   25MOL   C37513863   7.195   6.727   1.421 -0.6436  0.0677 -0.0587
   25MOL   C37613864   7.217   6.844   1.346  0.3820  0.2751 -0.6194
   25MOL   C37713865   7.212   6.839   1.206  0.8159  0.2020 -0.4827
   25MOL   C37813866   7.205   6.972   1.126 -0.3171 -0.1150 -0.1251
   25MOL   O37913867   7.231   7.079   1.176  0.7821  0.6584 -0.3700
   25MOL   C38013868   7.209   6.710   1.149 -0.1164 -0.1354  0.2454
   25MOL   C38113869   7.191   6.594   1.226 -0.4406  0.0193 -0.8260
   25MOL   H38213870   6.761   6.387   1.688 -0.3005 -0.3564  1.0446
   25MOL   H38313871   6.745   6.553   1.749  0.6281  0.4002 -1.5221
   25MOL   H38413872   6.995   6.551   1.810 -0.0333  1.2374 -0.6053
   25MOL   H38513873   6.940   6.559   1.644 -1.1197  0.1907 -0.1407
   25MOL   H38613874   7.045   6.309   1.800 -0.3427 -0.8238 -0.6373
   25MOL   H38713875   6.975   6.289   1.644  1.7258 -0.7626  0.7826
   25MOL   H38813876   7.215   6.436   1.773  0.9947  1.7646 -1.3351
   25MOL   H38913877   7.232   6.316   1.658 -1.4760 -1.7328 -0.7548
   25MOL   H39013878   7.182   6.746   1.527 -0.7520 -0.3129 -0.0005
   25MOL   H39113879   7.220   6.941   1.394  2.4309  0.7353 -1.5985
   25MOL   H39213880   7.205   6.712   1.041  2.4662 -1.2538  0.0905
   25MOL   H39313881   7.175   6.499   1.176 -2.1941  0.5072 -1.2243
   25MOL   O39413882   7.166   6.951   1.003 -0.5844  0.6859  0.8594
   25MOL   C39513883   7.141   7.055   0.908  0.3192 -0.4024  0.0787
   25MOL   C39613884   6.991   7.062   0.874  1.2281  0.1702 -0.6830
   25MOL   C39713885   6.895   7.082   0.989 -1.0741 -0.4947 -0.2295
   25MOL   C39813886   6.875   7.232   1.018 -0.3517  0.3550 -0.5847
   25MOL   O39913887   6.989   7.282   1.076 -0.2796 -0.2582  0.0918
   25MOL   C40013888   6.983   7.379   1.168 -1.1431 -0.4174 -0.4982
   25MOL   O40113889   6.878   7.436   1.205  0.0988 -0.1307  0.0455
   25MOL   C40213890   7.122   7.410   1.226  0.2922  0.0446  0.0831
   25MOL   C40313891   7.247   7.382   1.163  0.2121 -0.0564 -0.5144
   25MOL   C40413892   7.368   7.400   1.234  0.2244  0.6966  0.1785
   25MOL   C40513893   7.369   7.468   1.363 -0.6190  0.0912  0.6570
   25MOL   C40613894   7.493   7.504   1.436 -0.1267 -0.4418  0.6464
   25MOL   O40713895   7.489   7.548   1.551 -0.3216 -0.3306  0.4652
   25MOL   C40813896   7.247   7.495   1.425  0.0727  0.2288 -0.5750
   25MOL   C40913897   7.125   7.474   1.354  0.3342  0.1606 -0.0806
   25MOL   H41013898   7.199   7.143   0.935 -1.3187  1.2710 -1.7176
   25MOL   H41113899   7.193   7.032   0.815  3.7541  1.9773  1.3149
   25MOL   H41213900   6.957   6.966   0.834 -0.4904  1.3638 -2.2038
   25MOL   H41313901   6.982   7.131   0.790 -0.8520  0.1742 -0.4814
   25MOL   H41413902   6.800   7.038   0.959 -1.6109 -0.9836  2.1218
   25MOL   H41513903   6.922   7.034   1.082  1.6584  1.0502 -0.1592
   25MOL   H41613904   6.855   7.287   0.926  1.2697  1.7205 -0.1445
   25MOL   H41713905   6.790   7.256   1.082 -0.7797 -1.7882 -0.2988
   25MOL   H41813906   7.250   7.331   1.068 -0.0706  1.7580 -1.5249
   25MOL   H41913907   7.460   7.374   1.185  0.4884 -0.1019  1.0867
   25MOL   H42013908   7.250   7.544   1.522 -0.3090 -1.7981  0.4924
   25MOL   H42113909   7.028   7.506   1.391  0.4632  1.9239 -1.2158
   25MOL   O42213910   7.611   7.482   1.364 -0.0045 -0.6078  0.3615
   25MOL   C42313911   7.737   7.518   1.415 -0.0407 -0.5619  0.0978
   25MOL   C42413912   7.834   7.588   1.317  0.0152  0.1233  0.2138
   25MOL   C42513913   7.982   7.573   1.362 -0.1520 -0.1366 -0.2860
   25MOL   C42613914   8.010   7.647   1.493 -0.4797  0.6211  0.5545
   25MOL   O42713915   7.956   7.567   1.596 -0.4632  0.3190 -0.2528
   25MOL   C42813916   7.980   7.612   1.722  0.1644  0.2416 -0.8340
   25MOL   O42913917   8.035   7.710   1.753 -0.2945 -0.6553  0.2251
   25MOL   C43013918   7.919   7.522   1.827  0.2789 -0.0590 -0.3898
   25MOL   C43113919   7.825   7.428   1.781 -0.2318  0.7217 -0.4427
   25MOL   C43213920   7.763   7.343   1.878 -0.1551  0.0918  0.7212
   25MOL   C43313921   7.796   7.349   2.013 -0.3159 -0.9912 -0.1282
   25MOL   C43413922   7.746   7.248   2.110  0.7478  0.1156  0.2799
   25MOL   O43513923   7.810   7.228   2.211  0.2973  0.1681  0.2349
   25MOL   C43613924   7.885   7.449   2.056  1.1377 -0.1751  0.4896
   25MOL   C43713925   7.941   7.536   1.963  0.0586 -0.2646 -0.0351
   25MOL   H43813926   7.722   7.579   1.504  0.0470 -0.4309  0.0227
   25MOL   H43913927   7.777   7.425   1.455  1.5492 -0.5844 -1.4615
   25MOL   H44013928   7.807   7.691   1.292  0.1405  0.7659  2.6566
   25MOL   H44113929   7.835   7.530   1.225 -0.2607  0.5815 -0.0838
   25MOL   H44213930   8.014   7.469   1.366 -1.2933 -0.6076 -2.3750
   25MOL   H44313931   8.052   7.610   1.287  0.0769  0.9354  0.4396
   25MOL   H44413932   0.019   7.659   1.503 -0.6212  2.9818 -0.4232
   25MOL   H44513933   7.977   7.750   1.500 -1.0628  0.4698  0.0757
   25MOL   H44613934   7.805   7.420   1.675 -4.2023  0.1300  0.2791
   25MOL   H44713935   7.684   7.275   1.850 -1.2299  2.4446 -2.2420
   25MOL   H44813936   7.909   7.456   2.162  0.7451  2.3429  0.4421
   25MOL   H44913937   8.004   7.617   1.997  1.2772 -1.1907 -0.0754
   25MOL   O45013938   7.631   7.189   2.072 -0.1121 -0.0216 -0.2828
   25MOL   C45113939   7.582   7.090   2.156  0.0670 -0.5594  0.4671
   25MOL   C45213940   7.491   6.994   2.079  0.3179  0.3529 -0.3447
   25MOL   C45313941   7.477   6.864   2.157  0.4196  0.7335 -0.2858
   25MOL   C45413942   7.415   6.738   2.079 -0.0772 -0.2124  0.3452
   25MOL   O45513943   7.275   6.761   2.061 -0.4545 -0.3016 -0.3385
   25MOL   C45613944   7.232   6.800   1.941 -0.0126  0.5887 -0.3904
   25MOL   O45713945   7.299   6.832   1.848 -0.0491  0.0492 -0.2661
   25MOL   C45813946   7.084   6.800   1.940 -0.1556 -0.2893 -0.3463
   25MOL   C45913947   7.015   6.729   2.046 -0.6515 -0.6827 -0.2810
   25MOL   C46013948   6.876   6.731   2.039 -0.2308 -0.8572 -0.4760
   25MOL   C46113949   6.809   6.791   1.927  0.6912  0.2196 -0.4144
   25MOL   C46213950   6.655   6.782   1.919 -0.7023  0.1841 -0.0777
   25MOL   O46313951   6.584   6.824   1.824 -0.1387  0.0574 -0.0589
   25MOL   C46413952   6.878   6.858   1.828 -0.4037  0.1765 -0.2841
   25MOL   C46513953   7.021   6.861   1.835  0.2466  0.0964  0.0172
   25MOL   H46613954   7.671   7.038   2.193 -0.0398 -1.3485 -0.3727
   25MOL   H46713955   7.532   7.128   2.245  0.7133 -0.3515  0.7493
   25MOL   H46813956   7.532   6.970   1.980  0.1301  0.1697 -0.3795
   25MOL   H46913957   7.402   7.047   2.046  1.3139  0.4174 -3.0822
   25MOL   H47013958   7.570   6.820   2.195 -0.5409 -0.5684  0.6045
   25MOL   H47113959   7.423   6.883   2.249  0.5102 -1.3719  0.2130
   25MOL   H47213960   7.474   6.718   1.989 -0.2222  1.5202 -0.1536
   25MOL   H47313961   7.427   6.640   2.125 -0.3296 -0.6852 -0.5721
   25MOL   H47413962   7.063   6.666   2.119  0.3181 -1.7124 -1.7742
   25MOL   H47513963   6.817   6.675   2.111  2.6027 -2.6286  0.5269
   25MOL   H47613964   6.828   6.907   1.746 -0.9922 -0.2691 -0.1936
   25MOL   H47713965   7.075   6.910   1.756  0.4013 -0.8122 -0.4455
   25MOL   O47813966   6.606   6.700   2.012 -0.1293  0.4977  0.0924
   25MOL   C47913967   6.472   6.673   2.031 -0.1145  0.1087 -0.3053
   25MOL   C48013968   6.461   6.614   2.170 -0.2444 -0.5595 -0.6666
   25MOL   C48113969   6.507   6.701   2.291  0.2866 -0.0323  0.9019
   25MOL   C48213970   6.416   6.821   2.326  0.2882 -0.0148 -0.1871
   25MOL   O48313971   6.295   6.767   2.389  0.6488  0.1330 -0.3553
   25MOL   C48413972   6.178   6.763   2.317  0.0065  0.4068  0.5394
   25MOL   O48513973   6.167   6.800   2.201  0.1634 -0.0492 -0.0278
   25MOL   C48613974   6.059   6.711   2.393 -0.1317  0.2828  0.2471
   25MOL   C48713975   6.077   6.662   2.524  0.4337  0.1677 -0.2970
   25MOL   C48813976   5.977   6.627   2.612  0.0270 -0.2386  0.4905
   25MOL   C48913977   5.848   6.635   2.558 -0.1197  0.3033  0.7557
   25MOL   C49013978   5.725   6.613   2.646  0.9191 -0.4849  0.5987
   25MOL   O49113979   5.730   6.546   2.751  0.1603 -0.2588  0.6312
   25MOL   C49213980   5.823   6.679   2.424 -0.1510  0.0313  0.1697
   25MOL   C49313981   5.925   6.724   2.340 -1.0146  0.4051 -0.5872
   25MOL   H49413982   6.417   6.767   2.019  0.7663  1.0003  2.2897
   25MOL   H49513983   6.454   6.600   1.953 -1.7794  0.9815 -0.7551
   25MOL   H49613984   6.511   6.517   2.169 -0.4969 -0.7387  1.5639
   25MOL   H49713985   6.357   6.580   2.176 -0.9545  1.6826  0.0673
   25MOL   H49813986   6.532   6.639   2.377  1.1859 -1.5262 -0.4195
   25MOL   H49913987   6.604   6.743   2.264 -1.0410  1.7582 -1.2257
   25MOL   H50013988   6.477   6.875   2.398 -1.4419  1.8683 -0.0948
   25MOL   H50113989   6.400   6.876   2.233 -1.7804 -0.3477 -0.0712
   25MOL   H50213990   6.178   6.653   2.561  0.6493 -0.8604 -1.1256
   25MOL   H50313991   5.994   6.591   2.712  0.3638 -0.2258  0.4414
   25MOL   H50413992   5.719   6.688   2.397 -0.8476  1.4328  3.1127
   25MOL   H50513993   5.908   6.763   2.241 -0.3048  1.1514 -0.4155
   25MOL   O50613994   5.616   6.670   2.595 -0.3480 -0.0156  0.5718
   25MOL   C50713995   5.495   6.670   2.662  0.1423  0.0594 -0.4916
   25MOL   C50813996   5.495   6.807   2.721 -0.7204 -0.9901 -0.4109
   25MOL   C50913997   5.490   6.925   2.626  0.1386  0.2051 -0.4721
   25MOL   C51013998   5.557   7.052   2.693  0.5791 -0.9572  0.0359
   25MOL   O51113999   5.699   7.040   2.695 -0.0568 -0.1699  0.0383
   25MOL   C51214000   5.773   7.027   2.810  0.2727  0.1331  0.2022
   25MOL   O51314001   5.718   7.031   2.923 -0.5948 -0.0226  0.2879
   25MOL   C51414002   5.916   7.020   2.791  0.0344  0.4922  0.8944
   25MOL   C51514003   5.981   6.967   2.684  0.2795 -0.4577 -0.5434
   25MOL   C51614004   6.120   6.967   2.676  0.0366 -0.4011  0.3574
   25MOL   C51714005   6.197   7.028   2.779 -0.9626  0.4423  0.0897
   25MOL   C51814006   6.354   7.039   2.776 -0.0309  0.9071 -0.5069
   25MOL   O51914007   6.424   7.097   2.854  0.1081 -0.3403 -0.6508
   25MOL   C52014008   6.135   7.078   2.891  0.1609 -0.8975 -0.7072
   25MOL   C52114009   5.995   7.067   2.901 -0.0938  0.1146  0.0172
   25MOL   H52214010   5.419   6.657   2.584  0.1782  0.5165 -0.6007
   25MOL   H52314011   5.487   6.594   2.740 -0.1705  0.2556 -0.3285
   25MOL   H52414012   5.571   6.822   2.797 -1.3927 -2.6637  0.6164
   25MOL   H52514013   5.401   6.814   2.776  0.0518  1.6033  0.6464
   25MOL   H52614014   5.539   6.901   2.532  0.3969  0.1567 -0.3248
   25MOL   H52714015   5.389   6.954   2.598  0.8137  1.8230 -1.3581
   25MOL   H52814016   5.532   7.148   2.649  3.1741 -0.9294 -1.5040
   25MOL   H52914017   5.524   7.081   2.792 -0.7075 -0.1381 -0.6149
   25MOL   H53014018   5.918   6.927   2.606 -0.7385 -0.8393  0.4561
   25MOL   H53114019   6.158   6.939   2.579 -1.7904 -1.2465 -0.1191
   25MOL   H53214020   6.192   7.126   2.969 -0.9516  2.2423 -1.7687
   25MOL   H53314021   5.953   7.102   2.994  2.0823  0.6083  0.8380
   25MOL   O53414022   6.395   6.963   2.679 -0.2451  0.6249  0.0491
   25MOL   C53514023   6.531   6.930   2.669  0.1747 -0.0945 -0.0732
   25MOL   C53614024   6.537   6.772   2.682 -0.1566 -0.2214  0.4303
   25MOL   C53714025   6.670   6.702   2.650  0.4011  0.2188  0.3311
   25MOL   C53814026   6.667   6.554   2.692 -0.7657  0.5217  0.0581
   25MOL   O53914027   6.564   6.482   2.622 -0.6117  0.1050  0.0857
   25MOL   C54014028   6.448   6.442   2.687 -0.3277 -0.0932 -0.6036
   25MOL   O54114029   6.431   6.456   2.807  0.1263 -0.0159 -0.2646
   25MOL   C54214030   6.340   6.392   2.594  0.5842  0.6110  0.1058
   25MOL   C54314031   6.223   6.344   2.649 -0.2463  0.2698  0.4740
   25MOL   C54414032   6.120   6.286   2.568 -0.4195  0.0034 -0.5137
   25MOL   C54514033   6.142   6.295   2.421  0.1370 -0.4585 -0.4444
   25MOL   C54614034   6.035   6.250   2.325 -0.4708 -0.4539 -1.0305
   25MOL   O54714035   6.048   6.248   2.206  0.9468  0.2669  0.2798
   25MOL   C54814036   6.263   6.343   2.371  0.2476  0.4951 -0.3839
   25MOL   C54914037   6.363   6.393   2.453 -0.3506 -0.1335  0.3679
   25MOL   H55014038   6.574   6.957   2.573  2.5192 -1.4710  0.5463
   25MOL   H55114039   6.594   6.979   2.743 -1.2181  2.1514 -0.3394
   25MOL   H55214040   6.461   6.732   2.615 -0.2123  0.4917  0.0521
   25MOL   H55314041   6.504   6.744   2.782  0.6660  1.2524  1.1384
   25MOL   H55414042   6.695   6.718   2.545  0.5875 -2.3071 -0.0596
   25MOL   H55514043   6.749   6.758   2.700  1.1088  0.4391 -1.0130
   25MOL   H55614044   6.763   6.505   2.674 -0.3714  1.0634  0.6165
   25MOL   H55714045   6.654   6.552   2.800 -2.0092 -0.0593 -0.1025
   25MOL   H55814046   6.214   6.337   2.756 -2.1797  0.3859  0.3427
   25MOL   H55914047   6.023   6.258   2.605 -0.7330 -0.6376 -1.7607
   25MOL   H56014048   6.275   6.348   2.264  1.7963 -3.1203 -0.4476
   25MOL   H56114049   6.450   6.443   2.412 -0.5034 -1.1504 -1.2601
   25MOL   H56214050   5.944   6.213   2.374  1.4986 -0.3028  2.8899
   26MOL     O114051   3.856   6.304   6.413 -0.2991  0.1507 -0.3692
   26MOL     C214052   3.763   6.315   6.516 -0.3859 -0.3706 -0.4282
   26MOL     C314053   3.785   6.201   6.614  0.7066  0.0418  0.0810
   26MOL     C414054   3.681   6.212   6.726  0.8327 -0.3379  0.4099
   26MOL     C514055   3.703   6.106   6.838  0.0161 -0.3199  0.5254
   26MOL     O614056   3.585   6.108   6.921  0.3173 -0.1388  0.1101
   26MOL     C714057   3.544   6.007   6.991  0.0914 -0.4806 -0.0674
   26MOL     O814058   3.596   5.892   6.977  0.2746 -0.0564  0.2501
   26MOL     C914059   3.423   6.045   7.075 -0.0838  0.0721 -0.7907
   26MOL    C1014060   3.401   6.178   7.109 -0.5340 -0.4839 -1.0171
   26MOL    C1114061   3.300   6.206   7.205  0.2933 -0.2022 -0.9040
   26MOL    C1214062   3.228   6.106   7.268  0.0332  0.4384 -0.6438
   26MOL    C1314063   3.119   6.134   7.369 -0.6390 -0.3874  0.7431
   26MOL    O1414064   3.068   6.050   7.441 -0.4564  0.0012 -0.6102
   26MOL    C1514065   3.251   5.970   7.227 -0.4606 -0.0310 -0.3127
   26MOL    C1614066   3.346   5.941   7.128  0.0841  0.7187 -0.1544
   26MOL    H1714067   3.772   6.408   6.571 -1.4469  1.3152 -3.0232
   26MOL    H1814068   3.661   6.302   6.479 -0.0706 -1.5071 -0.9461
   26MOL    H1914069   3.881   6.206   6.666 -0.0666 -1.3603  1.6840
   26MOL    H2014070   3.776   6.101   6.572 -1.7604  0.0720  0.4838
   26MOL    H2114071   3.678   6.311   6.772 -0.9236 -0.2096  0.0643
   26MOL    H2214072   3.583   6.189   6.686  1.2723 -0.2370 -0.7440
   26MOL    H2314073   3.723   6.011   6.789 -0.4261 -0.7341  1.1507
   26MOL    H2414074   3.795   6.126   6.893 -0.5461  1.7560  0.7582
   26MOL    H2514075   3.466   6.261   7.085 -1.4767  0.4915 -0.2487
   26MOL    H2614076   3.286   6.306   7.243 -2.0078  0.0238 -2.2513
   26MOL    H2714077   3.195   5.888   7.269 -0.0465 -0.7274 -1.1002
   26MOL    H2814078   3.363   5.837   7.106 -2.0137 -0.1388  2.1008
   26MOL    H2914079   3.840   6.380   6.359  1.2132 -0.1106 -1.1864
   26MOL    O3014080   3.082   6.268   7.378 -0.4778 -0.0723  0.2201
   26MOL    C3114081   2.995   6.307   7.478  0.2929 -0.1267 -0.0076
   26MOL    C3214082   2.949   6.446   7.443  0.0006  0.8964  0.3388
   26MOL    C3314083   2.826   6.483   7.523  0.1901 -0.0204  0.0911
   26MOL    C3414084   2.750   6.596   7.461 -1.0989 -0.6092  0.2344
   26MOL    O3514085   2.667   6.673   7.547  0.5093 -0.3644  0.0441
   26MOL    C3614086   2.552   6.728   7.498 -0.5295 -1.3244 -0.2777
   26MOL    O3714087   2.505   6.709   7.385 -0.7117 -0.0293 -0.3819
   26MOL    C3814088   2.485   6.814   7.591  0.0268  0.0076 -0.1502
   26MOL    C3914089   2.386   6.914   7.544 -1.0685  0.2562 -0.1297
   26MOL    C4014090   2.327   7.001   7.640  0.3716  0.1499 -0.8411
   26MOL    C4114091   2.362   6.992   7.776 -0.2247 -0.1180  0.1822
   26MOL    C4214092   2.308   7.090   7.878 -0.9080  0.1161  0.0225
   26MOL    O4314093   2.332   7.085   8.001  0.1685  0.2081  0.1906
   26MOL    C4414094   2.441   6.885   7.820 -0.2777  0.4155 -0.0145
   26MOL    C4514095   2.509   6.801   7.728 -0.0021  0.2250 -0.8184
   26MOL    H4614096   2.915   6.234   7.467  1.0226 -1.1109  1.0603
   26MOL    H4714097   3.034   6.313   7.579  1.8666  2.2494 -0.7009
   26MOL    H4814098   2.928   6.460   7.337  2.5085  1.1232 -0.1534
   26MOL    H4914099   3.030   6.518   7.453  0.1375  0.9720 -1.2422
   26MOL    H5014100   2.760   6.402   7.554 -0.6661  0.7374  0.2269
   26MOL    H5114101   2.860   6.524   7.618  2.1098 -1.6869  0.1748
   26MOL    H5214102   2.823   6.670   7.428 -2.6319  0.6047 -0.4858
   26MOL    H5314103   2.709   6.553   7.370 -0.5400 -1.2752  0.2875
   26MOL    H5414104   2.354   6.916   7.441 -2.5310 -2.1049  0.2300
   26MOL    H5514105   2.262   7.079   7.604 -0.3001 -0.7873 -1.6575
   26MOL    H5614106   2.462   6.877   7.926 -2.6136 -2.4477  0.2707
   26MOL    H5714107   2.578   6.728   7.767 -0.6993 -0.1142 -0.2062
   26MOL    O5814108   2.239   7.190   7.825 -1.0369  0.5816  0.5309
   26MOL    C5914109   2.179   7.284   7.917  0.1981  0.4441  0.1674
   26MOL    C6014110   2.045   7.317   7.852  0.1016 -0.2791 -0.1142
   26MOL    C6114111   1.961   7.391   7.955  0.6033 -0.1222 -1.0913
   26MOL    C6214112   1.835   7.465   7.894 -0.1715  0.3783  0.2485
   26MOL    O6314113   1.721   7.380   7.861 -0.0114 -0.1439  0.0501
   26MOL    C6414114   1.698   7.342   7.733  0.4384 -0.8622  0.4342
   26MOL    O6514115   1.764   7.376   7.634  0.6873  0.4673 -0.3579
   26MOL    C6614116   1.584   7.246   7.730  0.4476  0.3700  0.0467
   26MOL    C6714117   1.562   7.175   7.612 -0.0573  0.2205 -0.2658
   26MOL    C6814118   1.454   7.084   7.607  0.2985 -0.2940 -0.7586
   26MOL    C6914119   1.383   7.044   7.725  0.6806 -0.3359 -0.2462
   26MOL    C7014120   1.288   6.926   7.723 -0.0573  0.0145  0.1306
   26MOL    O7114121   1.262   6.860   7.620 -0.7607  0.2839  0.5799
   26MOL    C7214122   1.395   7.126   7.841  1.3115  0.1331 -0.0457
   26MOL    C7314123   1.500   7.224   7.841  0.2224  0.4925 -0.2901
   26MOL    H7414124   2.167   7.249   8.020 -3.0211  0.2397 -0.2287
   26MOL    H7514125   2.236   7.376   7.926  0.9919 -0.1565  1.5619
   26MOL    H7614126   1.988   7.233   7.813 -0.4377  0.4100 -0.8276
   26MOL    H7714127   2.059   7.383   7.766 -1.1439  1.8038  1.2407
   26MOL    H7814128   1.922   7.327   8.034 -2.2502  0.9726 -1.5553
   26MOL    H7914129   2.027   7.465   7.999 -1.1507  0.1040  1.2820
   26MOL    H8014130   1.796   7.539   7.964  1.6056  0.8230  0.7921
   26MOL    H8114131   1.862   7.523   7.806 -0.5294 -2.6236 -1.8996
   26MOL    H8214132   1.612   7.201   7.520 -1.0729 -0.8546 -1.1352
   26MOL    H8314133   1.442   7.025   7.517 -2.4692 -0.0782 -0.5574
   26MOL    H8414134   1.345   7.104   7.934  0.3801  0.4141 -0.4771
   26MOL    H8514135   1.524   7.270   7.936  0.1847  0.8650 -0.4618
   26MOL    O8614136   1.247   6.896   7.846  0.0340  0.1085 -0.0281
   26MOL    C8714137   1.187   6.771   7.873 -0.2180 -0.2441  1.2278
   26MOL    C8814138   1.263   6.638   7.882 -0.3663 -0.2262  0.3977
   26MOL    C8914139   1.325   6.572   7.755 -0.4250  0.1799  0.1078
   26MOL    C9014140   1.215   6.518   7.654  0.2303 -0.1681 -0.2736
   26MOL    O9114141   1.269   6.447   7.549 -0.1270  0.2108  0.0833
   26MOL    C9214142   1.188   6.358   7.486 -0.0085  0.5668  0.6380
   26MOL    O9314143   1.074   6.336   7.524  0.1631 -0.0606 -0.0017
   26MOL    C9414144   1.240   6.290   7.369  0.3235  0.1211  0.1542
   26MOL    C9514145   1.162   6.183   7.317 -0.4177  0.6907 -0.0026
   26MOL    C9614146   1.198   6.121   7.195 -0.0872 -0.3496  0.5087
   26MOL    C9714147   1.321   6.161   7.127  0.2414  0.6264  0.3330
   26MOL    C9814148   1.360   6.095   7.002  0.0976  0.6647 -0.6767
   26MOL    O9914149   1.284   6.012   6.948  0.1626 -0.0587  0.1775
   26MOL   C10014150   1.395   6.263   7.186  0.0610 -0.4532  0.4425
   26MOL   C10114151   1.361   6.332   7.304  0.2672  0.0372 -0.0083
   26MOL   H10214152   1.144   6.789   7.972  0.0562  0.4338  1.2271
   26MOL   H10314153   1.102   6.749   7.807  1.7182 -0.8877 -1.1226
   26MOL   H10414154   1.205   6.579   7.953 -0.9556  1.0514  0.9993
   26MOL   H10514155   1.353   6.662   7.938  0.2005  0.0205 -0.6127
   26MOL   H10614156   1.412   6.624   7.716 -0.1781  0.0443  0.4820
   26MOL   H10714157   1.367   6.479   7.791 -0.1607  0.4165  0.4068
   26MOL   H10814158   1.143   6.464   7.715 -0.2801  0.3347 -0.4294
   26MOL   H10914159   1.177   6.609   7.607  3.1537  1.6984  0.7901
   26MOL   H11014160   1.069   6.147   7.359  0.2584 -1.0199  0.0702
   26MOL   H11114161   1.124   6.053   7.155  1.7933 -3.3216  1.8927
   26MOL   H11214162   1.492   6.294   7.150 -0.4275  1.3759  0.6653
   26MOL   H11314163   1.424   6.413   7.339  1.3068  0.3156 -2.4448
   26MOL   O11414164   1.482   6.121   6.963 -0.3261  0.0114 -0.3850
   26MOL   C11514165   1.525   6.081   6.834  0.2167 -0.2257 -0.2641
   26MOL   C11614166   1.652   6.154   6.802  0.2958  0.1168 -0.1530
   26MOL   C11714167   1.642   6.305   6.795 -0.1662 -0.3874 -0.0268
   26MOL   C11814168   1.544   6.359   6.686  0.0580 -0.6723 -0.2680
   26MOL   O11914169   1.570   6.315   6.554 -0.1201  0.2951  0.0729
   26MOL   C12014170   1.474   6.227   6.500  0.1374  0.1992  0.1528
   26MOL   O12114171   1.373   6.187   6.554 -0.3473  0.8809  0.0145
   26MOL   C12214172   1.502   6.190   6.356 -0.2131 -0.3846 -0.0137
   26MOL   C12314173   1.420   6.091   6.290 -1.5785 -0.3905 -0.1331
   26MOL   C12414174   1.455   6.047   6.154 -0.5400 -0.1436 -0.5179
   26MOL   C12514175   1.580   6.091   6.095  0.9592 -0.3849 -0.3219
   26MOL   C12614176   1.627   6.017   5.971  0.3593 -0.0265  0.0233
   26MOL   O12714177   1.570   5.915   5.923  0.0146 -0.0558  0.7022
   26MOL   C12814178   1.649   6.198   6.163  0.2587 -0.2915  0.2030
   26MOL   C12914179   1.622   6.236   6.296  0.2164 -0.4295 -0.6437
   26MOL   H13014180   1.561   5.978   6.842  1.7457  0.2755 -0.6326
   26MOL   H13114181   1.452   6.087   6.754  0.3874 -1.5912 -0.5421
   26MOL   H13214182   1.691   6.100   6.716 -0.5697 -2.1760  0.8512
   26MOL   H13314183   1.723   6.124   6.879  2.4829  1.3843 -1.6301
   26MOL   H13414184   1.595   6.346   6.884 -1.7609 -0.5775 -0.7636
   26MOL   H13514185   1.737   6.347   6.761 -1.1720  1.0421 -1.1932
   26MOL   H13614186   1.438   6.351   6.707  0.3862 -3.5031  0.4532
   26MOL   H13714187   1.554   6.468   6.678 -1.6434 -0.5924 -1.4129
   26MOL   H13814188   1.339   6.042   6.342 -0.3808 -0.7459  1.4330
   26MOL   H13914189   1.395   5.969   6.110 -0.6498 -0.2613 -0.1607
   26MOL   H14014190   1.728   6.254   6.114 -1.6171  2.5977  0.3491
   26MOL   H14114191   1.675   6.308   6.358 -1.6091 -1.3790  2.0914
   26MOL   O14214192   1.732   6.082   5.915 -0.6153 -0.1834 -0.2688
   26MOL   C14314193   1.777   6.033   5.788 -0.0653 -0.5978  0.0645
   26MOL   C14414194   1.899   6.114   5.744  0.9487  0.1795 -0.7398
   26MOL   C14514195   1.865   6.255   5.671  0.1644  0.5619 -0.8673
   26MOL   C14614196   1.984   6.350   5.643 -0.0702 -0.2311 -0.1715
   26MOL   O14714197   2.054   6.400   5.760 -0.1080 -0.0340  0.1662
   26MOL   C14814198   2.163   6.337   5.816 -0.1196 -0.2667 -0.1228
   26MOL   O14914199   2.205   6.234   5.771  0.0215 -0.0873 -0.0324
   26MOL   C15014200   2.218   6.397   5.938  0.1302  0.7706 -0.0031
   26MOL   C15114201   2.286   6.327   6.045 -0.1455  0.7408 -0.0687
   26MOL   C15214202   2.314   6.388   6.165  0.3166 -0.2971 -0.1771
   26MOL   C15314203   2.274   6.523   6.191 -0.0453 -0.1232 -0.2694
   26MOL   C15414204   2.312   6.588   6.326  0.4023 -0.6684  0.2927
   26MOL   O15514205   2.300   6.707   6.350  0.2213 -0.6910 -0.3988
   26MOL   C15614206   2.228   6.598   6.079 -0.0517  0.7461  0.6958
   26MOL   C15714207   2.202   6.538   5.955  0.1595  0.0333  0.0129
   26MOL   H15814208   1.791   5.925   5.790 -1.9804 -0.8494  2.6383
   26MOL   H15914209   1.699   6.032   5.712 -0.8181  0.6275  0.8182
   26MOL   H16014210   1.968   6.055   5.684  0.7103 -0.6158 -0.2404
   26MOL   H16114211   1.960   6.126   5.834  1.1237 -1.9086 -0.5425
   26MOL   H16214212   1.801   6.232   5.586 -0.5051 -1.4867  0.1526
   26MOL   H16314213   1.798   6.307   5.738  1.3932 -0.4670  1.2069
   26MOL   H16414214   2.054   6.296   5.580  0.0992 -0.4602  0.2170
   26MOL   H16514215   1.949   6.431   5.579  2.3210  1.2771  0.3704
   26MOL   H16614216   2.314   6.224   6.033 -1.4983  0.2878  0.6084
   26MOL   H16714217   2.355   6.333   6.248 -0.1575 -3.5321 -1.9962
   26MOL   H16814218   2.199   6.701   6.093 -2.1393  0.3237 -0.4532
   26MOL   H16914219   2.167   6.605   5.878  0.2995 -2.7522 -2.6066
   26MOL   O17014220   2.358   6.498   6.418 -0.0546 -0.6240 -0.1223
   26MOL   C17114221   2.409   6.550   6.543  0.2348 -0.8848  0.2562
   26MOL   C17214222   2.317   6.526   6.663 -0.1618 -0.5363  0.1454
   26MOL   C17314223   2.272   6.377   6.691 -0.6337 -0.2536 -0.2058
   26MOL   C17414224   2.384   6.292   6.750  0.0568  0.2160 -0.3996
   26MOL   O17514225   2.393   6.316   6.894  0.1820 -0.1188  0.4076
   26MOL   C17614226   2.487   6.257   6.964 -0.2619 -0.4766 -0.0404
   26MOL   O17714227   2.585   6.204   6.914  0.5265  0.2413  0.3083
   26MOL   C17814228   2.466   6.258   7.113 -0.0664  0.1074  0.1534
   26MOL   C17914229   2.347   6.309   7.166  0.0281  0.3576  0.3598
   26MOL   C18014230   2.334   6.347   7.295 -0.4801 -0.0352  0.6355
   26MOL   C18114231   2.436   6.311   7.391  0.0476  0.0387  0.3484
   26MOL   C18214232   2.435   6.360   7.537 -0.0112 -0.0037  0.1469
   26MOL   O18314233   2.521   6.321   7.617 -0.6012 -0.1687  0.2427
   26MOL   C18414234   2.544   6.239   7.344 -0.1980  0.2060 -0.4434
   26MOL   C18514235   2.564   6.218   7.204  0.3769 -0.4759  0.2162
   26MOL   H18614236   2.499   6.494   6.566  1.0516  0.2170 -0.2293
   26MOL   H18714237   2.442   6.653   6.534  0.6420 -1.0929 -0.7123
   26MOL   H18814238   2.226   6.583   6.642  0.0805 -0.4910 -0.8036
   26MOL   H18914239   2.367   6.572   6.749  0.2811 -0.9724  0.1220
   26MOL   H19014240   2.186   6.368   6.757  0.2250  0.1069  0.9879
   26MOL   H19114241   2.238   6.324   6.602 -1.1423  0.1042 -0.2271
   26MOL   H19214242   2.367   6.185   6.736  0.5077  0.0392  0.3645
   26MOL   H19314243   2.477   6.306   6.697  0.4470 -1.1404 -0.0837
   26MOL   H19414244   2.264   6.327   7.099  1.6936 -2.2396 -2.5094
   26MOL   H19514245   2.244   6.402   7.319  0.7445  0.9568  3.0981
   26MOL   H19614246   2.623   6.210   7.412 -0.5934  0.9952  0.3533
   26MOL   H19714247   2.657   6.175   7.170  1.6419  0.7590  2.0260
   26MOL   O19814248   2.346   6.455   7.566  0.4376  0.4411  0.4632
   26MOL   C19914249   2.344   6.497   7.701  0.5634  0.0392  0.4797
   26MOL   C20014250   2.218   6.583   7.726  0.3212 -0.0737  0.5071
   26MOL   C20114251   2.084   6.504   7.730  0.8350  0.1497  0.1024
   26MOL   C20214252   1.964   6.570   7.812 -0.2076  0.2124  0.2297
   26MOL   O20314253   1.971   6.536   7.956  0.4582  0.4405  1.1722
   26MOL   C20414254   1.921   6.425   8.006  0.1517  0.8872  0.4193
   26MOL   O20514255   1.884   6.331   7.932 -0.6908 -0.3503 -0.1717
   26MOL   C20614256   1.917   6.428   0.059 -1.1127 -0.0444 -0.0291
   26MOL   C20714257   1.936   6.551   0.129  0.2252  0.8671 -0.5765
   26MOL   C20814258   1.934   6.565   0.270 -0.0734  0.4293  0.0844
   26MOL   C20914259   1.905   6.449   0.347 -0.5738  0.3281 -0.1041
   26MOL   C21014260   1.914   6.466   0.499  0.1115  0.9438  0.2419
   26MOL   O21114261   1.947   6.572   0.546 -0.5354  0.2940  0.9252
   26MOL   C21214262   1.891   6.318   0.282 -0.7763  0.0672  0.7999
   26MOL   C21314263   1.905   6.306   0.138  0.5158  0.3956  0.0710
   26MOL   H21414264   2.346   6.417   7.774 -1.7978 -0.4389  0.0614
   26MOL   H21514265   2.427   6.562   7.730 -0.1286  2.0083 -1.8461
   26MOL   H21614266   2.226   6.663   7.652  0.5670 -0.2405  0.3563
   26MOL   H21714267   2.224   6.638   7.820  0.8090  2.1592 -0.7918
   26MOL   H21814268   2.052   6.503   7.626  1.6415 -0.3404 -0.1477
   26MOL   H21914269   2.099   6.398   7.753 -3.0367 -0.8051 -1.3225
   26MOL   H22014270   1.966   6.679   7.811  0.0109  0.2205  0.8182
   26MOL   H22114271   1.868   6.532   7.776 -0.6813  2.1292 -0.5771
   26MOL   H22214272   1.961   6.644   0.082 -1.4186  2.7089  2.0442
   26MOL   H22314273   1.964   6.661   0.310  0.0667  0.0844  0.8304
   26MOL   H22414274   1.890   6.234   0.350 -2.9631  0.4670  1.3164
   26MOL   H22514275   1.882   6.212   0.090 -0.1137 -0.3773  1.8303
   26MOL   O22614276   1.871   6.359   0.569 -0.4011 -0.1278  0.7225
   26MOL   C22714277   1.883   6.341   0.708 -0.1852 -0.4572 -0.3082
   26MOL   C22814278   1.985   6.226   0.722  0.1744 -0.4297 -0.2577
   26MOL   C22914279   2.135   6.264   0.716  0.8923 -0.1121  0.2493
   26MOL   C23014280   2.159   6.395   0.788 -0.0596 -0.5360  0.2867
   26MOL   O23114281   2.292   6.397   0.828  0.7171 -0.0976  0.0879
   26MOL   C23214282   2.363   6.517   0.854  0.4754  0.9867  0.2959
   26MOL   O23314283   2.315   6.629   0.846 -0.3547 -0.3149 -0.2335
   26MOL   C23414284   2.505   6.485   0.886 -1.4234  0.5787  0.8091
   26MOL   C23514285   2.581   6.564   0.971  0.2813 -0.3095 -0.5652
   26MOL   C23614286   2.715   6.537   1.010  0.4998 -0.3517  0.1934
   26MOL   C23714287   2.776   6.426   0.953 -0.2406  0.4208  0.3540
   26MOL   C23814288   2.906   6.382   1.002 -0.2163 -0.2395 -0.0051
   26MOL   O23914289   2.951   6.272   0.972  0.2295 -0.2722  0.0916
   26MOL   C24014290   2.702   6.350   0.861 -0.2341  0.3151 -0.4348
   26MOL   C24114291   2.565   6.379   0.825  0.1476  0.1524  0.0840
   26MOL   H24214292   1.910   6.432   0.761  0.3325 -2.4554  3.0339
   26MOL   H24314293   1.784   6.314   0.745 -0.0659 -1.7964 -0.9260
   26MOL   H24414294   1.945   6.153   0.652  0.8809  0.6548 -1.7913
   26MOL   H24514295   1.962   6.189   0.822  3.4557  0.5881  0.9293
   26MOL   H24614296   2.198   6.192   0.768  1.9888 -0.8569 -2.0326
   26MOL   H24714297   2.163   6.272   0.610 -1.6466  4.0691 -0.1992
   26MOL   H24814298   2.159   6.476   0.715 -1.2346 -1.0291 -0.2759
   26MOL   H24914299   2.100   6.418   0.877 -1.1098 -1.0578 -0.2702
   26MOL   H25014300   2.532   6.654   1.004 -0.7678 -0.1318 -2.5444
   26MOL   H25114301   2.764   6.608   1.076  2.0770 -2.1436  0.9805
   26MOL   H25214302   2.751   6.267   0.812 -0.6951  0.1071 -0.5469
   26MOL   H25314303   2.515   6.314   0.754 -0.2101  0.1259  0.3624
   26MOL   O25414304   2.965   6.469   1.094  0.2007  0.1554  0.1236
   26MOL   C25514305   3.093   6.437   1.153  0.5252  0.4099 -0.2674
   26MOL   C25614306   3.128   6.537   1.266 -0.5044 -0.1889 -0.3932
   26MOL   C25714307   3.032   6.525   1.385  0.0663  0.6162  0.2943
   26MOL   C25814308   2.902   6.594   1.346  0.1585  0.0322  0.5117
   26MOL   O25914309   2.857   6.675   1.450  0.2443 -0.1540  0.0203
   26MOL   C26014310   2.755   6.753   1.419  0.5176 -0.5593 -0.1019
   26MOL   O26114311   2.710   6.767   1.307  0.0805  0.1807  0.6031
   26MOL   C26214312   2.694   6.824   1.533 -0.1505  0.2550 -0.5198
   26MOL   C26314313   2.686   6.760   1.657  0.0050  0.0386  0.0438
   26MOL   C26414314   2.663   6.832   1.775 -0.6860 -0.8484 -0.4927
   26MOL   C26514315   2.638   6.968   1.760  0.1458 -0.1503 -0.5352
   26MOL   C26614316   2.610   7.050   1.877  0.1478 -0.1122 -0.6535
   26MOL   O26714317   2.603   7.172   1.865  0.7141  0.6579 -0.0537
   26MOL   C26814318   2.639   7.033   1.634 -0.6907  0.8031 -0.2138
   26MOL   C26914319   2.664   6.958   1.521 -0.2571  0.3663  0.1692
   26MOL   H27014320   3.084   6.343   1.207  0.8488  0.3966 -0.2342
   26MOL   H27114321   3.174   6.438   1.080  0.5314  1.7038 -0.2519
   26MOL   H27214322   3.117   6.642   1.238 -0.3132  0.3448  1.4291
   26MOL   H27314323   3.233   6.525   1.291 -0.9589  0.7178  2.2012
   26MOL   H27414324   3.012   6.423   1.418 -0.4670  1.1427  1.6391
   26MOL   H27514325   3.072   6.587   1.466  1.5018  0.8434 -0.5749
   26MOL   H27614326   2.903   6.646   1.251  0.9227 -0.9285 -0.0218
   26MOL   H27714327   2.826   6.516   1.337 -0.2962  0.5681 -0.3703
   26MOL   H27814328   2.713   6.657   1.675  2.0876  0.4887 -0.3049
   26MOL   H27914329   2.655   6.783   1.872  0.2242  0.4044  0.2338
   26MOL   H28014330   2.615   7.138   1.636 -3.5600  0.1931 -0.8657
   26MOL   H28114331   2.680   7.005   1.425 -0.9309  0.8127  0.2733
   26MOL   O28214332   2.590   6.983   1.989 -0.3046  0.3437  0.8102
   26MOL   C28314333   2.555   7.045   2.114  0.7007 -0.6532  0.2213
   26MOL   C28414334   2.405   7.042   2.149 -0.0221  0.3979 -0.6967
   26MOL   C28514335   2.346   6.899   2.144 -0.3117 -0.4279 -0.0422
   26MOL   C28614336   2.210   6.884   2.208 -0.0160 -0.2537  0.5638
   26MOL   O28714337   2.109   6.930   2.121 -0.0766  0.7030 -0.3420
   26MOL   C28814338   1.983   6.907   2.162  0.0333  0.2777  0.3259
   26MOL   O28914339   1.953   6.839   2.256 -0.5311 -0.1029  0.0145
   26MOL   C29014340   1.880   6.971   2.074  0.5584  0.3698  0.4287
   26MOL   C29114341   1.908   7.038   1.953  0.0815 -0.8729  0.0621
   26MOL   C29214342   1.804   7.105   1.876 -0.1450 -0.1990  0.0146
   26MOL   C29314343   1.671   7.099   1.924  0.2541  0.4321  0.0195
   26MOL   C29414344   1.556   7.170   1.865  0.3122 -0.3161  0.6134
   26MOL   O29514345   1.442   7.173   1.916 -0.1623  0.0988  0.8080
   26MOL   C29614346   1.641   7.028   2.044  0.1248 -0.1604  0.0379
   26MOL   C29714347   1.744   6.963   2.112 -0.0366  0.2973 -0.1325
   26MOL   H29814348   2.601   6.991   2.197 -0.3869 -2.2567 -0.1895
   26MOL   H29914349   2.587   7.148   2.097 -0.2649 -0.1296  1.4693
   26MOL   H30014350   2.353   7.114   2.086 -0.8407  0.1935 -0.2553
   26MOL   H30114351   2.388   7.069   2.253 -0.6277 -0.7379 -0.4899
   26MOL   H30214352   2.350   6.863   2.041 -0.6090  2.1036 -0.9777
   26MOL   H30314353   2.411   6.836   2.204  0.3894  1.2664  0.9975
   26MOL   H30414354   2.209   6.775   2.219  1.1122 -0.4285 -0.8559
   26MOL   H30514355   2.206   6.932   2.306  1.6502 -1.0317  1.0225
   26MOL   H30614356   2.006   7.050   1.910  0.5673 -1.4900  0.9801
   26MOL   H30714357   1.832   7.166   1.791 -2.3081  2.3360  1.0846
   26MOL   H30814358   1.542   7.018   2.086  0.4457 -1.9770  0.3868
   26MOL   H30914359   1.719   6.906   2.200 -2.4409  0.2827 -0.8110
   26MOL   O31014360   1.578   7.224   1.745 -0.1187  0.5259  0.9777
   26MOL   C31114361   1.490   7.298   1.665 -0.0746  0.3628 -0.1834
   26MOL   C31214362   1.408   7.210   1.568 -0.0706  0.0870 -0.0571
   26MOL   C31314363   1.284   7.150   1.635 -0.2803 -0.6274 -0.3381
   26MOL   C31414364   1.179   7.096   1.538  0.1706  0.6757  0.2440
   26MOL   O31514365   1.052   7.134   1.583 -0.3637 -0.0981 -0.0435
   26MOL   C31614366   0.948   7.124   1.497  0.7222 -0.6542 -0.5078
   26MOL   O31714367   0.959   7.086   1.383  0.0818  0.4926  0.2428
   26MOL   C31814368   0.809   7.160   1.561 -0.7551 -0.2606 -0.4266
   26MOL   C31914369   0.801   7.233   1.679  0.1994  0.9209 -1.0677
   26MOL   C32014370   0.675   7.275   1.731 -0.1908  0.1187  0.8962
   26MOL   C32114371   0.556   7.221   1.673 -0.4676  0.7758 -0.3065
   26MOL   C32214372   0.423   7.245   1.727 -0.2428 -0.4326 -0.7347
   26MOL   O32314373   0.404   7.336   1.812  0.0426  0.4446  0.0611
   26MOL   C32414374   0.569   7.144   1.557  0.2813  0.3970  0.7407
   26MOL   C32514375   0.689   7.113   1.501  0.1289  0.2404  0.3019
   26MOL   H32614376   1.418   7.354   1.724  0.5699 -1.0810  2.0458
   26MOL   H32714377   1.555   7.371   1.618  0.8865  0.2605  0.9635
   26MOL   H32814378   1.480   7.138   1.528  0.9181  1.1037 -0.1298
   26MOL   H32914379   1.384   7.267   1.478 -0.4773  0.2900  0.1772
   26MOL   H33014380   1.307   7.081   1.717 -0.5007 -2.3576 -1.6949
   26MOL   H33114381   1.229   7.226   1.691 -2.1536 -1.7886 -0.5494
   26MOL   H33214382   1.199   7.138   1.440  2.4558  0.0550  0.4057
   26MOL   H33314383   1.187   6.988   1.544 -1.1857  0.4467 -1.6895
   26MOL   H33414384   0.884   7.275   1.733 -0.1354  1.7215 -1.1605
   26MOL   H33514385   0.655   7.336   1.818  0.4007  3.0079 -0.8876
   26MOL   H33614386   0.484   7.103   1.504  0.2880 -0.1867  1.1760
   26MOL   H33714387   0.699   7.059   1.408  1.3265  2.8612 -1.1387
   26MOL   O33814388   0.329   7.160   1.676 -0.4703  0.0171 -0.0790
   26MOL   C33914389   0.192   7.186   1.703 -0.4820 -0.7329 -0.1029
   26MOL   C34014390   0.135   7.093   1.811  0.1019  0.8024  0.6709
   26MOL   C34114391   0.003   7.142   1.865 -0.7260 -0.4085 -0.3218
   26MOL   C34214392   8.060   7.076   1.998  0.5282 -0.7347  0.3527
   26MOL   O34314393   7.995   6.952   1.966 -0.0845 -0.1780  0.2313
   26MOL   C34414394   7.905   6.903   2.047 -0.1500  0.4525  0.1727
   26MOL   O34514395   7.886   6.941   2.164 -0.8650 -0.2115  0.2628
   26MOL   C34614396   7.843   6.780   1.989  0.4712 -0.1873 -0.3296
   26MOL   C34714397   7.821   6.668   2.074  0.2372 -0.4034  0.0959
   26MOL   C34814398   7.772   6.551   2.012 -0.0352 -0.8833 -0.6751
   26MOL   C34914399   7.734   6.539   1.873 -0.8387  0.2634 -0.3688
   26MOL   C35014400   7.690   6.409   1.819 -0.0879 -0.3305 -0.0522
   26MOL   O35114401   7.665   6.312   1.889 -0.0616  0.5231  0.6090
   26MOL   C35214402   7.751   6.653   1.796  0.8599 -0.3962  0.4642
   26MOL   C35314403   7.800   6.774   1.856  0.2639 -0.0877  0.7019
   26MOL   H35414404   0.177   7.292   1.723  1.1480 -0.8328  1.8838
   26MOL   H35514405   0.135   7.174   1.612 -1.3909 -0.4758  0.4270
   26MOL   H35614406   0.213   7.072   1.885 -0.9521 -0.2628  1.4983
   26MOL   H35714407   0.116   6.994   1.769  2.2147  0.8231 -0.4262
   26MOL   H35814408   0.021   7.246   1.889  0.2368 -0.3201 -1.3683
   26MOL   H35914409   8.036   7.126   1.779  1.8331 -1.2168 -2.1886
   26MOL   H36014410   0.046   7.041   2.058  1.8286 -0.5002 -1.3076
   26MOL   H36114411   7.996   7.138   2.061  0.4121 -1.8418  1.3275
   26MOL   H36214412   7.846   6.676   2.179  0.0484  3.0981 -0.0460
   26MOL   H36314413   7.755   6.464   2.074  0.0994 -0.3904  0.0654
   26MOL   H36414414   7.735   6.651   1.689 -0.2440 -1.7228  0.6398
   26MOL   H36514415   7.805   6.867   1.802 -1.5155 -0.6855 -0.5368
   26MOL   O36614416   7.674   6.403   1.695 -0.0873  0.3657 -0.2798
   26MOL   C36714417   7.582   6.312   1.638  0.5042 -0.3630 -0.2716
   26MOL   C36814418   7.618   6.307   1.497 -0.2446  0.4993  0.2948
   26MOL   C36914419   7.734   6.215   1.462  0.3569 -0.2458 -0.2154
   26MOL   C37014420   7.721   6.063   1.507 -0.8970  0.0321  0.7257
   26MOL   O37114421   7.817   5.988   1.440 -0.1549  0.5554 -0.1544
   26MOL   C37214422   7.830   5.860   1.475  1.2756  0.2037 -0.2496
   26MOL   O37314423   7.754   5.800   1.553 -0.0964  0.1062  0.4215
   26MOL   C37414424   7.947   5.800   1.411  0.0107  0.1305 -0.5606
   26MOL   C37514425   8.011   5.687   1.464 -0.0665  0.9713 -0.8904
   26MOL   C37614426   0.030   5.631   1.400 -0.0345 -0.4119 -0.0799
   26MOL   C37714427   0.075   5.681   1.271  0.0404  0.3789  0.1694
   26MOL   C37814428   0.184   5.600   1.214  0.2929  0.1151 -0.4204
   26MOL   O37914429   0.256   5.533   1.292 -0.0327 -0.1040 -0.4258
   26MOL   C38014430   0.001   5.792   1.219 -1.3879 -0.6582  0.1305
   26MOL   C38114431   7.996   5.853   1.288 -0.0350  0.2154 -0.3559
   26MOL   H38214432   7.589   6.207   1.667 -0.8994 -1.0676 -2.4150
   26MOL   H38314433   7.482   6.355   1.651  0.6714 -0.2098  0.5625
   26MOL   H38414434   7.624   6.407   1.454 -1.0221  0.4825  0.1274
   26MOL   H38514435   7.530   6.264   1.448  0.7020 -0.4050 -0.6294
   26MOL   H38614436   7.751   6.204   1.355 -2.3779  4.2538 -1.2640
   26MOL   H38714437   7.820   6.271   1.499  0.1905 -0.8690  1.1586
   26MOL   H38814438   7.731   6.048   1.614 -0.1609  0.7829  0.7704
   26MOL   H38914439   7.636   6.012   1.463 -0.0492 -1.4483  0.7447
   26MOL   H39014440   7.971   5.640   1.553  1.3705 -2.3214 -1.9077
   26MOL   H39114441   0.074   5.542   1.444 -0.9802 -1.0120 -0.3371
   26MOL   H39214442   0.043   5.828   1.126 -3.1338 -1.1198 -0.8553
   26MOL   H39314443   7.951   5.939   1.240 -0.6857 -1.0898 -2.1087
   26MOL   O39414444   0.196   5.604   1.083  0.1715 -0.2914  0.7154
   26MOL   C39514445   0.279   5.507   1.013 -0.1174 -0.3693  0.3283
   26MOL   C39614446   0.383   5.575   0.926  0.0025 -0.9444  0.1686
   26MOL   C39714447   0.493   5.660   0.997  0.0173  0.3070 -0.0990
   26MOL   C39814448   0.504   5.801   0.944 -0.1068 -0.5282  0.5529
   26MOL   O39914449   0.422   5.873   1.033 -0.2678 -0.0579  0.4533
   26MOL   C40014450   0.321   5.953   0.981 -0.7934 -0.6887  0.1191
   26MOL   O40114451   0.302   5.961   0.857  0.6354  0.0801  0.4223
   26MOL   C40214452   0.255   6.035   1.084 -0.2024  0.6331 -0.6857
   26MOL   C40314453   0.294   6.026   1.222  0.2642 -0.8463  0.0267
   26MOL   C40414454   0.224   6.108   1.319  0.2024  0.9798  0.0163
   26MOL   C40514455   0.104   6.177   1.283 -0.3849 -0.2693 -0.4397
   26MOL   C40614456   0.041   6.271   1.373  0.1012  0.3758  0.4421
   26MOL   O40714457   8.020   6.313   1.369  0.7841 -0.1064 -0.5032
   26MOL   C40814458   0.061   6.178   1.147 -0.1585 -0.4516 -0.6409
   26MOL   C40914459   0.139   6.104   1.052 -0.7043  0.1478 -0.1284
   26MOL   H41014460   0.337   5.448   1.084 -1.5240 -0.4155  1.4631
   26MOL   H41114461   0.204   5.456   0.954 -0.9249 -0.0467  1.0690
   26MOL   H41214462   0.328   5.634   0.852 -1.5171 -0.6404  1.5212
   26MOL   H41314463   0.434   5.495   0.872 -0.3263 -0.9488 -0.1327
   26MOL   H41414464   0.491   5.650   1.106  0.2763  1.3770  0.0132
   26MOL   H41514465   0.590   5.616   0.974 -0.6418 -0.1111 -2.2186
   26MOL   H41614466   0.603   5.843   0.959 -2.0203  4.2709  0.8926
   26MOL   H41714467   0.467   5.801   0.841  1.1838 -0.7567  0.0813
   26MOL   H41814468   0.384   5.967   1.236  0.5859 -0.6846 -1.2520
   26MOL   H41914469   0.262   6.103   1.421 -3.0056 -1.4505  1.1655
   26MOL   H42014470   8.071   6.232   1.115 -1.7650 -2.1438  0.8813
   26MOL   H42114471   0.115   6.116   0.948  0.2045 -1.1715 -0.5009
   26MOL   O42214472   0.125   6.312   1.472  0.5015  0.2583 -0.0066
   26MOL   C42314473   0.077   6.384   1.581 -0.5027  0.2847  0.6135
   26MOL   C42414474   0.167   6.366   1.703  0.1374  0.3288 -0.2608
   26MOL   C42514475   0.321   6.394   1.684  0.9628 -0.3546  0.9221
   26MOL   C42614476   0.406   6.347   1.802 -0.3892  0.7345  0.6914
   26MOL   O42714477   0.539   6.351   1.761  0.0225 -0.2841 -0.3394
   26MOL   C42814478   0.602   6.242   1.695  0.4862  0.1455 -0.6975
   26MOL   O42914479   0.531   6.151   1.648  0.0672  0.1329 -0.1558
   26MOL   C43014480   0.741   6.255   1.663  0.3473 -0.0977 -0.7096
   26MOL   C43114481   0.821   6.151   1.611  1.0119 -0.8113 -1.0889
   26MOL   C43214482   0.961   6.167   1.596 -0.2769 -0.1906 -0.0971
   26MOL   C43314483   1.018   6.294   1.630  0.2427  0.9831  0.7724
   26MOL   C43414484   1.164   6.321   1.624  0.2575  0.7258 -1.0858
   26MOL   O43514485   1.211   6.433   1.615  0.3044  0.5432 -0.3240
   26MOL   C43614486   0.934   6.403   1.661 -0.8625  0.0165 -0.3042
   26MOL   C43714487   0.797   6.378   1.679  0.2367 -0.4534 -0.3345
   26MOL   H43814488   0.065   6.489   1.554 -1.7373  0.1148  0.4695
   26MOL   H43914489   8.080   6.342   1.614 -1.4257  1.1416 -0.8903
   26MOL   H44014490   0.156   6.263   1.738 -3.0281  0.5042 -0.5525
   26MOL   H44114491   0.115   6.422   1.781 -1.6263 -1.5414 -0.0178
   26MOL   H44214492   0.357   6.340   1.596 -0.1810  2.7743 -1.5522
   26MOL   H44314493   0.347   6.494   1.651  1.2015 -1.1184 -1.3428
   26MOL   H44414494   0.402   6.425   1.878  1.5018 -0.3492  1.9437
   26MOL   H44514495   0.385   6.248   1.842  2.3608  0.5065  1.7143
   26MOL   H44614496   0.784   6.050   1.603 -0.9274 -0.3622  1.5010
   26MOL   H44714497   1.020   6.080   1.569  1.1398  0.5545  0.5270
   26MOL   H44814498   0.973   6.503   1.660 -0.5148 -0.1210 -2.3182
   26MOL   H44914499   0.736   6.456   1.722  0.4396  0.1711 -1.1556
   26MOL   O45014500   1.227   6.206   1.645  0.1286 -0.1654 -0.3876
   26MOL   C45114501   1.367   6.192   1.625 -0.5540  0.4516  0.0349
   26MOL   C45214502   1.449   6.250   1.748 -0.2740 -0.3673  0.4723
   26MOL   C45314503   1.598   6.225   1.744  0.5062  0.6302 -0.1069
   26MOL   C45414504   1.681   6.334   1.684  0.1167 -0.1249  0.2324
   26MOL   O45514505   1.639   6.375   1.556  0.1994 -0.3689 -0.1464
   26MOL   C45614506   1.656   6.296   1.454 -0.8591  0.1614 -0.4371
   26MOL   O45714507   1.711   6.182   1.459  0.5369 -0.4915 -0.1245
   26MOL   C45814508   1.594   6.339   1.326 -0.1004 -0.0035 -0.2386
   26MOL   C45914509   1.528   6.463   1.305  0.0617  0.4256  0.0674
   26MOL   C46014510   1.473   6.490   1.174 -0.3430 -0.0131 -0.2059
   26MOL   C46114511   1.475   6.388   1.073 -0.3663 -0.8077  0.2753
   26MOL   C46214512   1.419   6.432   0.940  0.8880  0.0178 -0.0883
   26MOL   O46314513   1.356   6.535   0.925 -0.1666  0.5130 -0.2662
   26MOL   C46414514   1.544   6.271   1.090  0.5232  0.6422 -0.0608
   26MOL   C46514515   1.605   6.250   1.215 -0.3177  0.5872  0.2874
   26MOL   H46614516   1.383   6.088   1.595 -3.0745  0.3163 -1.0117
   26MOL   H46714517   1.400   6.243   1.535  0.7031 -2.5575 -1.2678
   26MOL   H46814518   1.403   6.217   1.841  1.0313  0.6496  1.4975
   26MOL   H46914519   1.430   6.357   1.743 -1.0281 -0.4405  1.5712
   26MOL   H47014520   1.630   6.220   1.848  2.4699 -1.5936 -0.7740
   26MOL   H47114521   1.621   6.130   1.696 -1.0024  0.4301 -0.4822
   26MOL   H47214522   1.687   6.419   1.752  1.0081 -0.0022  0.0061
   26MOL   H47314523   1.785   6.303   1.676  0.2793  1.0261 -2.4190
   26MOL   H47414524   1.518   6.546   1.373  1.7891  0.1826  0.6524
   26MOL   H47514525   1.426   6.586   1.155 -1.6801 -0.7492 -0.7002
   26MOL   H47614526   1.553   6.189   1.020  1.3810 -0.7066  1.5662
   26MOL   H47714527   1.650   6.153   1.228 -1.0108  0.2242  0.0172
   26MOL   O47814528   1.459   6.350   0.837  0.4987 -0.1634  0.4140
   26MOL   C47914529   1.448   6.391   0.702  0.3526 -0.1944  0.3219
   26MOL   C48014530   1.528   6.516   0.667 -0.5200 -0.0663  0.9064
   26MOL   C48114531   1.560   6.530   0.518  0.6047  0.7003 -0.5966
   26MOL   C48214532   1.628   6.665   0.494 -0.4596  0.4229 -0.1587
   26MOL   O48314533   1.527   6.764   0.487 -0.3319 -0.1792  0.0200
   26MOL   C48414534   1.559   6.893   0.465 -0.2460  0.0454 -0.2023
   26MOL   O48514535   1.674   6.931   0.464  0.0473  0.1599  0.1441
   26MOL   C48614536   1.433   6.981   0.464  0.3412 -0.0376  0.6455
   26MOL   C48714537   1.310   6.922   0.427  0.1667  0.3372  0.6865
   26MOL   C48814538   1.198   7.007   0.407  0.5399 -0.1214  0.5665
   26MOL   C48914539   1.206   7.145   0.432  0.5797 -0.5491 -0.2091
   26MOL   C49014540   1.086   7.237   0.421 -0.4542  1.0102 -0.3135
   26MOL   O49114541   1.100   7.359   0.439  0.2437 -0.1243  0.1533
   26MOL   C49214542   1.329   7.200   0.462 -0.3597 -0.0082 -0.5523
   26MOL   C49314543   1.443   7.119   0.481  0.1823 -0.6541  0.0309
   26MOL   H49414544   1.473   6.307   0.638 -0.0775  0.3474 -0.5677
   26MOL   H49514545   1.340   6.402   0.691  0.3135  0.1129  1.0212
   26MOL   H49614546   1.622   6.515   0.722  0.9018 -1.0685 -1.4862
   26MOL   H49714547   1.471   6.604   0.699 -0.1906  0.1712  0.8373
   26MOL   H49814548   1.627   6.450   0.487 -1.9536 -1.6845 -0.1536
   26MOL   H49914549   1.469   6.538   0.458 -0.0766 -0.1570  0.3057
   26MOL   H50014550   1.702   6.680   0.572  0.8734  1.0629 -1.5113
   26MOL   H50114551   1.686   6.650   0.403  1.1277  1.1953  0.7024
   26MOL   H50214552   1.299   6.816   0.413  0.6151  0.2751  0.7905
   26MOL   H50314553   1.106   6.959   0.376 -0.4922  2.7164 -0.9362
   26MOL   H50414554   1.345   7.305   0.484 -0.3142  0.1292 -1.2275
   26MOL   H50514555   1.540   7.161   0.502 -0.1547  0.7878 -1.2058
   26MOL   O50614556   0.975   7.170   0.397 -0.3937 -0.5104  0.2390
   26MOL   C50714557   0.844   7.235   0.389 -0.0543 -0.3146 -0.0647
   26MOL   C50814558   0.742   7.152   0.466 -0.0521 -0.1148  0.4496
   26MOL   C50914559   0.689   7.024   0.394 -0.4520 -0.0327  0.3913
   26MOL   C51014560   0.585   7.052   0.283 -0.4448  0.8538 -0.3779
   26MOL   O51114561   0.512   6.936   0.254  0.0172  0.3368 -0.0241
   26MOL   C51214562   0.387   6.951   0.197  0.7387 -0.0881  0.5040
   26MOL   O51314563   0.327   7.055   0.165 -0.2114  0.0064 -0.0970
   26MOL   C51414564   0.327   6.820   0.175  0.1054  0.1375 -0.6297
   26MOL   C51514565   0.388   6.693   0.217 -0.5609 -1.3736 -0.1081
   26MOL   C51614566   0.331   6.572   0.178 -0.3522  0.2940 -0.6108
   26MOL   C51714567   0.208   6.569   0.118  0.0866  0.1396  0.2695
   26MOL   C51814568   0.140   6.441   0.094 -0.6537 -0.5532 -0.1330
   26MOL   O51914569   0.161   6.340   0.166  0.3739 -0.1718  0.3485
   26MOL   C52014570   0.149   6.691   0.081 -0.9444 -0.4142 -0.7048
   26MOL   C52114571   0.203   6.814   0.107  0.1138  0.6678  0.4150
   26MOL   H52214572   0.854   7.332   0.438 -1.0750 -0.2850  0.1027
   26MOL   H52314573   0.818   7.237   0.283 -1.2890 -1.4436  0.2054
   26MOL   H52414574   0.661   7.212   0.509  0.9814  0.5028  1.5551
   26MOL   H52514575   0.795   7.118   0.555  1.5083  0.7132 -0.1618
   26MOL   H52614576   0.775   6.974   0.348  0.6348  2.6896 -0.6799
   26MOL   H52714577   0.661   6.956   0.474 -0.6539 -0.8217 -0.3497
   26MOL   H52814578   0.511   7.120   0.326  0.1478  1.0350  0.3734
   26MOL   H52914579   0.618   7.100   0.191 -0.3789 -2.8991 -2.4127
   26MOL   H53014580   0.482   6.693   0.270  1.1226 -0.4134 -2.9870
   26MOL   H53114581   0.385   6.482   0.206  0.2693  1.0245  0.6027
   26MOL   H53214582   0.059   6.684   0.022 -1.4918 -0.1712  0.1108
   26MOL   H53314583   0.134   6.896   0.095 -3.6047 -2.4372 -0.0921
   26MOL   O53414584   0.061   6.445   8.090 -0.0766 -0.4214 -0.2279
   26MOL   C53514585   8.087   6.326   8.049 -0.7262 -0.7666 -1.0725
   26MOL   C53614586   7.950   6.311   0.026  0.3321  0.1560 -0.1443
   26MOL   C53714587   7.849   6.404   8.062  0.1329 -0.2752 -0.3734
   26MOL   C53814588   7.714   6.408   0.035 -0.2300 -0.1754  0.0299
   26MOL   O53914589   7.626   6.449   8.024 -0.0955  0.0774  0.0734
   26MOL   C54014590   7.557   6.355   7.952 -0.2080  0.1027  0.0707
   26MOL   O54114591   7.588   6.235   7.942 -0.0062  0.2227  0.4655
   26MOL   C54214592   7.450   6.424   7.872 -0.0530 -0.2047 -0.1752
   26MOL   C54314593   7.417   6.371   7.746  0.5683 -0.0645 -0.0895
   26MOL   C54414594   7.311   6.433   7.670  0.3311 -0.1455 -0.3105
   26MOL   C54514595   7.245   6.548   7.721  0.1436 -0.4352  0.3290
   26MOL   C54614596   7.150   6.629   7.642 -0.1758  0.1283 -0.2536
   26MOL   O54714597   7.083   6.719   7.687 -0.5769  0.0184  0.2978
   26MOL   C54814598   7.284   6.600   7.842  0.1157  0.1291 -0.2536
   26MOL   C54914599   7.381   6.536   7.918 -0.8221 -0.1528  0.4950
   26MOL   H55014600   8.075   6.316   7.941  1.5029 -0.6506 -1.3447
   26MOL   H55114601   0.047   6.236   8.068  2.2516  0.7897 -2.6304
   26MOL   H55214602   7.956   6.338   0.131  0.1198  2.3885 -0.6695
   26MOL   H55314603   7.910   6.210   0.027  0.9975 -0.1005  1.1578
   26MOL   H55414604   7.894   6.503   8.067  1.1675 -0.7388 -0.3865
   26MOL   H55514605   7.844   6.376   7.957  0.7365 -2.2077  0.0866
   26MOL   H55614606   7.692   6.309   0.075 -0.5002  0.9456  2.7784
   26MOL   H55714607   7.698   6.485   0.110 -0.9705  1.5341 -1.8326
   26MOL   H55814608   7.469   6.284   7.707 -0.3513 -0.3018 -0.8104
   26MOL   H55914609   7.289   6.391   7.574 -0.5834 -0.2193 -0.0669
   26MOL   H56014610   7.240   6.691   7.879 -1.5491 -0.7963  0.0585
   26MOL   H56114611   7.415   6.570   8.015 -1.1935 -1.6321  1.1558
   26MOL   H56214612   7.138   6.598   7.538  2.0724 -0.5198 -0.3361
   27MOL     O114613   5.959   7.149   0.426  0.1404 -0.1508  0.3771
   27MOL     C214614   5.846   7.158   0.344 -0.0157  0.7811 -0.2847
   27MOL     C314615   5.717   7.109   0.408 -0.4740 -0.2766  0.3274
   27MOL     C414616   5.727   6.958   0.451  0.0151 -0.0276 -0.1589
   27MOL     C514617   5.595   6.880   0.477 -0.3603  0.3860 -0.2277
   27MOL     O614618   5.611   6.736   0.471 -0.1137 -0.2961 -0.4159
   27MOL     C714619   5.676   6.669   0.562  0.0106 -0.3595  0.1045
   27MOL     O814620   5.746   6.710   0.654 -0.2363  0.0395  0.1147
   27MOL     C914621   5.684   6.517   0.541  0.8186 -0.3392 -0.2315
   27MOL    C1014622   5.777   6.435   0.605  0.0730  0.0792 -0.0203
   27MOL    C1114623   5.784   6.297   0.584 -0.0486 -0.2703 -0.3276
   27MOL    C1214624   5.715   6.247   0.470 -0.9474 -0.4978  0.2215
   27MOL    C1314625   5.728   6.099   0.437  0.2403 -0.4999 -0.6722
   27MOL    O1414626   5.740   6.056   0.324  0.0492  0.3788 -0.0959
   27MOL    C1514627   5.619   6.327   0.405 -0.8381 -0.5497  0.5730
   27MOL    C1614628   5.604   6.462   0.439 -0.7648 -0.2255  0.4420
   27MOL    H1714629   5.830   7.253   0.293  0.4387  0.7409 -0.5105
   27MOL    H1814630   5.873   7.090   0.263  0.4424  0.3527  0.2209
   27MOL    H1914631   5.640   7.112   0.331 -0.5064  2.2765  0.4104
   27MOL    H2014632   5.676   7.184   0.476 -3.0543 -2.3535  1.1623
   27MOL    H2114633   5.768   6.906   0.364  1.6679  0.4394  0.3173
   27MOL    H2214634   5.803   6.942   0.528 -0.7466 -0.4263  0.5297
   27MOL    H2314635   5.554   6.906   0.575 -2.0107 -0.1085 -0.7873
   27MOL    H2414636   5.522   6.907   0.401 -1.2791 -2.6899 -0.4815
   27MOL    H2514637   5.848   6.480   0.672  0.6394  1.3988 -1.4637
   27MOL    H2614638   5.850   6.227   0.632  0.0817 -0.2475 -0.4742
   27MOL    H2714639   5.553   6.291   0.327  0.1742  3.4273 -2.3045
   27MOL    H2814640   5.527   6.519   0.388 -0.3500 -0.0164  0.0471
   27MOL    H2914641   5.982   7.239   0.445  1.0162 -0.2571 -0.1471
   27MOL    O3014642   5.720   6.021   0.551  0.4369 -0.3982  0.0407
   27MOL    C3114643   5.736   5.879   0.534  0.3834  0.6657  0.4470
   27MOL    C3214644   5.880   5.825   0.562 -0.4203  0.3169  0.5639
   27MOL    C3314645   5.969   5.816   0.441  0.4446 -0.1105  0.0513
   27MOL    C3414646   6.103   5.756   0.485  0.5750 -0.5306 -0.1119
   27MOL    O3514647   6.192   5.726   0.373 -0.0739 -0.7205  0.3751
   27MOL    C3614648   6.264   5.617   0.374 -0.1209 -0.2083  0.1522
   27MOL    O3714649   6.249   5.531   0.459  0.5454 -0.4821 -0.1492
   27MOL    C3814650   6.364   5.611   0.261 -0.0010  0.5939 -0.0761
   27MOL    C3914651   6.376   5.716   0.168 -0.2005 -0.4124 -0.0297
   27MOL    C4014652   6.473   5.715   0.063  0.4555 -0.1167  0.1979
   27MOL    C4114653   6.553   5.598   0.045 -0.1544 -0.9811 -0.0609
   27MOL    C4214654   6.653   5.592   8.038  0.2800  0.2636 -0.1228
   27MOL    O4314655   6.696   5.480   8.009 -0.0021  0.1590 -0.1333
   27MOL    C4414656   6.537   5.495   0.141 -0.5816 -0.1413 -0.0216
   27MOL    C4514657   6.449   5.501   0.251 -0.2592 -0.0200 -0.8386
   27MOL    H4614658   5.664   5.830   0.599  1.5983 -1.4756  0.2272
   27MOL    H4714659   5.714   5.843   0.433 -1.2054  1.1626  0.6049
   27MOL    H4814660   5.856   5.724   0.595 -3.5926  0.5970 -0.7629
   27MOL    H4914661   5.921   5.885   0.643  1.8971  0.7275 -0.8607
   27MOL    H5014662   5.923   5.750   0.367  1.7529 -0.1608 -0.7326
   27MOL    H5114663   5.988   5.915   0.400 -1.1635 -0.1865 -0.9448
   27MOL    H5214664   6.156   5.818   0.556 -2.3818 -1.4593  3.0444
   27MOL    H5314665   6.083   5.662   0.536 -0.6299 -1.1461 -1.6673
   27MOL    H5414666   6.315   5.802   0.190 -2.8544 -2.2022 -0.0877
   27MOL    H5514667   6.489   5.794   8.089  2.6097 -0.7550 -0.0490
   27MOL    H5614668   6.602   5.409   0.132 -0.6475 -0.1995  0.0587
   27MOL    H5714669   6.448   5.421   0.323 -0.3330  1.3064  0.6477
   27MOL    O5814670   6.678   5.707   7.963 -0.7845  0.8216  0.0802
   27MOL    C5914671   6.771   5.697   7.860 -0.4882 -0.6407  0.1308
   27MOL    C6014672   6.802   5.830   7.785 -0.5709 -0.2366  0.1228
   27MOL    C6114673   6.807   5.948   7.889 -0.8627  0.1684  0.1279
   27MOL    C6214674   6.941   5.936   7.970 -0.0300  0.5108  0.1603
   27MOL    O6314675   6.934   5.840   8.076  0.6654  0.0144 -0.3110
   27MOL    C6414676   6.875   5.874   0.093 -0.7480 -0.1607 -0.3526
   27MOL    O6514677   6.858   5.996   0.127 -0.5116  0.1571 -0.4068
   27MOL    C6614678   6.858   5.754   0.183  0.5319 -0.0592  0.2321
   27MOL    C6714679   6.787   5.770   0.304 -0.4465 -0.5618  0.6731
   27MOL    C6814680   6.764   5.664   0.388 -0.3014 -0.2350 -0.7784
   27MOL    C6914681   6.800   5.531   0.355 -1.1254  0.0362  0.1531
   27MOL    C7014682   6.753   5.416   0.434  0.4561  0.4818  0.2232
   27MOL    O7114683   6.795   5.301   0.413  0.1855 -0.4333  0.5681
   27MOL    C7214684   6.880   5.515   0.235  0.1556 -0.4441 -0.6066
   27MOL    C7314685   6.912   5.627   0.153 -0.0930 -0.2229  0.0531
   27MOL    H7414686   6.863   5.650   7.896  0.4730  1.9710  1.2343
   27MOL    H7514687   6.737   5.626   7.785  0.8327  0.4561 -1.5400
   27MOL    H7614688   6.723   5.848   7.712  0.1299 -1.7411 -1.0311
   27MOL    H7714689   6.892   5.815   7.725 -1.4314 -3.3357 -0.5053
   27MOL    H7814690   6.810   6.048   7.845 -1.4281  0.4024  0.6160
   27MOL    H7914691   6.720   5.944   7.955 -1.4361 -0.2724 -0.6550
   27MOL    H8014692   7.021   5.903   7.904  0.4393  0.7646  0.6051
   27MOL    H8114693   6.970   6.035   8.006 -0.3681  1.3540 -1.7573
   27MOL    H8214694   6.754   5.869   0.331  0.1596 -0.5827  1.5324
   27MOL    H8314695   6.709   5.689   0.477 -0.7295  0.1546 -1.1489
   27MOL    H8414696   6.913   5.418   0.200  1.5307  0.0209 -0.6472
   27MOL    H8514697   6.965   5.602   0.063 -0.6652 -0.1302 -0.3114
   27MOL    O8614698   6.674   5.452   0.540  0.0124 -0.1031  0.1966
   27MOL    C8714699   6.588   5.355   0.600 -0.2793 -0.6454  0.6254
   27MOL    C8814700   6.499   5.434   0.699  0.3488  0.1515  0.0273
   27MOL    C8914701   6.571   5.479   0.834 -0.8345  0.5089 -0.1062
   27MOL    C9014702   6.660   5.598   0.827  0.4693 -0.3774 -0.4011
   27MOL    O9114703   6.681   5.655   0.955  0.4792 -0.0323 -0.5189
   27MOL    C9214704   6.773   5.751   0.964 -0.0518 -0.4169 -0.1546
   27MOL    O9314705   6.834   5.799   0.870 -0.0242  0.4094  0.0672
   27MOL    C9414706   6.789   5.815   1.098  0.2232 -0.4126  0.7865
   27MOL    C9514707   6.702   5.796   1.204  0.3855 -0.2626  0.4964
   27MOL    C9614708   6.720   5.869   1.320  0.1965  0.0400  0.7229
   27MOL    C9714709   6.839   5.952   1.348  0.3861  0.4511  0.1711
   27MOL    C9814710   6.863   6.026   1.473 -0.2795 -0.2605  0.4238
   27MOL    O9914711   6.972   6.084   1.483  0.1177 -0.5922 -0.4797
   27MOL   C10014712   6.929   5.964   1.241 -0.1508 -0.7198  0.3433
   27MOL   C10114713   6.906   5.893   1.121  0.1167  0.2156 -0.6872
   27MOL   H10214714   6.511   5.313   0.535  0.2768 -1.5874  0.5657
   27MOL   H10314715   6.649   5.282   0.654  0.8799 -0.8403 -0.8826
   27MOL   H10414716   6.411   5.376   0.726  0.5538  0.0672  0.5310
   27MOL   H10514717   6.459   5.522   0.650 -0.5979 -0.3560 -0.1256
   27MOL   H10614718   6.494   5.499   0.909 -1.8114 -0.3810 -0.8439
   27MOL   H10714719   6.625   5.396   0.878  0.0458  1.8671  1.4578
   27MOL   H10814720   6.752   5.561   0.784 -0.1905 -1.3505 -0.9937
   27MOL   H10914721   6.617   5.677   0.766 -0.5050 -0.4044  0.2328
   27MOL   H11014722   6.617   5.730   1.198 -0.0361  0.5025 -2.6432
   27MOL   H11114723   6.650   5.860   1.401  0.1991  1.9173  0.9639
   27MOL   H11214724   7.003   6.041   1.253  0.7752 -1.8510  2.1217
   27MOL   H11314725   6.966   5.911   1.033  0.3748 -1.3328 -0.8396
   27MOL   O11414726   6.766   5.997   1.562 -0.1490  0.3942 -0.3858
   27MOL   C11514727   6.769   6.062   1.690 -0.3115 -0.7985 -0.4412
   27MOL   C11614728   6.865   5.993   1.782  0.1370 -1.1120 -0.2867
   27MOL   C11714729   6.867   6.052   1.925 -0.2597  0.3841 -0.3019
   27MOL   C11814730   6.996   6.011   1.995  0.3906 -0.0464  1.1775
   27MOL   O11914731   6.993   5.881   2.046 -0.1553 -0.3458  0.3720
   27MOL   C12014732   6.925   5.857   2.160  0.3469 -0.6689  0.4449
   27MOL   O12114733   6.872   5.950   2.226 -0.0727  0.0044  0.1296
   27MOL   C12214734   6.928   5.716   2.207  0.1609  0.3663  0.7830
   27MOL   C12314735   6.964   5.611   2.119 -0.2264  0.3136  0.3493
   27MOL   C12414736   6.961   5.473   2.154 -0.5182 -1.1831 -0.4899
   27MOL   C12514737   6.917   5.437   2.286 -0.0203 -0.6800 -1.2309
   27MOL   C12614738   6.922   5.295   2.329  0.3579  0.2210 -0.1001
   27MOL   O12714739   6.986   5.218   2.269  0.4812  0.3547  0.0295
   27MOL   C12814740   6.879   5.543   2.375  0.0747 -0.4462 -0.5388
   27MOL   C12914741   6.880   5.684   2.336  0.0102 -0.0677  0.1983
   27MOL   H13014742   6.783   6.170   1.689 -0.1150 -0.8284 -1.2954
   27MOL   H13114743   6.674   6.042   1.739  0.6017 -1.6832  1.0408
   27MOL   H13214744   6.961   5.996   1.731  1.1856 -0.6338  1.6698
   27MOL   H13314745   6.835   5.889   1.791 -0.2236 -1.0138 -0.3348
   27MOL   H13414746   6.854   6.160   1.921 -1.1574  0.3470  1.0537
   27MOL   H13514747   6.774   6.028   1.977  0.8082 -1.3809  0.8521
   27MOL   H13614748   7.064   6.014   1.910  1.4005  1.5715  2.0320
   27MOL   H13714749   7.035   6.088   2.061  0.9448 -1.3889  2.4382
   27MOL   H13814750   7.012   5.639   2.026 -0.1874  0.1812  0.3298
   27MOL   H13914751   7.005   5.402   2.085 -0.5162 -0.0601 -1.6771
   27MOL   H14014752   6.839   5.518   2.472  0.8926  1.5828  0.3440
   27MOL   H14114753   6.842   5.760   2.402 -0.8519  0.0157 -0.3826
   27MOL   O14214754   6.847   5.254   2.432 -0.7282  0.7087 -0.4801
   27MOL   C14314755   6.840   5.122   2.478 -0.1613 -0.5091  0.4153
   27MOL   C14414756   6.719   5.095   2.565  0.9102  0.0982  0.5082
   27MOL   C14514757   6.720   5.182   2.691 -0.1125 -0.3105 -0.7243
   27MOL   C14614758   6.604   5.151   2.782 -0.0818 -0.0295 -0.9111
   27MOL   O14714759   6.563   5.269   2.850 -0.3144 -0.0431 -0.0942
   27MOL   C14814760   6.537   5.255   2.988 -0.1010  0.3608  0.1385
   27MOL   O14914761   6.543   5.148   3.050  0.1368 -0.4732 -0.2592
   27MOL   C15014762   6.516   5.387   3.050  0.2357 -0.0887 -0.0781
   27MOL   C15114763   6.411   5.399   3.146  0.2021  0.8142  0.6838
   27MOL   C15214764   6.396   5.520   3.208  0.7719  0.5463  0.0282
   27MOL   C15314765   6.470   5.635   3.168  0.4720 -0.2878  0.0649
   27MOL   C15414766   6.442   5.763   3.234 -0.3337  0.6578 -0.9045
   27MOL   O15514767   6.361   5.774   3.326  0.1710 -0.2607 -0.0810
   27MOL   C15614768   6.573   5.614   3.074 -0.3364  0.2917 -0.8565
   27MOL   C15714769   6.598   5.493   3.012 -0.2448  0.1287 -0.1491
   27MOL   H15814770   6.827   5.058   2.391 -1.9111 -1.8452  1.6339
   27MOL   H15914771   6.933   5.104   2.533  0.7037 -1.5576 -1.3186
   27MOL   H16014772   6.726   4.989   2.590 -0.1523 -0.1577 -0.2585
   27MOL   H16114773   6.632   5.117   2.503  1.7108 -0.4546 -0.8194
   27MOL   H16214774   6.809   5.146   2.743 -0.6536 -1.5905 -0.6411
   27MOL   H16314775   6.736   5.288   2.676 -2.6884  0.4434  1.5194
   27MOL   H16414776   6.516   5.127   2.723 -2.0106 -0.7403  2.1306
   27MOL   H16514777   6.626   5.069   2.851  0.3752  1.4820  0.7849
   27MOL   H16614778   6.348   5.318   3.179  1.0471 -0.4504 -0.7458
   27MOL   H16714779   6.320   5.526   3.284  1.4495 -0.7269  0.8352
   27MOL   H16814780   6.647   5.691   3.057  0.2489  0.1419  0.9845
   27MOL   H16914781   6.683   5.493   2.945  0.7300  0.8756  1.0727
   27MOL   O17014782   6.519   5.872   3.192 -0.0371 -0.6249  0.6695
   27MOL   C17114783   6.498   5.997   3.255 -0.3939 -0.3455 -0.1140
   27MOL   C17214784   6.585   6.116   3.207  0.3651 -0.1952 -0.1580
   27MOL   C17314785   6.582   6.137   3.055  0.4366 -0.0090 -0.1894
   27MOL   C17414786   6.442   6.169   3.001 -0.3238  0.6874  0.1558
   27MOL   O17514787   6.395   6.057   2.925 -0.3877  0.3546 -0.2667
   27MOL   C17614788   6.263   6.048   2.906  0.7730  0.6027 -0.5320
   27MOL   O17714789   6.177   6.135   2.914  0.0880 -0.3317 -0.6248
   27MOL   C17814790   6.240   5.906   2.862 -0.1302 -0.0782 -0.2594
   27MOL   C17914791   6.328   5.800   2.893  0.0275  0.1013  0.6724
   27MOL   C18014792   6.291   5.673   2.850  0.5402 -0.3324 -0.4074
   27MOL   C18114793   6.175   5.647   2.779 -0.4514 -0.5264 -0.5388
   27MOL   C18214794   6.145   5.507   2.748 -0.1768 -0.6888 -0.4653
   27MOL   O18314795   6.221   5.411   2.781 -0.2523  0.9540  0.6796
   27MOL   C18414796   6.075   5.751   2.771 -0.6500 -0.2364  0.3792
   27MOL   C18514797   6.115   5.878   2.800  0.1133  0.2495 -0.5857
   27MOL   H18614798   6.392   6.022   3.262 -0.5708 -0.9750 -0.4677
   27MOL   H18714799   6.534   5.991   3.358 -1.2093 -0.6024  0.1605
   27MOL   H18814800   6.686   6.086   3.238 -0.1849 -0.7828  1.0928
   27MOL   H18914801   6.563   6.210   3.257 -0.2511 -0.8851  0.8720
   27MOL   H19014802   6.656   6.213   3.031 -1.1032  1.7389  0.4613
   27MOL   H19114803   6.611   6.046   3.003 -3.6587  0.2502 -3.1870
   27MOL   H19214804   6.376   6.184   3.087 -1.9620 -2.2285 -0.5159
   27MOL   H19314805   6.445   6.260   2.942 -0.8284  1.1091  0.7761
   27MOL   H19414806   6.425   5.828   2.930  1.0743  0.0758 -1.9433
   27MOL   H19514807   6.365   5.595   2.861 -0.4219 -0.8338  3.0136
   27MOL   H19614808   5.975   5.727   2.736 -1.0742  3.4559 -1.2251
   27MOL   H19714809   6.043   5.958   2.791 -1.1042 -0.6763  0.7104
   27MOL   O19814810   6.023   5.492   2.702 -0.1676  0.5008  0.1605
   27MOL   C19914811   5.973   5.363   2.678 -0.6768 -0.6450 -0.2597
   27MOL   C20014812   5.851   5.371   2.581  0.1495  0.6910  0.0816
   27MOL   C20114813   5.876   5.415   2.436 -0.0904 -0.6229 -0.9174
   27MOL   C20214814   5.767   5.349   2.340  0.0464  0.1073 -0.1976
   27MOL   O20314815   5.639   5.389   2.375  0.2770 -0.6032 -0.0554
   27MOL   C20414816   5.534   5.349   2.293 -0.8673  0.2291  0.3705
   27MOL   O20514817   5.562   5.285   2.194  0.2718  0.2450 -0.2045
   27MOL   C20614818   5.395   5.397   2.340  0.5695 -0.3842  0.1893
   27MOL   C20714819   5.379   5.498   2.438 -0.4042 -0.5757 -0.0902
   27MOL   C20814820   5.250   5.538   2.485 -0.1377  0.0427  0.1719
   27MOL   C20914821   5.138   5.491   2.421  0.2061 -0.0595  0.0101
   27MOL   C21014822   5.001   5.541   2.457 -0.4527 -0.5273 -0.1830
   27MOL   O21114823   4.901   5.505   2.399  0.4079  0.3759  0.1223
   27MOL   C21214824   5.148   5.399   2.318 -0.5756 -0.2872 -0.3953
   27MOL   C21314825   5.277   5.351   2.277  0.1475 -0.1999  0.0676
   27MOL   H21414826   6.051   5.304   2.629  1.4272 -0.0521  2.2478
   27MOL   H21514827   5.941   5.322   2.774 -1.0530  2.7001  1.1308
   27MOL   H21614828   5.770   5.428   2.625  0.4942 -1.5252  3.8123
   27MOL   H21714829   5.812   5.270   2.582 -0.8936  1.0872 -0.2534
   27MOL   H21814830   5.882   5.523   2.423 -1.2170  0.1362  4.0494
   27MOL   H21914831   5.966   5.359   2.410  1.0404  0.8539 -0.2121
   27MOL   H22014832   5.794   5.375   2.238 -0.4550 -2.1066 -0.9369
   27MOL   H22114833   5.767   5.240   2.338  0.3402  0.1032  0.0468
   27MOL   H22214834   5.466   5.544   2.481 -0.6938 -0.4418  0.3603
   27MOL   H22314835   5.235   5.606   2.567  3.4069 -1.6663  2.3751
   27MOL   H22414836   5.054   5.367   2.276 -1.1096 -0.5609  0.9906
   27MOL   H22514837   5.271   5.271   2.204 -2.4229  0.0279 -0.0332
   27MOL   O22614838   4.995   5.626   2.555 -0.2005 -0.1792 -0.0301
   27MOL   C22714839   4.879   5.705   2.579  0.0240  0.1276 -0.3200
   27MOL   C22814840   4.760   5.630   2.651  0.2553  0.1813  0.7332
   27MOL   C22914841   4.652   5.728   2.691  1.0891  0.6538 -0.4402
   27MOL   C23014842   4.527   5.659   2.763  0.1321 -0.2907  0.1547
   27MOL   O23114843   4.569   5.615   2.887  0.6009  0.2708  0.6953
   27MOL   C23214844   4.489   5.539   2.953 -0.3084  0.9250  0.6135
   27MOL   O23314845   4.384   5.498   2.910  0.4458 -0.0824  0.5004
   27MOL   C23414846   4.544   5.492   3.086 -0.0891 -0.2112 -0.2821
   27MOL   C23514847   4.456   5.434   3.181 -0.2767  0.7412 -0.0597
   27MOL   C23614848   4.508   5.411   3.308 -0.3838 -0.6236 -0.0398
   27MOL   C23714849   4.644   5.443   3.343  0.4641 -0.3739  0.6711
   27MOL   C23814850   4.688   5.425   3.484 -0.4253  0.5373  1.0111
   27MOL   O23914851   4.803   5.417   3.525 -0.0051  0.8043  0.4887
   27MOL   C24014852   4.736   5.481   3.242  0.0758  0.8628 -0.5265
   27MOL   C24114853   4.682   5.509   3.113  0.4331 -0.2472 -0.5167
   27MOL   H24214854   4.907   5.780   2.654 -0.3167  0.3994 -0.4650
   27MOL   H24314855   4.842   5.752   2.488 -0.7809 -1.8963 -1.0617
   27MOL   H24414856   4.799   5.577   2.739  2.2091  0.7899  0.2374
   27MOL   H24514857   4.711   5.559   2.584  0.8774  0.8036 -0.3701
   27MOL   H24614858   4.697   5.816   2.738  2.4862  1.6975 -3.5695
   27MOL   H24714859   4.607   5.771   2.602 -2.4244  0.5239  1.1838
   27MOL   H24814860   4.440   5.724   2.765  0.6762  0.4445  0.2456
   27MOL   H24914861   4.500   5.570   2.706 -1.0447 -0.8859  1.6212
   27MOL   H25014862   4.350   5.423   3.165 -0.1137 -1.1211  0.0673
   27MOL   H25114863   4.442   5.369   3.383  2.6159 -3.1237  1.3156
   27MOL   H25214864   4.834   5.516   3.270 -0.8931  2.6684  0.7774
   27MOL   H25314865   4.753   5.553   3.044  1.3955  2.4415  2.0749
   27MOL   O25414866   4.573   5.412   3.566  0.5903  0.3309 -0.3388
   27MOL   C25514867   4.588   5.366   3.699  0.1276 -0.4076 -0.2944
   27MOL   C25614868   4.626   5.218   3.717 -0.0752  0.0132 -0.0466
   27MOL   C25714869   4.537   5.164   3.825  0.1089 -0.4462  0.1340
   27MOL   C25814870   4.577   5.018   3.844 -0.3618  0.4512 -0.4409
   27MOL   O25914871   4.703   5.006   3.913 -0.2936 -0.1873 -0.2791
   27MOL   C26014872   4.724   4.930   4.028  0.3034  0.5884  0.3288
   27MOL   O26114873   4.632   4.862   4.071  0.6447 -0.2819 -0.0672
   27MOL   C26214874   4.858   4.946   4.096  0.2441  0.1875  0.2125
   27MOL   C26314875   4.886   4.861   4.202  0.2802  0.2697 -0.7561
   27MOL   C26414876   5.001   4.878   4.279 -0.6022 -0.4484  0.2708
   27MOL   C26514877   5.100   4.973   4.238 -0.0998  0.2270 -0.0779
   27MOL   C26614878   5.230   4.989   4.311  0.1046 -0.1194 -1.0322
   27MOL   O26714879   5.303   5.083   4.292  0.2637 -0.6800  0.8628
   27MOL   C26814880   5.071   5.062   4.131  0.6146 -0.6322  0.5765
   27MOL   C26914881   4.950   5.045   4.063  0.2536 -0.1443 -0.1402
   27MOL   H27014882   4.651   5.435   3.755 -0.5981  0.5081 -0.5924
   27MOL   H27114883   4.488   5.393   3.732  0.7482  0.0218  1.2588
   27MOL   H27214884   4.733   5.206   3.733  0.0967 -0.2383 -1.2659
   27MOL   H27314885   4.615   5.157   3.627 -1.4419  1.2836 -0.7661
   27MOL   H27414886   4.564   5.203   3.923 -1.9689 -0.5632  0.7837
   27MOL   H27514887   4.431   5.185   3.807  0.3873  2.3370  1.6310
   27MOL   H27614888   4.495   4.965   3.892 -0.6940 -0.0039 -1.5058
   27MOL   H27714889   4.575   4.974   3.744  0.7196 -0.0623 -0.2496
   27MOL   H27814890   4.814   4.787   4.232  0.4297 -0.5792 -2.4144
   27MOL   H27914891   5.013   4.820   4.369  0.5590  0.4899  0.7414
   27MOL   H28014892   5.138   5.140   4.097  1.0854 -0.7298  1.2698
   27MOL   H28114893   4.923   5.103   3.975 -1.6846 -1.9680 -0.7910
   27MOL   O28214894   5.263   4.890   4.394  0.4402  0.2538 -0.3571
   27MOL   C28314895   5.379   4.900   4.480  0.5025 -0.4952  0.2328
   27MOL   C28414896   5.358   5.003   4.591  0.2629  0.2341 -0.1891
   27MOL   C28514897   5.237   4.979   4.691  0.2498  0.3791 -0.2134
   27MOL   C28614898   5.223   5.083   4.804  0.0370  0.1067 -0.0684
   27MOL   O28714899   5.206   5.207   4.737  0.0898  0.1711  0.5857
   27MOL   C28814900   5.194   5.317   4.817 -0.5163  0.3872 -0.0105
   27MOL   O28914901   5.230   5.313   4.938  0.1698 -0.0196  0.3433
   27MOL   C29014902   5.154   5.438   4.740 -0.1911 -0.3900 -0.2514
   27MOL   C29114903   5.096   5.548   4.812  1.0287  0.2803  0.0805
   27MOL   C29214904   5.041   5.656   4.739 -0.1313 -0.4787 -0.8481
   27MOL   C29314905   5.044   5.666   4.598 -0.5799  0.3396 -0.2320
   27MOL   C29414906   4.963   5.770   4.523 -0.4043 -0.8486  0.5283
   27MOL   O29514907   4.899   5.861   4.580  0.6694 -0.0323  0.0395
   27MOL   C29614908   5.117   5.568   4.529  0.3032 -0.2343 -0.7145
   27MOL   C29714909   5.162   5.451   4.599  1.2908 -1.3842  0.1462
   27MOL   H29814910   5.387   4.805   4.534  3.0247  1.2650  3.1418
   27MOL   H29914911   5.474   4.916   4.429 -0.1959  1.2630 -0.5710
   27MOL   H30014912   5.323   5.092   4.539 -1.3272 -0.2839 -0.0326
   27MOL   H30114913   5.446   5.011   4.655  0.8404 -3.1615 -0.4524
   27MOL   H30214914   5.146   4.953   4.636 -0.4033  0.0970  0.9827
   27MOL   H30314915   5.244   4.888   4.751 -1.0539 -0.0282 -0.6546
   27MOL   H30414916   5.132   5.067   4.863  0.0630 -1.6956 -0.4905
   27MOL   H30514917   5.312   5.085   4.866 -0.8455  0.2343  1.2178
   27MOL   H30614918   5.087   5.548   4.920 -0.9301  0.4058 -0.0716
   27MOL   H30714919   4.999   5.743   4.787  2.2635 -0.9630  2.2831
   27MOL   H30814920   5.118   5.568   4.421 -0.0746 -0.8438 -0.7186
   27MOL   H30914921   5.197   5.366   4.544  0.7255 -0.3232 -1.9035
   27MOL   O31014922   4.948   5.744   4.391 -0.1234 -0.1745  0.2264
   27MOL   C31114923   4.881   5.836   4.303  0.0930 -0.2949  0.7013
   27MOL   C31214924   4.756   5.768   4.253 -0.1772  0.6406 -0.2675
   27MOL   C31314925   4.676   5.689   4.352 -0.3293 -0.3575 -0.7779
   27MOL   C31414926   4.549   5.635   4.292 -0.0284 -0.2188 -0.3508
   27MOL   O31514927   4.451   5.733   4.281  0.4768  0.7749 -0.7146
   27MOL   C31614928   4.327   5.695   4.267 -0.4346  0.3349 -0.3751
   27MOL   O31714929   4.290   5.578   4.263 -0.1088 -0.2604  0.2857
   27MOL   C31814930   4.241   5.810   4.249  0.3449 -0.1104 -0.9035
   27MOL   C31914931   4.106   5.788   4.210 -0.4124  0.1885 -0.4192
   27MOL   C32014932   4.017   5.902   4.198 -0.1790  0.0168 -0.3166
   27MOL   C32114933   4.067   6.037   4.224  0.3319  0.0865  0.9337
   27MOL   C32214934   3.980   6.154   4.179 -0.9815  0.2737 -0.2614
   27MOL   O32314935   4.026   6.266   4.153  0.1106 -0.6735  0.5197
   27MOL   C32414936   4.200   6.057   4.266  0.0088 -0.8782 -0.3377
   27MOL   C32514937   4.288   5.945   4.275  0.0605 -0.2430  0.3940
   27MOL   H32614938   4.859   5.926   4.359 -1.5832 -0.1403 -0.1651
   27MOL   H32714939   4.946   5.866   4.221 -1.2766  0.2312 -0.2085
   27MOL   H32814940   4.785   5.693   4.180  0.9830  0.5706  0.2529
   27MOL   H32914941   4.685   5.837   4.207 -1.3565 -0.3444  0.0526
   27MOL   H33014942   4.742   5.603   4.369  2.8213  1.6657 -2.3919
   27MOL   H33114943   4.655   5.744   4.444 -0.5848 -2.1335  0.2497
   27MOL   H33214944   4.566   5.577   4.202  1.6066  0.7903 -0.7117
   27MOL   H33314945   4.515   5.554   4.358 -0.7161  0.8584  0.6358
   27MOL   H33414946   4.071   5.689   4.187  2.0316 -0.2269 -2.5112
   27MOL   H33514947   3.921   5.886   4.151  1.1348 -0.8966 -2.7894
   27MOL   H33614948   4.234   6.159   4.276  0.7711 -1.1734  0.0344
   27MOL   H33714949   4.389   5.968   4.305 -0.8828  2.4582  1.6197
   27MOL   O33814950   3.846   6.119   4.163 -0.4349  0.2038  0.1328
   27MOL   C33914951   3.749   6.211   4.116 -0.8456  0.9352  0.2940
   27MOL   C34014952   3.610   6.210   4.183 -0.8867 -0.6175 -0.5391
   27MOL   C34114953   3.542   6.074   4.193  0.3837  0.0983  0.3561
   27MOL   C34214954   3.402   6.064   4.254 -0.0627  0.3731  0.2775
   27MOL   O34314955   3.394   6.093   4.390  0.0072  0.1345 -0.0152
   27MOL   C34414956   3.301   6.029   4.468 -0.8693 -0.3279 -0.0245
   27MOL   O34514957   3.240   5.926   4.432  0.2520 -0.0846 -0.2729
   27MOL   C34614958   3.286   6.082   4.599  0.2479  0.1235 -0.1492
   27MOL   C34714959   3.204   6.006   4.684  0.9186 -0.0548 -0.7075
   27MOL   C34814960   3.175   6.066   4.811  0.3655  0.3857 -0.0408
   27MOL   C34914961   3.212   6.192   4.843 -0.3613  0.3111  0.3921
   27MOL   C35014962   3.169   6.257   4.973  0.6914 -0.4170  0.1944
   27MOL   O35114963   3.187   6.376   5.003  0.5039 -0.6087  0.1306
   27MOL   C35214964   3.290   6.263   4.756 -0.4820 -0.4443 -0.3103
   27MOL   C35314965   3.334   6.210   4.632  0.3464 -0.4471  0.0147
   27MOL   H35414966   3.792   6.310   4.129  0.5829  0.0107  2.9112
   27MOL   H35514967   3.741   6.188   4.009  0.4464 -1.5461  0.6965
   27MOL   H35614968   3.543   6.279   4.131  2.1670  3.8593  1.1454
   27MOL   H35714969   3.610   6.251   4.284  2.9375  1.9576 -1.4813
   27MOL   H35814970   3.520   6.021   4.100  0.2443  0.3547  0.2429
   27MOL   H35914971   3.612   6.007   4.243  1.0825 -0.6644 -1.5862
   27MOL   H36014972   3.331   6.119   4.192  0.4190 -1.9675 -2.4817
   27MOL   H36114973   3.373   5.960   4.236  0.5075  0.0717  1.1009
   27MOL   H36214974   3.182   5.904   4.659 -1.0386  0.2685 -0.3854
   27MOL   H36314975   3.132   6.001   4.886  0.1059  0.1214 -0.4170
   27MOL   H36414976   3.312   6.362   4.792 -1.8410  0.1929 -1.1999
   27MOL   H36514977   3.386   6.268   4.558 -3.1122  0.8876 -1.4770
   27MOL   O36614978   3.092   6.169   5.047 -0.4265  0.5897  0.3085
   27MOL   C36714979   3.051   6.203   5.182  0.3400 -0.0690 -0.9609
   27MOL   C36814980   2.940   6.312   5.189  0.9731 -0.9505  0.9095
   27MOL   C36914981   2.812   6.286   5.115 -0.0038  0.1044 -1.1754
   27MOL   C37014982   2.811   6.295   4.961 -0.3552  0.1490  0.4697
   27MOL   O37114983   2.676   6.281   4.928 -0.0714  0.9124  0.0730
   27MOL   C37214984   2.653   6.278   4.786  0.6011  0.7308 -0.2725
   27MOL   O37314985   2.744   6.263   4.703 -0.0702  0.1067  0.5207
   27MOL   C37414986   2.504   6.294   4.752 -0.0314  0.8518 -0.0687
   27MOL   C37514987   2.473   6.286   4.616 -0.2368 -0.6602 -0.5757
   27MOL   C37614988   2.338   6.307   4.569 -0.2089 -0.0751 -0.5491
   27MOL   C37714989   2.227   6.319   4.660 -0.2586  0.5042  0.2084
   27MOL   C37814990   2.085   6.324   4.621 -0.1579 -0.2316  0.4067
   27MOL   O37914991   1.993   6.301   4.693  0.4622  0.0329 -0.9859
   27MOL   C38014992   2.256   6.309   4.798 -0.0829  0.6023 -0.6866
   27MOL   C38114993   2.393   6.301   4.841 -0.2233 -0.2231  0.6038
   27MOL   H38214994   3.010   6.111   5.223  1.2966  0.3026  0.9212
   27MOL   H38314995   3.127   6.239   5.251 -1.4154  3.3741 -0.7200
   27MOL   H38414996   2.988   6.407   5.166 -1.2036  0.0190  0.2697
   27MOL   H38514997   2.914   6.321   5.294 -2.9110  1.4166 -0.1716
   27MOL   H38614998   2.775   6.191   5.155  3.1915  0.4489  3.0170
   27MOL   H38714999   2.741   6.359   5.154  2.2320  2.2569 -1.0415
   27MOL   H38815000   2.835   6.396   4.929  1.0566  0.5908  2.8048
   27MOL   H38915001   2.875   6.219   4.914 -2.1241  0.6393 -2.8611
   27MOL   H39015002   2.547   6.262   4.541  2.3939  1.9394  1.0531
   27MOL   H39115003   2.316   6.300   4.464 -0.8500 -0.4763 -0.3917
   27MOL   H39215004   2.178   6.310   4.872 -0.7416  0.1477 -1.3765
   27MOL   H39315005   2.423   6.295   4.945  2.2910  0.8599 -0.0097
   27MOL   O39415006   2.066   6.358   4.489 -0.5641 -0.2914 -0.0295
   27MOL   C39515007   1.942   6.377   4.430  0.1628 -0.5430 -0.3036
   27MOL   C39615008   1.941   6.517   4.374 -0.1197  0.6428  0.1552
   27MOL   C39715009   1.828   6.550   4.278 -0.1900 -0.0126  0.5024
   27MOL   C39815010   1.826   6.700   4.242 -0.0713  0.6343 -0.5938
   27MOL   O39915011   1.934   6.739   4.161 -0.1073 -0.4192  0.0790
   27MOL   C40015012   1.915   6.803   4.049  0.0812 -0.0151  0.5718
   27MOL   O40115013   1.802   6.823   4.007  0.1896  0.2831  0.1598
   27MOL   C40215014   2.045   6.843   3.982 -0.2026  0.3260  0.2730
   27MOL   C40315015   2.168   6.804   4.029  0.0094  0.5560 -0.6768
   27MOL   C40415016   2.285   6.862   3.975  0.3203 -0.8245 -0.4954
   27MOL   C40515017   2.278   6.948   3.859 -0.2450  0.0862 -0.7235
   27MOL   C40615018   2.401   7.012   3.796 -0.2014  0.1690 -0.4223
   27MOL   O40715019   2.392   7.108   3.722 -0.2856  0.6980  0.2614
   27MOL   C40815020   2.149   6.985   3.809  0.1628  0.6733  0.5744
   27MOL   C40915021   2.032   6.930   3.875  0.0920 -0.5170 -0.1044
   27MOL   H41015022   1.911   6.300   4.359 -1.4866  0.0629 -0.2603
   27MOL   H41115023   1.862   6.378   4.504 -0.7670 -1.0054 -1.2799
   27MOL   H41215024   2.038   6.538   4.329 -0.4529 -0.9889 -1.3945
   27MOL   H41315025   1.928   6.576   4.464 -0.2293  0.1527  0.4623
   27MOL   H41415026   1.834   6.494   4.185  3.4325  2.0840 -0.6534
   27MOL   H41515027   1.735   6.523   4.327 -0.8715 -1.4250 -1.5186
   27MOL   H41615028   1.731   6.713   4.189 -0.4738  0.1561  0.0093
   27MOL   H41715029   1.820   6.755   4.336  1.3793 -1.3647  0.6937
   27MOL   H41815030   2.185   6.731   4.107 -0.4854  1.7099  0.5196
   27MOL   H41915031   2.380   6.847   4.024 -0.2188 -0.5833  0.6214
   27MOL   H42015032   2.141   7.049   3.722  2.7738  1.1550  0.6461
   27MOL   H42115033   1.931   6.951   3.844 -0.2803 -2.6033 -0.3874
   27MOL   O42215034   2.511   6.960   3.843  0.4042 -0.2119  0.5757
   27MOL   C42315035   2.627   6.968   3.761  0.2621  0.1820 -0.3189
   27MOL   C42415036   2.740   6.893   3.832  0.5740 -0.3678 -0.1665
   27MOL   C42515037   2.783   6.950   3.968  0.4465  0.4816 -0.1633
   27MOL   C42615038   2.919   6.902   4.007  0.1503  0.1493  0.3521
   27MOL   O42715039   2.945   6.963   4.135 -0.6163 -0.4278 -0.5904
   27MOL   C42815040   3.019   7.076   4.140 -0.8861  0.3010  0.0069
   27MOL   O42915041   3.073   7.131   4.046 -0.6417 -0.3315 -0.0097
   27MOL   C43015042   3.020   7.132   4.276  0.0278 -0.2903 -0.0683
   27MOL   C43115043   2.987   7.055   4.391 -0.2649  0.1113  0.7234
   27MOL   C43215044   2.991   7.121   4.521 -0.4254  0.5427 -0.1472
   27MOL   C43315045   3.029   7.257   4.530  0.1283  0.2439  0.5655
   27MOL   C43415046   3.043   7.324   4.664  0.6971  0.1041  0.3233
   27MOL   O43515047   3.107   7.427   4.689 -0.2545  1.0329  0.0429
   27MOL   C43615048   3.067   7.326   4.416  0.4196  0.0731  0.5878
   27MOL   C43715049   3.062   7.264   4.290 -0.3626  0.1059  0.5036
   27MOL   H43815050   2.602   6.925   3.663  1.7388  0.8371 -0.9987
   27MOL   H43915051   2.651   7.070   3.730  1.8219 -0.8733 -2.7224
   27MOL   H44015052   2.825   6.881   3.765  0.3159  0.3859 -0.6405
   27MOL   H44115053   2.716   6.788   3.849 -0.9817 -0.2075 -1.3226
   27MOL   H44215054   2.782   7.059   3.959 -0.8819  0.5895  1.0517
   27MOL   H44315055   2.706   6.921   4.040 -0.8339 -0.1990 -1.7912
   27MOL   H44415056   2.915   6.794   4.013 -0.7812  0.2016  0.8096
   27MOL   H44515057   2.986   6.934   3.927 -1.6392 -1.2675 -1.7551
   27MOL   H44615058   2.960   6.950   4.397  1.3682 -0.2680  1.7500
   27MOL   H44715059   2.959   7.063   4.606  1.8553  0.3909  0.6396
   27MOL   H44815060   3.097   7.427   4.437 -0.2105  0.4103 -0.1138
   27MOL   H44915061   3.077   7.327   4.204 -1.2805 -0.6494 -0.2278
   27MOL   O45015062   3.001   7.240   4.761  0.2745  0.5529 -0.3455
   27MOL   C45115063   3.027   7.263   4.900 -0.2026 -0.1252  0.1391
   27MOL   C45215064   3.037   7.136   4.983  0.0584  0.6674 -0.0437
   27MOL   C45315065   3.001   7.150   5.131 -0.4001  0.5102 -0.4626
   27MOL   C45415066   3.033   7.023   5.211  0.1936  0.4484  0.0802
   27MOL   O45515067   2.976   7.028   5.336  0.6245 -0.2239  0.3961
   27MOL   C45615068   2.847   6.998   5.353  0.3831 -0.3151 -0.4282
   27MOL   O45715069   2.766   6.964   5.266 -0.1764 -0.1705 -0.8406
   27MOL   C45815070   2.805   7.030   5.491  0.5066  0.9651  0.8113
   27MOL   C45915071   2.892   7.056   5.601 -0.3703  0.4445  0.0195
   27MOL   C46015072   2.848   7.093   5.729 -0.3946 -0.0327 -0.2650
   27MOL   C46115073   2.711   7.111   5.755  0.4249 -0.3035  1.0163
   27MOL   C46215074   2.665   7.151   5.889  0.1085  0.0792 -0.5898
   27MOL   O46315075   2.560   7.205   5.910 -0.4383  0.3945  0.0967
   27MOL   C46415076   2.616   7.082   5.650  0.3986 -0.1775  0.1715
   27MOL   C46515077   2.667   7.042   5.524 -0.3757  0.1834  1.0047
   27MOL   H46615078   3.114   7.327   4.915 -0.1014 -0.1359 -0.3933
   27MOL   H46715079   2.940   7.321   4.931 -0.3167 -1.2730  2.0199
   27MOL   H46815080   3.141   7.104   4.978 -0.0132  0.3949  0.2315
   27MOL   H46915081   2.968   7.060   4.946  2.4212 -1.9767  0.8317
   27MOL   H47015082   3.046   7.230   5.190 -0.7888  0.0995  0.4126
   27MOL   H47115083   2.893   7.164   5.128 -0.5812 -0.2695  1.6550
   27MOL   H47215084   2.997   6.937   5.154  1.4808 -0.6440  0.8672
   27MOL   H47315085   3.142   7.014   5.218  0.2626  1.0455 -0.2247
   27MOL   H47415086   2.996   7.028   5.591 -0.6901 -0.7479  0.0290
   27MOL   H47515087   2.930   7.105   5.798 -2.1789  1.3777  1.6198
   27MOL   H47615088   2.513   7.097   5.678  1.0397  4.1874  0.5273
   27MOL   H47715089   2.583   7.038   5.455  0.5869  0.8778 -0.2275
   27MOL   O47815090   2.745   7.100   5.984 -0.0777 -0.4439 -0.1261
   27MOL   C47915091   2.696   7.083   6.121  0.0307  1.0265 -0.5557
   27MOL   C48015092   2.720   6.931   6.154 -0.6238 -0.5063  0.9112
   27MOL   C48115093   2.619   6.873   6.260 -0.0539  0.9054  0.7587
   27MOL   C48215094   2.642   6.723   6.295  0.2409 -0.0669  0.3396
   27MOL   O48315095   2.616   6.637   6.180  0.1308  0.6666 -0.4673
   27MOL   C48415096   2.679   6.511   6.187 -0.1196  0.0722  0.1249
   27MOL   O48515097   2.750   6.465   6.282 -0.6178  0.7112 -0.7984
   27MOL   C48615098   2.684   6.454   6.051  0.6842 -0.0167  0.3465
   27MOL   C48715099   2.793   6.371   6.014  0.6277  0.1501 -0.5291
   27MOL   C48815100   2.807   6.309   5.889 -0.2410  0.2764 -0.0100
   27MOL   C48915101   2.703   6.328   5.795  0.1276  0.3207 -0.1580
   27MOL   C49015102   2.707   6.273   5.657 -0.0051  0.1241 -0.4647
   27MOL   O49115103   2.793   6.189   5.625  0.1604  0.4220  0.3530
   27MOL   C49215104   2.591   6.409   5.832 -0.1105 -0.0146  0.4855
   27MOL   C49315105   2.576   6.471   5.954  0.2214  0.4718 -1.0131
   27MOL   H49415106   2.749   7.147   6.193  0.5709  1.8912 -1.6975
   27MOL   H49515107   2.591   7.111   6.130 -0.6440 -0.9574 -2.0566
   27MOL   H49615108   2.824   6.919   6.186 -1.1525 -1.7038  2.2424
   27MOL   H49715109   2.705   6.872   6.064 -1.5908  3.8062 -1.8992
   27MOL   H49815110   2.624   6.935   6.350 -0.0692  3.0280 -0.6622
   27MOL   H49915111   2.514   6.881   6.232  0.1369  0.6998 -0.0220
   27MOL   H50015112   2.743   6.712   6.335  0.8182  0.2723 -1.0112
   27MOL   H50115113   2.581   6.679   6.374  1.0183 -0.1300  0.9197
   27MOL   H50215114   2.863   6.364   6.096 -0.0167 -0.5394 -0.0268
   27MOL   H50315115   2.891   6.243   5.874 -0.5648 -0.7951  2.5735
   27MOL   H50415116   2.517   6.429   5.756  0.2018 -1.1093 -0.1133
   27MOL   H50515117   2.495   6.538   5.978 -2.3863 -3.2124  1.0934
   27MOL   O50615118   2.614   6.330   5.583  0.9785  0.0375  0.8374
   27MOL   C50715119   2.627   6.319   5.444 -0.1416  0.0416 -0.1030
   27MOL   C50815120   2.492   6.314   5.380 -0.5772 -0.2636  0.3684
   27MOL   C50915121   2.422   6.184   5.395 -0.2331 -0.5249  0.3546
   27MOL   C51015122   2.273   6.198   5.356 -1.1117 -0.0744 -0.6974
   27MOL   O51115123   2.213   6.075   5.398  0.8629 -0.2040 -0.1266
   27MOL   C51215124   2.075   6.071   5.400  0.2526  0.0587  0.8848
   27MOL   O51315125   2.008   6.164   5.349 -0.3825 -0.0341 -0.0867
   27MOL   C51415126   2.020   5.946   5.460 -0.3300  0.2996  0.2232
   27MOL   C51515127   1.881   5.934   5.464 -0.7046  0.1000 -0.0308
   27MOL   C51615128   1.824   5.816   5.514  0.1064 -0.9695 -0.3617
   27MOL   C51715129   1.903   5.706   5.546  0.4200 -0.0398 -0.1452
   27MOL   C51815130   1.840   5.579   5.581 -0.3068  0.0111 -0.2396
   27MOL   O51915131   1.901   5.472   5.578 -0.1881 -0.4738 -0.1653
   27MOL   C52015132   2.048   5.726   5.543 -0.0662  0.5255  1.4580
   27MOL   C52115133   2.104   5.847   5.499  0.8594  0.0739 -0.0235
   27MOL   H52215134   2.674   6.411   5.408 -0.8372  0.8261  0.9761
   27MOL   H52315135   2.691   6.236   5.414  1.5572  1.4533 -0.5669
   27MOL   H52415136   2.496   6.337   5.273  2.2436  1.2687  0.7610
   27MOL   H52515137   2.429   6.392   5.422 -1.0962  0.2196 -1.2465
   27MOL   H52615138   2.474   6.108   5.338  0.6404  0.4353 -0.1476
   27MOL   H52715139   2.425   6.142   5.496 -0.5389  1.4555  1.2274
   27MOL   H52815140   2.237   6.281   5.416  1.8003  0.1561  0.8163
   27MOL   H52915141   2.263   6.217   5.249  0.3801  1.6401 -0.5597
   27MOL   H53015142   1.809   6.013   5.446  0.2090  1.1717  1.0411
   27MOL   H53115143   1.717   5.812   5.520 -0.0764  3.6502  0.8360
   27MOL   H53215144   2.103   5.646   5.591 -0.9229 -2.4152 -2.2155
   27MOL   H53315145   2.211   5.849   5.513  0.7327 -2.0518  1.6831
   27MOL   O53415146   1.699   5.589   5.618 -0.1709  0.1971 -0.4635
   27MOL   C53515147   1.627   5.467   5.650  0.5411 -0.1860 -0.4250
   27MOL   C53615148   1.670   5.410   5.781 -0.0201 -0.2551 -0.3023
   27MOL   C53715149   1.584   5.297   5.836 -0.5250 -0.1734  0.6441
   27MOL   C53815150   1.589   5.173   5.752  0.0423 -0.1779  0.1066
   27MOL   O53915151   1.721   5.120   5.772 -1.3260 -0.6409 -0.0908
   27MOL   C54015152   1.732   4.982   5.765  0.3330 -0.1782 -0.1168
   27MOL   O54115153   1.638   4.895   5.762 -0.6987  0.5016 -0.5612
   27MOL   C54215154   1.876   4.944   5.763 -0.4173  0.4281  0.0687
   27MOL   C54315155   1.985   5.031   5.799 -0.2270  0.0941  0.1500
   27MOL   C54415156   2.116   4.994   5.795  0.5441 -0.4508 -0.9905
   27MOL   C54515157   2.153   4.874   5.732 -0.3533 -0.7130  0.4216
   27MOL   C54615158   2.293   4.834   5.721  0.2460 -0.3194 -0.8213
   27MOL   O54715159   2.341   4.724   5.715 -0.0348  0.3788 -0.5434
   27MOL   C54815160   2.047   4.783   5.694 -0.6651  0.1170 -0.5294
   27MOL   C54915161   1.911   4.813   5.708  0.1913 -0.2434  0.1033
   27MOL   H55015162   1.523   5.499   5.654 -0.0996 -2.1710 -0.8562
   27MOL   H55115163   1.635   5.398   5.566  0.1557 -0.3704 -0.3121
   27MOL   H55215164   1.667   5.489   5.856 -3.0813  1.0177 -1.6668
   27MOL   H55315165   1.771   5.371   5.788 -0.5614 -1.5664  0.5365
   27MOL   H55415166   1.619   5.278   5.937 -1.7337  3.4315  1.7916
   27MOL   H55515167   1.479   5.326   5.845 -0.3494  1.5491 -2.1306
   27MOL   H55615168   1.523   5.092   5.783 -0.1518 -0.2160 -0.3973
   27MOL   H55715169   1.571   5.196   5.647  0.9202 -0.1838 -0.0506
   27MOL   H55815170   1.960   5.131   5.831 -1.4462 -0.2951  0.4214
   27MOL   H55915171   2.197   5.064   5.807 -1.7807  2.1824 -0.1206
   27MOL   H56015172   2.079   4.689   5.652  3.4802 -0.3572  3.3246
   27MOL   H56115173   1.832   4.743   5.685  1.3283 -2.7731  3.5335
   27MOL   H56215174   2.351   4.926   5.723  0.6762 -0.5923  3.6798
   28MOL     O115175   5.989   0.981   7.145  0.4381  0.6074 -0.0050
   28MOL     C215176   6.030   0.942   7.278 -0.3530  0.2761 -0.6748
   28MOL     C315177   5.975   0.795   7.309  0.0168 -0.8443  0.6263
   28MOL     C415178   5.824   0.789   7.333  0.1630  0.4762  0.1873
   28MOL     C515179   5.752   0.894   7.414  0.5564 -0.6005  0.5184
   28MOL     O615180   5.614   0.863   7.448  0.1156  0.5853 -0.1344
   28MOL     C715181   5.534   0.963   7.496 -0.4439 -0.1486  0.3127
   28MOL     O815182   5.567   1.078   7.533  0.0704  0.3132  0.0534
   28MOL     C915183   5.394   0.920   7.509 -0.1501  0.4783 -0.8208
   28MOL    C1015184   5.360   0.784   7.529 -1.0144  0.8065  0.2602
   28MOL    C1115185   5.224   0.754   7.529  0.0658 -0.8089 -0.4296
   28MOL    C1215186   5.127   0.856   7.535  0.5669 -0.2533  0.0554
   28MOL    C1315187   4.981   0.821   7.572 -0.3047 -1.0098 -0.1300
   28MOL    O1415188   4.954   0.707   7.613  0.7144  0.2250  0.0556
   28MOL    C1515189   5.163   0.990   7.507  0.9780 -0.1272 -0.0070
   28MOL    C1615190   5.301   1.017   7.494  0.3956  0.3383  0.0676
   28MOL    H1715191   6.138   0.951   7.286 -0.5316  0.9555  1.3500
   28MOL    H1815192   5.985   1.017   7.343  0.7419 -0.4534  0.9807
   28MOL    H1915193   6.021   0.765   7.403 -1.3115 -2.4428  0.7907
   28MOL    H2015194   6.012   0.726   7.233  0.0663  1.0943 -1.1462
   28MOL    H2115195   5.772   0.772   7.239 -0.6914  1.6906  0.4276
   28MOL    H2215196   5.800   0.697   7.386  0.3933 -0.2256 -0.9140
   28MOL    H2315197   5.812   0.927   7.498  1.3166  0.7313 -0.5467
   28MOL    H2415198   5.736   0.973   7.342  1.4515  1.2759  2.3270
   28MOL    H2515199   5.437   0.708   7.532  1.2590  2.9299 -1.5106
   28MOL    H2615200   5.190   0.653   7.544 -0.7076 -0.1394  2.6615
   28MOL    H2715201   5.099   1.076   7.517 -0.0321 -0.7796 -0.8294
   28MOL    H2815202   5.331   1.120   7.482  0.1685  0.4967  0.8764
   28MOL    H2915203   5.896   0.967   7.137  0.5100  0.0191  0.2002
   28MOL    O3015204   4.901   0.925   7.575 -0.4094  0.3689  0.7890
   28MOL    C3115205   4.769   0.910   7.608 -0.0366  0.1643  0.4672
   28MOL    C3215206   4.709   1.041   7.654  0.2175  0.0248  0.2186
   28MOL    C3315207   4.768   1.088   7.786  0.4161 -0.0735  0.8700
   28MOL    C3415208   4.675   1.149   7.882 -1.1641 -0.6660 -0.6767
   28MOL    O3515209   4.617   1.260   7.816  0.1082 -0.3599  0.0077
   28MOL    C3615210   4.644   1.395   7.837  0.9453 -0.4933 -0.3529
   28MOL    O3715211   4.710   1.440   7.930  0.2515 -0.1069 -0.0088
   28MOL    C3815212   4.579   1.471   7.721  0.1540 -0.2146 -0.8554
   28MOL    C3915213   4.554   1.415   7.593  0.8070 -0.2534  0.1794
   28MOL    C4015214   4.486   1.487   7.495  0.4707  0.6072  0.0263
   28MOL    C4115215   4.440   1.619   7.526  0.1100 -0.0291 -0.0143
   28MOL    C4215216   4.361   1.691   7.415 -0.0706  0.0076 -0.4005
   28MOL    O4315217   4.310   1.624   7.325  0.3972  0.3206  0.7378
   28MOL    C4415218   4.481   1.683   7.650  0.6750  0.2162 -0.1198
   28MOL    C4515219   4.545   1.605   7.747 -1.0055  0.9226  0.2092
   28MOL    H4615220   4.713   0.878   7.520 -0.0289 -1.5947  1.0731
   28MOL    H4715221   4.744   0.832   7.680  1.0595 -0.7211 -0.0872
   28MOL    H4815222   4.602   1.025   7.668  0.0357  0.2611 -0.8789
   28MOL    H4915223   4.723   1.122   7.582 -1.0635 -0.0659 -0.1477
   28MOL    H5015224   4.813   0.998   7.830  2.0779  0.8743  1.1746
   28MOL    H5115225   4.858   1.146   7.765  1.6040 -1.4809  1.9048
   28MOL    H5215226   4.598   1.077   7.910 -0.8423 -0.3858  0.9594
   28MOL    H5315227   4.718   1.183   7.976 -2.7601  0.0561 -0.2020
   28MOL    H5415228   4.578   1.315   7.560  3.4295  0.4754 -0.2080
   28MOL    H5515229   4.458   1.442   7.400  0.3451 -0.4958  0.5723
   28MOL    H5615230   4.458   1.786   7.669  0.0266  0.2020 -0.8040
   28MOL    H5715231   4.581   1.662   7.831 -0.4575  2.1100 -0.8243
   28MOL    O5815232   4.383   1.823   7.415 -0.1183 -0.1601 -0.0517
   28MOL    C5915233   4.306   1.907   7.328  0.3393  0.7722 -0.0726
   28MOL    C6015234   4.237   2.018   7.413  0.5511 -1.0643 -0.5153
   28MOL    C6115235   4.162   2.131   7.338  0.1660  0.5818 -0.2888
   28MOL    C6215236   4.010   2.108   7.350  0.1902 -0.4173  0.0692
   28MOL    O6315237   3.981   1.968   7.322 -0.1638  0.5810  0.2270
   28MOL    C6415238   3.963   1.931   7.191  0.7231  0.2197  0.4964
   28MOL    O6515239   3.985   1.997   7.091  0.4595 -0.0151  0.3767
   28MOL    C6615240   3.911   1.796   7.184  0.0461 -0.2395 -0.3259
   28MOL    C6715241   3.875   1.719   7.291  0.0201 -0.0921 -0.0323
   28MOL    C6815242   3.829   1.588   7.278  0.3450  0.5726  0.6236
   28MOL    C6915243   3.833   1.527   7.152  0.2897  0.5196 -0.0639
   28MOL    C7015244   3.792   1.382   7.142  0.5806  0.4318  0.0304
   28MOL    O7115245   3.726   1.328   7.233  0.1254  0.7306 -0.4691
   28MOL    C7215246   3.871   1.601   7.045  0.1958 -0.0950  0.1944
   28MOL    C7315247   3.907   1.738   7.057  0.5230 -0.4129  0.2264
   28MOL    H7415248   4.363   1.962   7.252 -2.2707  1.5099 -1.5379
   28MOL    H7515249   4.232   1.860   7.264 -0.8836  2.1000  0.3415
   28MOL    H7615250   4.318   2.068   7.466 -1.8669  0.2277  2.0159
   28MOL    H7715251   4.174   1.975   7.491  0.4966 -1.1014 -0.5799
   28MOL    H7815252   4.174   2.233   7.376  1.3421  0.0688  0.7390
   28MOL    H7915253   4.187   2.122   7.232 -2.4682 -1.0238 -0.8096
   28MOL    H8015254   3.985   2.121   7.455  0.8659 -1.2651  0.3433
   28MOL    H8115255   3.954   2.186   7.300  0.1732 -0.0214  0.6968
   28MOL    H8215256   3.874   1.763   7.390 -0.6355  2.2019 -1.0204
   28MOL    H8315257   3.806   1.529   7.366 -0.5791  0.2661  0.1805
   28MOL    H8415258   3.875   1.567   6.942 -0.2359  1.2938 -0.2890
   28MOL    H8515259   3.936   1.794   6.969  0.7677 -2.7431 -1.2134
   28MOL    O8615260   3.842   1.314   7.035 -0.0018 -0.4613  0.1197
   28MOL    C8715261   3.801   1.185   7.002 -0.2292 -0.6451  0.0305
   28MOL    C8815262   3.926   1.102   6.966  0.1321  0.3582 -0.4787
   28MOL    C8915263   3.880   0.961   6.908  0.4854  0.1070 -0.0467
   28MOL    C9015264   3.989   0.870   6.851 -0.3960  0.0254  0.7857
   28MOL    O9115265   4.083   0.835   6.955  0.0199  0.4790  0.5125
   28MOL    C9215266   4.210   0.808   6.933 -0.0549  0.2665  0.4177
   28MOL    O9315267   4.258   0.820   6.821  0.1628 -0.0806  0.2176
   28MOL    C9415268   4.295   0.769   7.061 -0.7954  0.7000 -0.3976
   28MOL    C9515269   4.241   0.766   7.192 -0.6820 -0.4655 -0.1246
   28MOL    C9615270   4.323   0.735   7.302  0.4195  0.2654 -0.1390
   28MOL    C9715271   4.456   0.710   7.289  0.4603 -0.9598  0.8134
   28MOL    C9815272   4.536   0.667   7.408  0.2284  0.0448  0.3959
   28MOL    O9915273   4.512   0.703   7.524 -0.1699 -0.6857 -0.3751
   28MOL   C10015274   4.512   0.704   7.158 -0.4221  0.0036 -0.8984
   28MOL   C10115275   4.433   0.729   7.042 -0.2059 -0.5139  0.0559
   28MOL   H10215276   3.761   1.138   7.093 -0.2135  2.2563  1.5944
   28MOL   H10315277   3.730   1.186   6.920  1.0945  1.8460 -1.1054
   28MOL   H10415278   3.987   1.082   7.054 -0.1348 -0.2152 -0.4221
   28MOL   H10515279   3.991   1.156   6.898  1.2615 -1.4750 -0.8704
   28MOL   H10615280   3.821   0.912   6.986  1.1740 -1.7089 -0.6300
   28MOL   H10715281   3.812   0.977   6.824  2.3483 -0.3432 -1.6719
   28MOL   H10815282   3.947   0.784   6.799  2.4686 -0.5567 -0.6969
   28MOL   H10915283   4.038   0.932   6.775 -0.0068  0.1946  1.1703
   28MOL   H11015284   4.134   0.774   7.207 -0.8376 -2.4011 -0.0674
   28MOL   H11115285   4.272   0.722   7.396 -0.7486  2.6366 -0.4179
   28MOL   H11215286   4.610   0.664   7.135  0.1104  1.2396 -0.7743
   28MOL   H11315287   4.471   0.730   6.941  2.1166  3.0334  0.9109
   28MOL   O11415288   4.638   0.579   7.382  0.3235  0.3160  0.1998
   28MOL   C11515289   4.728   0.530   7.483 -0.0122 -0.0497  0.0055
   28MOL   C11615290   4.836   0.448   7.410  0.1139 -0.0170  0.7907
   28MOL   C11715291   4.905   0.534   7.303 -0.9639  0.1081  0.3233
   28MOL   C11815292   5.012   0.454   7.218 -0.5650 -0.2507  0.9675
   28MOL   O11915293   5.131   0.429   7.289 -0.5507 -0.7260 -0.0345
   28MOL   C12015294   5.248   0.477   7.251  0.7294  0.1644 -0.5740
   28MOL   O12115295   5.263   0.538   7.145  0.8499 -0.1489 -0.1414
   28MOL   C12215296   5.353   0.447   7.348  0.0499 -0.3646  0.1291
   28MOL   C12315297   5.327   0.386   7.470 -0.0896  0.2006  0.5616
   28MOL   C12415298   5.427   0.372   7.571 -0.1966  0.4047  0.2490
   28MOL   C12515299   5.561   0.414   7.544  0.0953 -0.1693 -0.6540
   28MOL   C12615300   5.663   0.411   7.656  0.1925 -0.2204  0.4713
   28MOL   O12715301   5.780   0.451   7.634  0.3226  0.4904 -0.2796
   28MOL   C12815302   5.588   0.468   7.412 -0.5714  0.1794  0.3618
   28MOL   C12915303   5.484   0.489   7.322 -0.5832  0.7094 -0.4288
   28MOL   H13015304   4.767   0.613   7.542  3.7064 -3.2421  2.1799
   28MOL   H13115305   4.671   0.462   7.547 -0.8634  0.0229 -0.6556
   28MOL   H13215306   4.778   0.370   7.360  1.4443  0.0704 -0.9362
   28MOL   H13315307   4.906   0.400   7.478  2.3219 -0.4882 -1.7434
   28MOL   H13415308   4.832   0.579   7.235 -0.5875  0.1007 -0.0873
   28MOL   H13515309   4.967   0.613   7.347 -1.4446 -0.8227  2.7426
   28MOL   H13615310   4.956   0.372   7.174 -2.6891  0.5168  2.1812
   28MOL   H13715311   5.032   0.518   7.132 -2.0205 -2.4120 -1.0405
   28MOL   H13815312   5.227   0.354   7.493  0.0929 -1.2992 -0.5986
   28MOL   H13915313   5.402   0.335   7.669 -1.8806  1.0780  0.0874
   28MOL   H14015314   5.685   0.502   7.378  0.3073 -0.7089  1.8999
   28MOL   H14115315   5.516   0.533   7.228  0.1290  0.1331 -0.4563
   28MOL   O14215316   5.621   0.348   7.774  0.1058  0.6996 -0.4599
   28MOL   C14315317   5.705   0.317   7.883  0.2658  0.4384  0.0884
   28MOL   C14415318   5.630   0.280   8.011 -0.6521 -0.4510 -0.2165
   28MOL   C14515319   5.715   0.259   0.042 -0.2915 -0.0877  0.1084
   28MOL   C14615320   5.627   0.232   0.167 -0.2977  0.4844 -0.2518
   28MOL   O14715321   5.706   0.239   0.282  0.1815 -0.8148 -0.6723
   28MOL   C14815322   5.636   0.233   0.401 -0.4875  0.3791 -0.1738
   28MOL   O14915323   5.512   0.219   0.417 -0.0932  0.5437  0.0881
   28MOL   C15015324   5.725   0.257   0.517  0.4382  0.1513 -0.0552
   28MOL   C15115325   5.668   0.267   0.647  1.0370  0.0797  0.4503
   28MOL   C15215326   5.751   0.294   0.756  0.3158  0.1690 -0.0274
   28MOL   C15315327   5.889   0.315   0.748  0.4980  0.2335 -0.5165
   28MOL   C15415328   5.980   0.335   0.866 -0.0721 -0.1249  0.2302
   28MOL   O15515329   6.097   0.376   0.854 -0.4763  0.2899 -0.4400
   28MOL   C15615330   5.942   0.318   0.619  0.2511 -0.5282 -0.5667
   28MOL   C15715331   5.861   0.294   0.508 -0.0600 -0.4263 -0.6617
   28MOL   H15815332   5.772   0.235   7.856 -0.6276 -0.6379  1.1190
   28MOL   H15915333   5.765   0.405   7.904  1.0778 -0.4675  1.6787
   28MOL   H16015334   5.589   0.181   7.991  1.3477 -2.0891  3.4650
   28MOL   H16115335   5.550   0.354   8.016 -1.0694 -0.8664 -0.6650
   28MOL   H16215336   5.780   0.171   0.037 -0.1502 -0.0490  1.1382
   28MOL   H16315337   5.781   0.345   0.046 -0.5370  0.0552  1.0782
   28MOL   H16415338   5.555   0.313   0.169  0.4864  1.1885  0.2844
   28MOL   H16515339   5.570   0.140   0.180  0.2701  0.2748  0.8949
   28MOL   H16615340   5.563   0.256   0.670  0.6873  2.8107  0.3280
   28MOL   H16715341   5.699   0.292   0.850 -0.3923  0.4573 -0.4061
   28MOL   H16815342   6.049   0.327   0.610  0.0277  0.6301 -2.3625
   28MOL   H16915343   5.907   0.291   0.410  0.1641  3.9318 -0.8015
   28MOL   O17015344   5.927   0.322   0.997 -0.4390 -0.0823  0.0963
   28MOL   C17115345   6.009   0.311   1.112  0.3676  0.4024  0.5069
   28MOL   C17215346   5.961   0.189   1.193 -0.3718  1.0943 -0.4419
   28MOL   C17315347   5.816   0.215   1.248  0.0050  0.5693 -0.1043
   28MOL   C17415348   5.697   0.170   1.154 -1.1492 -0.0727  0.2450
   28MOL   O17515349   5.565   0.217   1.195  0.3306 -0.0457  0.4980
   28MOL   C17615350   5.515   0.336   1.152  0.2894  0.1186 -0.4597
   28MOL   O17715351   5.582   0.415   1.085  0.0145 -0.3052  0.2402
   28MOL   C17815352   5.369   0.350   1.190 -0.5749  0.4733  0.3984
   28MOL   C17915353   5.306   0.246   1.266 -0.2981 -0.0059 -0.1631
   28MOL   C18015354   5.169   0.258   1.297  0.6292 -0.9930  0.1530
   28MOL   C18115355   5.094   0.365   1.236  0.2738  0.0144 -0.2953
   28MOL   C18215356   4.952   0.364   1.261  0.1398 -0.8928  0.3613
   28MOL   O18315357   4.875   0.411   1.175  0.3293  0.1404  0.1849
   28MOL   C18415358   5.153   0.466   1.163  0.3388 -0.4809 -0.2695
   28MOL   C18515359   5.290   0.458   1.141 -1.0942  0.0401  0.9696
   28MOL   H18615360   6.116   0.297   1.094  0.6388  0.1759  2.2035
   28MOL   H18715361   6.009   0.400   1.174 -0.9091  0.4271  0.4947
   28MOL   H18815362   6.033   0.171   1.272 -0.5375  2.8613  0.1197
   28MOL   H18915363   5.960   0.095   1.137 -0.6681 -0.1605  1.6484
   28MOL   H19015364   5.815   0.152   1.337 -0.7025  0.3359 -0.2775
   28MOL   H19115365   5.787   0.317   1.275 -2.7743 -0.3896  0.7117
   28MOL   H19215366   5.718   0.217   1.058 -1.5720 -0.8014 -0.2105
   28MOL   H19315367   5.687   0.063   1.135  1.4706 -0.1701 -0.7771
   28MOL   H19415368   5.361   0.164   1.311  1.0093  1.1785  0.4365
   28MOL   H19515369   5.122   0.190   1.366 -0.3390  0.2842  0.7545
   28MOL   H19615370   5.092   0.546   1.123  0.5080 -0.1496  0.1368
   28MOL   H19715371   5.344   0.527   1.078  0.1761  0.2362  2.2332
   28MOL   O19815372   4.913   0.306   1.382 -0.0639 -0.2118  0.4406
   28MOL   C19915373   4.779   0.302   1.431 -0.5386  0.4658 -0.5001
   28MOL   C20015374   4.762   0.187   1.531  0.3152  0.4479  0.5526
   28MOL   C20115375   4.790   0.045   1.474  0.0494 -0.6931  0.1515
   28MOL   C20215376   4.763   8.032   1.568  0.6103  0.0355  0.2426
   28MOL   O20315377   4.863   8.018   1.663  0.3366  0.2721  0.1823
   28MOL   C20415378   4.865   7.923   1.754 -0.1569  0.3852 -0.1741
   28MOL   O20515379   4.782   7.832   1.755  0.0368  0.7457  0.2889
   28MOL   C20615380   4.973   7.935   1.864 -0.0656  0.2233  0.2950
   28MOL   C20715381   5.028   8.062   1.892  0.4437 -0.5068  0.0581
   28MOL   C20815382   5.129   8.081   1.983 -0.2560 -0.1798  0.7457
   28MOL   C20915383   5.182   7.965   2.048 -0.2755 -0.1289 -0.0576
   28MOL   C21015384   5.300   7.973   2.138  0.2699 -0.2999 -0.0766
   28MOL   O21115385   5.352   7.874   2.193  0.2236 -0.5509 -0.6687
   28MOL   C21215386   5.132   7.835   2.024  0.3922 -0.4447  0.0029
   28MOL   C21315387   5.025   7.825   1.933 -0.4029 -0.1152 -0.7130
   28MOL   H21415388   4.745   0.400   1.465 -2.4828 -0.9462  1.8236
   28MOL   H21515389   4.718   0.283   1.342 -1.1231  0.6709 -0.1482
   28MOL   H21615390   4.656   0.191   1.555  0.0694 -0.8859 -0.2691
   28MOL   H21715391   4.821   0.191   1.622 -0.4246  3.1089  0.9679
   28MOL   H21815392   4.719   0.035   1.392 -0.2496 -0.7835  0.4177
   28MOL   H21915393   4.891   0.035   1.435  0.2385  0.9015  0.1938
   28MOL   H22015394   4.666   8.040   1.618  0.2106  0.9071 -0.6671
   28MOL   H22115395   4.744   7.941   1.512  2.7176 -0.0700 -0.3652
   28MOL   H22215396   4.994   0.045   1.829 -0.4162 -2.0016 -1.4658
   28MOL   H22315397   5.177   0.078   1.994  0.9442 -0.3868 -2.2182
   28MOL   H22415398   5.164   7.747   2.077  1.8923 -1.2182 -2.0917
   28MOL   H22515399   4.982   7.731   1.903 -2.7081  0.1283  1.6406
   28MOL   O22615400   5.334   0.001   2.155 -0.2099 -0.1076 -0.2079
   28MOL   C22715401   5.433   0.036   2.251  0.2727  0.5567  0.1331
   28MOL   C22815402   5.452   0.188   2.272  0.0083  0.3436 -0.2338
   28MOL   C22915403   5.502   0.247   2.142  0.3560 -0.3230  0.4561
   28MOL   C23015404   5.524   0.399   2.143  0.2651  0.2263  0.2390
   28MOL   O23115405   5.631   0.431   2.233 -0.0009 -0.1378  0.2147
   28MOL   C23215406   5.763   0.396   2.204 -0.1327 -0.1040 -0.5977
   28MOL   O23315407   5.798   0.338   2.098  0.2477 -0.1617  0.3020
   28MOL   C23415408   5.853   0.445   2.311  1.0266  0.3940 -0.1417
   28MOL   C23515409   5.811   0.561   2.391  0.7163  0.5284  0.2943
   28MOL   C23615410   5.898   0.601   2.494  0.5375  0.4506 -0.7365
   28MOL   C23715411   6.024   0.543   2.509 -0.4563  0.1442 -0.0623
   28MOL   C23815412   6.119   0.591   2.613  0.2835 -1.1136  0.4252
   28MOL   O23915413   6.238   0.564   2.610 -0.0206  0.5199  0.5735
   28MOL   C24015414   6.068   0.444   2.418  0.3810 -0.5072 -0.2183
   28MOL   C24115415   5.983   0.392   2.319 -0.3671  0.0921  0.3630
   28MOL   H24215416   5.404   8.077   2.339  0.3530 -0.3033 -0.3958
   28MOL   H24315417   5.524   8.078   2.231  0.0337  0.0031  0.5855
   28MOL   H24415418   5.528   0.203   2.349 -0.1408 -2.0751  0.4206
   28MOL   H24515419   5.362   0.237   2.308  0.8562  0.9159  1.1626
   28MOL   H24615420   5.595   0.200   2.108  1.6613  2.3839  0.1547
   28MOL   H24715421   5.426   0.214   2.071  0.7536 -2.8259  1.1611
   28MOL   H24815422   5.553   0.425   2.042 -1.2055 -0.8556 -0.4849
   28MOL   H24915423   5.432   0.452   2.166 -0.4601  0.1363 -2.3803
   28MOL   H25015424   5.711   0.599   2.380  0.3679 -0.0697  1.3411
   28MOL   H25115425   5.862   0.671   2.568 -3.0369 -2.4664  0.4326
   28MOL   H25215426   6.161   0.389   2.422 -0.7297 -2.4339  0.0929
   28MOL   H25315427   6.023   0.317   2.252  1.5343  2.0874 -0.7862
   28MOL   O25415428   6.060   0.657   2.706 -0.4386 -0.0518  0.6180
   28MOL   C25515429   6.129   0.686   2.829  0.1510 -0.0372  0.3808
   28MOL   C25615430   6.043   0.781   2.919  0.1627 -0.0735  0.0822
   28MOL   C25715431   6.057   0.929   2.875 -0.0980 -0.1089 -0.0345
   28MOL   C25815432   5.968   1.028   2.946 -0.1032  0.5546  0.4975
   28MOL   O25915433   6.028   1.157   2.944  0.4206  0.0325 -0.2352
   28MOL   C26015434   5.991   1.245   2.849  0.2952  0.7967  0.1325
   28MOL   O26115435   5.939   1.218   2.744 -0.0907  0.0471 -0.5181
   28MOL   C26215436   6.028   1.386   2.880 -0.2866 -0.7625  0.0326
   28MOL   C26315437   6.109   1.420   2.989 -0.1419  0.0562  0.2994
   28MOL   C26415438   6.151   1.552   3.016  0.7948 -0.4725  0.3178
   28MOL   C26515439   6.096   1.660   2.940  0.6049  0.1118  0.0202
   28MOL   C26615440   6.144   1.798   2.960 -0.5494  0.1142 -0.2227
   28MOL   O26715441   6.095   1.904   2.911  1.0952  0.3874 -0.7509
   28MOL   C26815442   6.003   1.629   2.836  0.4643  0.4950  0.1229
   28MOL   C26915443   5.977   1.494   2.805 -0.3749 -0.7516 -0.6790
   28MOL   H27015444   6.146   0.598   2.891  0.6816  1.1982  2.0470
   28MOL   H27115445   6.227   0.732   2.822 -0.8765  1.9837 -1.1566
   28MOL   H27215446   6.066   0.780   3.026 -1.8977  0.5311  0.5446
   28MOL   H27315447   5.938   0.754   2.913  0.2187 -0.3478  0.3066
   28MOL   H27415448   6.160   0.959   2.895  0.4286 -1.0128 -1.3476
   28MOL   H27515449   6.049   0.935   2.767  0.4125 -1.2761 -0.1412
   28MOL   H27615450   5.868   1.034   2.903 -0.3356 -2.9286  0.4434
   28MOL   H27715451   5.960   0.991   3.048  1.3056  0.9750  0.7821
   28MOL   H27815452   6.145   1.334   3.044 -2.5671 -0.8713  0.5229
   28MOL   H27915453   6.217   1.566   3.100  1.5869  1.9636 -0.6486
   28MOL   H28015454   5.958   1.705   2.775  1.6480  0.1734 -1.1810
   28MOL   H28115455   5.917   1.470   2.718  0.3394 -1.4839 -0.9798
   28MOL   O28215456   6.244   1.802   3.053 -0.0594 -0.1994  0.2859
   28MOL   C28315457   6.307   1.927   3.081 -0.0928 -0.1445  0.1414
   28MOL   C28415458   6.446   1.924   3.006 -0.4896  0.1662  0.4511
   28MOL   C28515459   6.555   1.842   3.074  0.2639  0.5427 -0.3648
   28MOL   C28615460   6.591   1.891   3.215 -0.3106 -0.6292 -0.8598
   28MOL   O28715461   6.700   1.815   3.268  0.2923 -0.3109 -0.0166
   28MOL   C28815462   6.670   1.693   3.316  0.1733 -0.1980 -0.0139
   28MOL   O28915463   6.553   1.658   3.327  0.4756 -0.7359 -0.5457
   28MOL   C29015464   6.792   1.618   3.345  0.3755 -0.1518 -0.1164
   28MOL   C29115465   6.783   1.490   3.397  0.0550 -0.1420  0.3580
   28MOL   C29215466   6.891   1.418   3.436  0.0197 -0.2796 -0.7183
   28MOL   C29315467   7.025   1.459   3.407  0.0912  0.2332  0.3559
   28MOL   C29415468   7.140   1.385   3.454  0.1497 -0.1457  0.6412
   28MOL   O29515469   7.137   1.273   3.509  0.2816 -0.2613  0.0761
   28MOL   C29615470   7.034   1.587   3.345  0.3257 -0.6431  0.0051
   28MOL   C29715471   6.924   1.668   3.317 -0.2459  0.4760  0.7400
   28MOL   H29815472   6.246   2.010   3.045 -1.9508 -0.9493  1.3245
   28MOL   H29915473   6.331   1.940   3.186  0.8397  1.9459 -0.3074
   28MOL   H30015474   6.477   2.028   2.989 -0.7025  0.3232  1.0203
   28MOL   H30115475   6.437   1.886   2.904  4.3030 -0.1457  0.0211
   28MOL   H30215476   6.525   1.737   3.081 -0.0456  0.7048  0.9280
   28MOL   H30315477   6.651   1.827   3.025 -0.4928 -2.5205 -1.0125
   28MOL   H30415478   6.629   1.993   3.209 -0.6286 -0.4711 -0.1914
   28MOL   H30515479   6.511   1.903   3.288  2.1755  1.0953  1.6917
   28MOL   H30615480   6.686   1.447   3.414 -0.5524  0.0250 -2.4917
   28MOL   H30715481   6.877   1.326   3.491 -0.7372 -0.1280 -0.6592
   28MOL   H30815482   7.127   1.637   3.322 -0.5077  0.6739 -0.5650
   28MOL   H30915483   6.934   1.767   3.275 -2.2776 -0.0858 -1.1258
   28MOL   O31015484   7.254   1.453   3.430 -0.4596  0.5041 -0.2949
   28MOL   C31115485   7.391   1.405   3.468  0.8210 -0.0715 -0.7026
   28MOL   C31215486   7.480   1.513   3.525  0.2149  0.3616 -0.6795
   28MOL   C31315487   7.530   1.629   3.436  0.1157 -0.2195 -0.3362
   28MOL   C31415488   7.626   1.716   3.515  0.0856 -0.6856  0.4585
   28MOL   O31515489   7.685   1.819   3.438 -0.4800  0.0693 -0.1415
   28MOL   C31615490   7.760   1.914   3.503 -0.5854 -0.4285  0.8576
   28MOL   O31715491   7.787   1.910   3.620 -0.4718  0.0577 -0.7922
   28MOL   C31815492   7.812   2.020   3.407  0.0926 -0.1863 -0.3988
   28MOL   C31915493   7.915   2.109   3.439 -0.2308 -0.1430 -0.1991
   28MOL   C32015494   7.944   2.212   3.350  0.3104 -0.9019 -0.4865
   28MOL   C32115495   7.875   2.223   3.225 -0.1892 -0.5252  0.0674
   28MOL   C32215496   7.901   2.331   3.120  0.1628  0.6524 -0.0282
   28MOL   O32315497   7.823   2.357   3.027 -0.8122  0.2405 -0.1601
   28MOL   C32415498   7.777   2.131   3.195  0.4593 -0.5718 -1.6879
   28MOL   C32515499   7.744   2.036   3.286 -0.0765  1.0244  0.1697
   28MOL   H32615500   7.378   1.325   3.540  0.8344  1.1793  0.7099
   28MOL   H32715501   7.435   1.359   3.380  0.3747 -1.6886 -0.0963
   28MOL   H32815502   7.566   1.457   3.563 -0.8453 -0.1529  1.0448
   28MOL   H32915503   7.433   1.545   3.618 -1.5707  2.0709 -2.1264
   28MOL   H33015504   7.572   1.588   3.344  0.7878  0.6238 -0.4161
   28MOL   H33115505   7.451   1.698   3.407  0.8947  0.2753 -1.3138
   28MOL   H33215506   7.578   1.752   3.607 -2.2553  0.0939 -1.0077
   28MOL   H33315507   7.706   1.647   3.541  0.7466  0.5146  1.6932
   28MOL   H33415508   7.966   2.106   3.534  0.4939 -0.0364 -0.5813
   28MOL   H33515509   8.014   2.292   3.372 -1.1573 -0.3645  2.4496
   28MOL   H33615510   7.726   2.126   3.100 -1.3657  0.2851 -0.7823
   28MOL   H33715511   7.669   1.965   3.253  2.4730 -1.2021 -0.9748
   28MOL   O33815512   8.018   2.387   3.132  0.1224  0.6492 -0.9514
   28MOL   C33915513   8.080   2.462   3.022  0.0581 -0.0812  0.4705
   28MOL   C34015514   0.097   2.545   3.075 -0.1477 -0.1362  0.3381
   28MOL   C34115515   0.163   2.628   2.963 -0.6794 -0.1274 -0.5089
   28MOL   C34215516   0.248   2.752   3.010 -0.3430 -0.0939  0.1612
   28MOL   O34315517   0.296   2.739   3.138  0.4035 -0.0458  0.4101
   28MOL   C34415518   0.332   2.844   3.207  0.1411  0.1137 -1.2215
   28MOL   O34515519   0.342   2.957   3.162  0.4135 -0.0230 -0.0383
   28MOL   C34615520   0.368   2.805   3.342  0.1316  0.1416 -0.4292
   28MOL   C34715521   0.360   2.674   3.394  0.2781 -0.1715 -0.8504
   28MOL   C34815522   0.380   2.654   3.533  0.2175 -0.1195 -0.0383
   28MOL   C34915523   0.411   2.759   3.626 -0.5995 -0.5629  0.4385
   28MOL   C35015524   0.443   2.738   3.772  0.0910 -0.2243  0.1367
   28MOL   O35115525   0.415   2.825   3.853  0.3112  0.4659  0.2272
   28MOL   C35215526   0.399   2.887   3.573  0.4297  0.4338 -0.0014
   28MOL   C35315527   0.391   2.906   3.434  0.5579 -0.3271 -0.1478
   28MOL   H35415528   0.016   2.386   2.951 -0.5142  1.2201 -1.2324
   28MOL   H35515529   8.006   2.522   2.970  0.7557 -1.0132 -1.6401
   28MOL   H35615530   0.162   2.477   3.131  0.0458 -0.7173 -0.5849
   28MOL   H35715531   0.049   2.608   3.149 -1.3668  1.2469 -1.5937
   28MOL   H35815532   0.232   2.571   2.901 -0.1143 -1.1970  1.0782
   28MOL   H35915533   0.073   2.655   2.907 -1.0460 -2.3852 -1.0880
   28MOL   H36015534   0.329   2.786   2.946  1.4442 -0.3399  2.2226
   28MOL   H36115535   0.183   2.840   3.005  0.3333  0.3558 -0.9575
   28MOL   H36215536   0.341   2.594   3.323  0.7437 -1.6929  0.7195
   28MOL   H36315537   0.380   2.556   3.578 -0.1408 -0.2952 -0.4152
   28MOL   H36415538   0.409   2.968   3.643 -0.7202 -0.4663  1.2422
   28MOL   H36515539   0.390   3.010   3.403 -0.9395 -0.0932  0.6254
   28MOL   O36615540   0.514   2.625   3.793 -0.1102 -0.1086 -0.1084
   28MOL   C36715541   0.540   2.584   3.928  0.0784  0.0290  0.0882
   28MOL   C36815542   0.595   2.443   3.930 -0.8105  0.0262 -0.3682
   28MOL   C36915543   0.714   2.424   3.834  0.1823  0.5376 -0.2839
   28MOL   C37015544   0.792   2.300   3.829  1.2138 -0.0293  0.6451
   28MOL   O37115545   0.697   2.197   3.799 -0.0875  0.1435  0.3608
   28MOL   C37215546   0.728   2.094   3.721 -0.0943  0.1767 -0.6762
   28MOL   O37315547   0.827   2.084   3.649  0.0214 -0.0512  0.6374
   28MOL   C37415548   0.620   1.987   3.729 -0.0953 -0.0693 -0.0403
   28MOL   C37515549   0.529   1.987   3.833 -0.0821  0.0830 -0.4377
   28MOL   C37615550   0.431   1.883   3.849 -0.4116  0.6803 -0.4293
   28MOL   C37715551   0.419   1.775   3.757  0.1661  0.2462 -0.8951
   28MOL   C37815552   0.323   1.664   3.777 -0.2233  0.0415 -0.0754
   28MOL   O37915553   0.354   1.548   3.759  0.3093 -0.3571  0.6889
   28MOL   C38015554   0.520   1.776   3.656 -0.0636  0.2655  0.4208
   28MOL   C38115555   0.608   1.884   3.637 -0.3412  0.5647  0.2359
   28MOL   H38215556   0.600   2.660   3.978  0.0308 -0.4546  0.8855
   28MOL   H38315557   0.449   2.591   3.988  0.5902  0.2860  0.8409
   28MOL   H38415558   0.511   2.381   3.900 -0.9555 -0.7899  1.6737
   28MOL   H38515559   0.613   2.412   4.033  0.2937 -2.0532 -1.1569
   28MOL   H38615560   0.691   2.448   3.730  1.3567  0.6102 -0.5360
   28MOL   H38715561   0.784   2.499   3.871  0.0646  0.1513  0.7555
   28MOL   H38815562   0.864   2.304   3.748 -0.2577  2.5659 -0.6237
   28MOL   H38915563   0.850   2.289   3.921  1.4525  0.8097  0.6018
   28MOL   H39015564   0.512   2.067   3.903  0.1993  0.3650 -0.6916
   28MOL   H39115565   0.357   1.886   3.927 -1.1377 -1.2179 -1.0251
   28MOL   H39215566   0.521   1.695   3.584  2.7251  0.4251  0.2290
   28MOL   H39315567   0.683   1.881   3.559 -0.9027  2.8191 -0.4269
   28MOL   O39415568   0.205   1.708   3.814 -0.7338 -0.3078 -0.2240
   28MOL   C39515569   0.107   1.611   3.855  0.1627  0.5361 -0.7103
   28MOL   C39615570   8.087   1.673   3.925 -0.1157  0.4359  0.3662
   28MOL   C39715571   7.998   1.757   3.840 -0.0391  0.1318 -0.1457
   28MOL   C39815572   7.864   1.789   3.910 -0.0534 -0.2426  0.2838
   28MOL   O39915573   7.798   1.666   3.918  0.7001  0.1858 -0.3100
   28MOL   C40015574   7.690   1.659   3.991  0.6313 -0.6784 -0.2494
   28MOL   O40115575   7.644   1.752   4.054 -0.6279  0.3917  0.4365
   28MOL   C40215576   7.639   1.515   3.997 -0.5519 -0.4725  0.1797
   28MOL   C40315577   7.514   1.505   4.057  0.4092 -0.0316  0.0308
   28MOL   C40415578   7.451   1.379   4.081 -0.4815  0.3501 -0.2026
   28MOL   C40515579   7.521   1.267   4.027  0.2623  0.0050  0.0675
   28MOL   C40615580   7.470   1.128   4.040 -0.5951 -0.5064 -0.1389
   28MOL   O40715581   7.359   1.113   4.082  0.3528  0.1872 -0.1777
   28MOL   C40815582   7.646   1.278   3.955 -0.3396  0.1226 -0.4163
   28MOL   C40915583   7.707   1.400   3.944 -0.2174 -0.5587  0.4684
   28MOL   H41015584   0.069   1.565   3.764  1.3452 -0.1885 -0.8584
   28MOL   H41115585   0.144   1.524   3.909  0.5111  1.1650  0.0643
   28MOL   H41215586   0.033   1.731   4.005  2.0538  0.0849 -0.5454
   28MOL   H41315587   8.022   1.592   3.957  0.0729 -0.0849 -0.5312
   28MOL   H41415588   8.045   1.847   3.801  0.6783 -1.5995 -3.3614
   28MOL   H41515589   7.958   1.712   3.749  1.4847  3.6566 -2.6672
   28MOL   H41615590   7.884   1.833   4.008 -0.9190  1.7030 -0.3860
   28MOL   H41715591   7.817   1.871   3.857  3.2679  0.1632 -2.2167
   28MOL   H41815592   7.473   1.601   4.083 -1.9410 -0.4841 -1.8628
   28MOL   H41915593   7.356   1.366   4.130 -0.6896  0.7149 -0.5077
   28MOL   H42015594   7.699   1.190   3.922 -0.8437 -0.4745  0.3520
   28MOL   H42115595   7.806   1.401   3.901 -0.0120  0.2084  0.9453
   28MOL   O42215596   7.556   1.027   4.016 -0.8076 -0.2999  0.6057
   28MOL   C42315597   7.503   0.907   3.965 -0.1251 -0.3897 -0.2355
   28MOL   C42415598   7.612   0.807   3.941  0.4022  0.0224 -0.3936
   28MOL   C42515599   7.692   0.772   4.066  0.3148 -0.0041 -0.5440
   28MOL   C42615600   7.613   0.667   4.144 -0.0450  0.9542  0.2155
   28MOL   O42715601   7.676   0.626   4.263  0.4462 -0.0232 -0.7113
   28MOL   C42815602   7.597   0.549   4.345 -0.3977  0.1031 -0.2654
   28MOL   O42915603   7.482   0.530   4.320  0.0851 -0.0323  0.5174
   28MOL   C43015604   7.663   0.487   4.466  0.6278  0.0361  0.2059
   28MOL   C43115605   7.582   0.401   4.544 -0.1043 -0.2266  0.6008
   28MOL   C43215606   7.632   0.344   4.663 -0.7634 -0.4945  0.0644
   28MOL   C43315607   7.768   0.352   4.695  0.6026 -0.1455 -0.3317
   28MOL   C43415608   7.821   0.289   4.826 -0.2100  0.8124  0.2728
   28MOL   O43515609   7.929   0.314   4.873 -0.0604  0.1270 -0.3466
   28MOL   C43615610   7.848   0.430   4.609 -0.1587 -0.0942  0.4083
   28MOL   C43715611   7.801   0.503   4.498 -1.0521 -0.1928  0.1836
   28MOL   H43815612   7.432   0.864   4.035 -2.1283  0.9413 -1.4262
   28MOL   H43915613   7.458   0.925   3.867 -0.1532  0.6452 -0.0345
   28MOL   H44015614   7.687   0.831   3.865  1.8698 -0.4410  0.8966
   28MOL   H44115615   7.567   0.714   3.905  1.5190 -1.0658  0.9703
   28MOL   H44215616   7.793   0.740   4.043  0.8884  1.8379 -0.6394
   28MOL   H44315617   7.704   0.854   4.136 -1.6939 -2.4874  2.8483
   28MOL   H44415618   7.516   0.712   4.161 -0.3673  0.4733 -0.3293
   28MOL   H44515619   7.594   0.580   4.082  0.6698  0.6861  0.3652
   28MOL   H44615620   7.479   0.376   4.524 -0.5590  0.2506  2.2378
   28MOL   H44715621   7.572   0.291   4.736 -0.1098  1.3293  1.9788
   28MOL   H44815622   7.954   0.438   4.630  0.3614 -1.4233 -1.5525
   28MOL   H44915623   7.871   0.552   4.431  0.0307  1.1359  2.2351
   28MOL   O45015624   7.733   0.199   4.872  0.5919 -0.6140  0.1504
   28MOL   C45115625   7.766   0.129   4.988 -0.0783  0.3335  0.2958
   28MOL   C45215626   7.697   0.203   5.102 -0.3198  0.3700 -0.2160
   28MOL   C45315627   7.677   0.107   5.216 -0.4820 -0.0419 -0.5392
   28MOL   C45415628   7.646   0.179   5.355  0.1446 -0.8885 -0.6437
   28MOL   O45515629   7.772   0.193   5.424  0.0872 -0.1808 -0.5636
   28MOL   C45615630   7.782   0.233   5.550 -0.2195 -0.3383  0.3902
   28MOL   O45715631   7.683   0.268   5.615  0.0648  0.4305 -0.2326
   28MOL   C45815632   7.921   0.234   5.603  0.4101 -0.2033  0.0437
   28MOL   C45915633   8.029   0.197   5.528 -0.2580  0.4705  0.0962
   28MOL   C46015634   0.060   0.176   5.585  0.2180  0.0916  0.2909
   28MOL   C46115635   0.083   0.228   5.711  0.2532 -0.0379 -0.7039
   28MOL   C46215636   0.219   0.229   5.773  0.7646  0.1600  0.5657
   28MOL   O46315637   0.242   0.295   5.876 -0.2801 -0.1417  0.0039
   28MOL   C46415638   8.068   0.271   5.792 -0.7289 -0.2766  0.6889
   28MOL   C46515639   7.940   0.277   5.737 -0.1283  0.0626 -0.2160
   28MOL   H46615640   7.724   0.028   4.984 -2.4111  1.3406 -3.3500
   28MOL   H46715641   7.873   0.122   5.004 -0.2988 -2.3407  0.8588
   28MOL   H46815642   7.605   0.249   5.065 -0.6485 -1.9717 -2.3682
   28MOL   H46915643   7.760   0.284   5.140  0.2993  0.0849 -0.6406
   28MOL   H47015644   7.594   0.041   5.194 -0.0023 -1.2247  1.1227
   28MOL   H47115645   7.761   0.042   5.240 -1.7801 -2.0539 -1.3196
   28MOL   H47215646   7.591   0.273   5.357  2.6857  0.6240  1.5264
   28MOL   H47315647   7.578   0.122   5.419  1.5091 -1.7293  0.0876
   28MOL   H47415648   8.012   0.182   5.422 -1.2732  0.3634  0.2660
   28MOL   H47515649   0.143   0.152   5.520 -0.1327  2.1329 -0.9707
   28MOL   H47615650   8.081   0.319   5.888  2.5291  1.6083 -0.5886
   28MOL   H47715651   7.867   0.322   5.803  0.8984 -0.2853  1.1792
   28MOL   O47815652   0.310   0.166   5.706  0.0992  0.1090  0.2239
   28MOL   C47915653   0.439   0.165   5.750  0.0844  0.2330  0.0200
   28MOL   C48015654   0.519   0.093   5.643 -0.4255 -0.3381 -0.3682
   28MOL   C48115655   0.537   0.165   5.515 -0.2518  0.2370 -0.1839
   28MOL   C48215656   0.648   0.106   5.430  0.1699  0.0701 -0.1538
   28MOL   O48315657   0.650   0.153   5.298 -0.1552 -0.1419  0.0853
   28MOL   C48415658   0.766   0.149   5.224 -0.3636 -0.3454  0.5013
   28MOL   O48515659   0.862   0.077   5.255 -0.1186  0.7989  0.3648
   28MOL   C48615660   0.761   0.231   5.104 -0.0376 -0.6862 -0.3634
   28MOL   C48715661   0.642   0.267   5.049 -0.0544  0.8171  0.2733
   28MOL   C48815662   0.634   0.326   4.922  0.5183  0.2204 -0.8539
   28MOL   C48915663   0.757   0.344   4.852  0.4851 -0.7759 -0.2869
   28MOL   C49015664   0.739   0.403   4.718  0.6800 -0.0896  0.6576
   28MOL   O49115665   0.631   0.411   4.661  0.0966  0.1677  0.3626
   28MOL   C49215666   0.878   0.305   4.905  0.4852  0.1938  0.7223
   28MOL   C49315667   0.880   0.253   5.035 -0.3062  0.1084  0.3108
   28MOL   H49415668   0.476   0.267   5.766  1.5698 -0.3830  0.5191
   28MOL   H49515669   0.443   0.111   5.844 -1.0678  0.9585  0.4965
   28MOL   H49615670   0.488   8.088   5.627  2.9252 -1.6517  1.0680
   28MOL   H49715671   0.621   0.078   5.678 -0.6587  1.2560  1.0364
   28MOL   H49815672   0.438   0.161   5.470 -0.3510 -0.1468  0.0614
   28MOL   H49915673   0.560   0.271   5.531 -2.1771  0.7424 -0.6534
   28MOL   H50015674   0.740   0.126   5.485 -0.7773  0.1550  1.4353
   28MOL   H50115675   0.643   8.095   5.427  0.0881  0.1245 -3.2579
   28MOL   H50215676   0.558   0.239   5.110  0.8215  1.1749  1.6771
   28MOL   H50315677   0.540   0.343   4.872 -1.3330 -1.9234  1.8016
   28MOL   H50415678   0.962   0.310   4.838 -0.4774 -1.8934 -0.6814
   28MOL   H50515679   0.974   0.213   5.071 -0.4006  0.5881  1.0978
   28MOL   O50615680   0.861   0.429   4.658  0.1853 -0.0172  0.2131
   28MOL   C50715681   0.855   0.473   4.522  0.1330  0.6269 -0.5574
   28MOL   C50815682   0.889   0.363   4.418 -0.1652 -0.1440 -0.0717
   28MOL   C50915683   0.872   0.420   4.279  0.4706  0.8946  0.6413
   28MOL   C51015684   0.731   0.403   4.222  0.3428 -0.5898  0.9020
   28MOL   O51115685   0.696   0.262   4.208  0.1849  0.2105  0.4857
   28MOL   C51215686   0.724   0.188   4.098 -0.4086  0.3486  0.6010
   28MOL   O51315687   0.789   0.236   4.000 -0.4242 -0.0885 -0.7735
   28MOL   C51415688   0.679   0.044   4.109  0.5703  0.4457  0.3985
   28MOL   C51515689   0.594   0.002   4.217 -0.4745  0.0769 -0.3169
   28MOL   C51615690   0.558   7.967   4.234 -0.0304  0.5242  0.1280
   28MOL   C51715691   0.611   7.873   4.146  0.7868  0.5153  0.0649
   28MOL   C51815692   0.579   7.725   4.173 -0.0438 -0.1738  0.2381
   28MOL   O51915693   0.604   7.633   4.097 -0.1662 -0.2747  0.0594
   28MOL   C52015694   0.691   7.906   4.036 -0.2839 -0.6980  0.0600
   28MOL   C52115695   0.718   8.045   4.014 -0.1869 -0.1815  0.6819
   28MOL   H52215696   0.764   0.529   4.501  0.2121  0.5319 -1.1604
   28MOL   H52315697   0.932   0.550   4.509 -0.2878  1.4805  1.8304
   28MOL   H52415698   0.835   0.271   4.441 -0.8341  0.5010  0.9607
   28MOL   H52515699   0.992   0.328   4.425  0.4393  1.7706  0.7420
   28MOL   H52615700   0.914   0.520   4.274  0.0213  1.0324 -0.5714
   28MOL   H52715701   0.936   0.354   4.219 -2.7677  1.9849 -4.3254
   28MOL   H52815702   0.657   0.452   4.286  0.6153 -0.9005  1.4547
   28MOL   H52915703   0.726   0.432   4.117 -0.6792 -0.5605  0.9532
   28MOL   H53015704   0.564   0.069   4.295  0.7384 -0.3899  0.5666
   28MOL   H53115705   0.497   7.937   4.317  0.7895 -1.6493 -0.0079
   28MOL   H53215706   0.736   7.831   3.973 -0.4490 -0.4194 -0.3940
   28MOL   H53315707   0.792   8.063   3.937  1.0776 -0.0854  1.8978
   28MOL   O53415708   0.525   7.707   4.289 -0.3749  0.5605  0.2278
   28MOL   C53515709   0.518   7.577   4.353  0.2501  0.6975  0.0545
   28MOL   C53615710   0.651   7.510   4.383  0.0086 -0.4879 -0.2822
   28MOL   C53715711   0.739   7.612   4.471 -0.6580 -0.0289 -0.3786
   28MOL   C53815712   0.886   7.557   4.481  0.3276 -0.0839  0.3169
   28MOL   O53915713   0.946   7.567   4.357 -0.6301  0.5027  0.5155
   28MOL   C54015714   1.079   7.538   4.348  0.0728  0.4103  0.1323
   28MOL   O54115715   1.146   7.498   4.441 -0.4186 -0.5544 -0.7607
   28MOL   C54215716   1.117   7.551   4.206 -0.0091  0.7786 -0.5018
   28MOL   C54315717   1.031   7.586   4.095  0.6051 -0.3392 -0.5588
   28MOL   C54415718   1.082   7.603   3.962 -0.5852 -0.2511 -0.5523
   28MOL   C54515719   1.223   7.585   3.942  0.3776  0.0691  0.3480
   28MOL   C54615720   1.294   7.609   3.813  0.7863 -0.3587  0.5879
   28MOL   O54715721   1.229   7.633   3.711 -0.2831 -0.1700  0.6594
   28MOL   C54815722   1.302   7.534   4.050 -0.7933 -0.0649 -0.5165
   28MOL   C54915723   1.251   7.523   4.179 -0.0027 -0.0790  0.1971
   28MOL   H55015724   0.456   7.603   4.440  1.3714 -0.5438  1.2327
   28MOL   H55115725   0.453   7.503   4.307  1.5785  0.7711 -1.9894
   28MOL   H55215726   0.711   7.485   4.295 -2.6946  1.2373 -2.7080
   28MOL   H55315727   0.637   7.421   4.444  1.3569 -0.4431  0.1087
   28MOL   H55415728   0.739   7.711   4.427 -0.7028  0.2873  0.3270
   28MOL   H55515729   0.711   7.632   4.575  2.5963 -0.0760  0.5710
   28MOL   H55615730   0.937   7.620   4.553  0.3289  0.3426 -0.0567
   28MOL   H55715731   0.875   7.457   4.524 -1.0688  1.1450  2.8881
   28MOL   H55815732   0.926   7.599   4.117  0.5739 -0.3129 -0.7303
   28MOL   H55915733   1.021   7.634   3.879 -1.0097  1.7131  0.4353
   28MOL   H56015734   1.406   7.540   4.020 -0.3654  1.6558  1.2545
   28MOL   H56115735   1.321   7.493   4.256 -0.9594  0.3295  1.2332
   28MOL   H56215736   1.402   7.599   3.808  0.7027 -1.4475  0.6817
   29MOL     O115737   3.776   0.605   1.567  0.0335  0.3411 -0.3047
   29MOL     C215738   3.871   0.684   1.505  0.8570 -0.2468 -0.4463
   29MOL     C315739   4.007   0.616   1.512  0.4693 -0.2120 -0.8831
   29MOL     C415740   4.115   0.715   1.446 -0.1757  0.7473  0.8629
   29MOL     C515741   4.256   0.672   1.468  0.5072 -0.3106 -0.3201
   29MOL     O615742   4.352   0.749   1.402 -0.0853  0.8916  0.5182
   29MOL     C715743   4.466   0.684   1.368  0.1201  0.2470 -0.1306
   29MOL     O815744   4.481   0.560   1.381 -0.8812  0.2268 -0.0939
   29MOL     C915745   4.573   0.772   1.298 -1.1894  0.2934  0.1258
   29MOL    C1015746   4.554   0.906   1.260  0.0974  0.0955 -0.0816
   29MOL    C1115747   4.658   0.979   1.196 -1.0438 -1.4200  0.0003
   29MOL    C1215748   4.785   0.921   1.168 -1.0481  0.4810 -0.3435
   29MOL    C1315749   4.889   0.993   1.085  0.2155 -0.9187 -0.0871
   29MOL    O1415750   4.901   1.118   1.080  0.1507 -0.9395 -0.0978
   29MOL    C1515751   4.804   0.787   1.208 -0.5352 -0.4648 -0.1364
   29MOL    C1615752   4.704   0.716   1.276 -0.1548 -0.1444 -0.4677
   29MOL    H1715753   3.863   0.711   1.399 -0.0554  1.6885  0.0794
   29MOL    H1815754   3.893   0.781   1.551 -0.1363 -0.8691  1.3957
   29MOL    H1915755   4.006   0.524   1.454  4.2988 -2.1891  1.9511
   29MOL    H2015756   4.028   0.591   1.616 -0.8237  4.4540  0.6401
   29MOL    H2115757   4.098   0.713   1.338  0.2639 -0.5958  0.8100
   29MOL    H2215758   4.100   0.818   1.479  1.3511  1.5780 -0.9141
   29MOL    H2315759   4.288   0.671   1.572  1.2201  0.2084 -0.5270
   29MOL    H2415760   4.255   0.573   1.421  1.2761 -0.2161 -0.5489
   29MOL    H2515761   4.457   0.948   1.283 -1.0319 -2.2614 -0.2976
   29MOL    H2615762   4.619   1.069   1.150 -1.5264 -0.8996  1.3870
   29MOL    H2715763   4.894   0.732   1.181  1.2539  2.3520 -0.0910
   29MOL    H2815764   4.721   0.611   1.295  1.6242 -0.0568 -1.4468
   29MOL    H2915765   3.692   0.642   1.547  0.3072  0.1746 -1.8232
   29MOL    O3015766   4.984   0.920   1.028  0.1207  1.0041  0.1026
   29MOL    C3115767   5.112   0.983   0.989 -0.2832  0.6022  0.0980
   29MOL    C3215768   5.196   0.875   0.920  0.6157 -0.2086  0.2442
   29MOL    C3315769   5.338   0.938   0.909 -0.2846 -0.2945  0.3703
   29MOL    C3415770   5.439   0.829   0.868 -0.2802 -0.4135 -0.4833
   29MOL    O3515771   5.415   0.804   0.725  0.3969 -0.6025 -0.3674
   29MOL    C3615772   5.411   0.682   0.676  0.9949  0.4090  0.0394
   29MOL    O3715773   5.416   0.584   0.751 -0.2876 -0.1811 -0.0328
   29MOL    C3815774   5.395   0.681   0.525 -0.2766  0.5303 -0.1292
   29MOL    C3915775   5.407   0.556   0.460 -0.7255  0.2149 -0.1695
   29MOL    C4015776   5.393   0.549   0.322  0.0076  0.2606 -0.7022
   29MOL    C4115777   5.360   0.668   0.252 -0.3815  0.5796 -0.3495
   29MOL    C4215778   5.341   0.664   0.102 -0.1923 -1.0288 -0.0657
   29MOL    O4315779   5.340   0.765   0.029  0.2242  0.0500  0.4101
   29MOL    C4415780   5.359   0.795   0.315 -0.0769 -0.5599 -0.0868
   29MOL    C4515781   5.376   0.801   0.451 -0.2208  0.9547 -0.6308
   29MOL    H4615782   5.093   1.060   0.915  0.7392  2.2184  1.4842
   29MOL    H4715783   5.156   1.027   1.078  0.2077 -0.7776  0.5562
   29MOL    H4815784   5.155   0.848   0.823 -0.9717  0.1744  0.8016
   29MOL    H4915785   5.186   0.780   0.972 -0.3209 -0.7287 -0.8707
   29MOL    H5015786   5.348   1.022   0.841 -2.5580  0.4062  0.8643
   29MOL    H5115787   5.372   0.965   1.009  1.1759 -0.2883 -0.1134
   29MOL    H5215788   5.537   0.874   0.886 -0.9664  0.9113  0.0719
   29MOL    H5315789   5.432   0.743   0.934 -0.3086 -0.0248  0.0221
   29MOL    H5415790   5.438   0.471   0.520 -1.2990  1.2976  1.6804
   29MOL    H5515791   5.408   0.453   0.275  1.6540 -0.9766  2.2434
   29MOL    H5615792   5.326   0.883   0.263 -1.9617 -1.3173 -0.1948
   29MOL    H5715793   5.376   0.897   0.501 -0.6276  0.8386 -0.4010
   29MOL    O5815794   5.319   0.545   0.053  0.0843 -0.0630 -0.6682
   29MOL    C5915795   5.298   0.517   8.016 -0.3985 -0.2917  0.5592
   29MOL    C6015796   5.163   0.455   7.984  0.0548  0.7111  0.7588
   29MOL    C6115797   5.132   0.455   7.833  0.2416  0.0632  0.5834
   29MOL    C6215798   4.994   0.401   7.802  0.0548 -0.5848 -0.1138
   29MOL    O6315799   4.892   0.490   7.843  0.1689 -0.6228  0.1478
   29MOL    C6415800   4.760   0.468   7.811  0.0120 -0.1650 -0.4059
   29MOL    O6515801   4.724   0.369   7.743 -0.0286 -0.2979  0.4224
   29MOL    C6615802   4.669   0.573   7.856  0.2720 -0.4811  0.2607
   29MOL    C6715803   4.531   0.577   7.817 -0.5786  0.0935 -0.2367
   29MOL    C6815804   4.453   0.684   7.865 -0.2329 -0.1665 -0.9101
   29MOL    C6915805   4.495   0.776   7.965  0.6063 -1.0865 -0.1459
   29MOL    C7015806   4.405   0.885   8.006  0.1858 -0.3546 -0.3655
   29MOL    O7115807   4.307   0.913   7.942  0.1704  0.0263  0.3018
   29MOL    C7215808   4.629   0.768   8.009  0.1001  0.3664  0.5570
   29MOL    C7315809   4.714   0.666   7.955 -0.4717 -0.3047 -0.1001
   29MOL    H7415810   5.312   0.606   7.954  1.2581 -0.8919  0.0634
   29MOL    H7515811   5.377   0.454   7.976 -0.6385 -0.2509  0.0171
   29MOL    H7615812   5.090   0.513   8.040 -0.5786 -1.8239  2.6371
   29MOL    H7715813   5.162   0.351   8.017 -3.8328  0.2600 -0.5011
   29MOL    H7815814   5.145   0.559   7.805  0.8432  0.1520  1.1744
   29MOL    H7915815   5.203   0.399   7.773  2.1225  2.1201  0.8244
   29MOL    H8015816   4.975   0.377   7.697  1.9701 -0.0406 -0.6050
   29MOL    H8115817   4.977   0.305   7.851 -1.3560 -1.4462 -2.1976
   29MOL    H8215818   4.499   0.511   7.737  2.3666 -2.5503  0.6495
   29MOL    H8315819   4.356   0.693   7.818 -0.4792  0.3592 -0.3084
   29MOL    H8415820   4.668   0.840   8.079  0.3371  2.3298 -1.5342
   29MOL    H8515821   4.809   0.661   8.005  0.4097 -0.3160 -1.7438
   29MOL    O8615822   4.432   0.944   0.026  0.3717  0.0182 -0.7636
   29MOL    C8715823   4.345   1.033   0.101 -0.1496 -0.4627 -0.5600
   29MOL    C8815824   4.360   1.180   0.058 -0.7820 -0.8162  0.2218
   29MOL    C8915825   4.508   1.237   0.067 -0.1084  0.4715 -0.2258
   29MOL    C9015826   4.535   1.308   0.199  0.3028  0.8534 -0.8083
   29MOL    O9115827   4.533   1.219   0.313 -0.2522 -0.5025  0.5320
   29MOL    C9215828   4.471   1.244   0.430  0.3616  0.3259  0.2564
   29MOL    O9315829   4.414   1.355   0.446 -0.2302 -0.0748 -0.1792
   29MOL    C9415830   4.477   1.138   0.528  0.0377 -0.3549 -0.4313
   29MOL    C9515831   4.449   1.170   0.658 -0.0589  0.0280 -0.0537
   29MOL    C9615832   4.466   1.071   0.755 -0.4557 -0.4166 -0.7968
   29MOL    C9715833   4.507   0.939   0.721  0.0415 -0.1765 -0.1110
   29MOL    C9815834   4.533   0.841   0.830  0.3968  0.7342 -0.4464
   29MOL    O9915835   4.514   0.861   0.949  0.6302 -0.8542  0.0699
   29MOL   C10015836   4.528   0.909   0.585  0.0219  0.1543 -0.4669
   29MOL   C10115837   4.511   1.007   0.488  0.9557  0.1116 -0.5548
   29MOL   H10215838   4.243   0.994   0.094 -0.3220 -0.4586  1.4290
   29MOL   H10315839   4.361   1.013   0.207  2.1482  1.9567 -0.3786
   29MOL   H10415840   4.289   1.246   0.108 -0.2038 -0.1156  0.1429
   29MOL   H10515841   4.323   1.187   8.055 -1.9768  0.8726  0.7416
   29MOL   H10615842   4.582   1.158   0.053  1.1841  1.2833  1.7662
   29MOL   H10715843   4.524   1.319   8.095 -0.2246  1.1743  0.5625
   29MOL   H10815844   4.631   1.359   0.190  2.1118 -2.0634  1.0170
   29MOL   H10915845   4.461   1.385   0.217  0.4091  1.0531 -1.2160
   29MOL   H11015846   4.430   1.273   0.685  2.2258  0.5174 -0.1731
   29MOL   H11115847   4.456   1.092   0.860  1.4410 -2.1371 -0.2304
   29MOL   H11215848   4.554   0.808   0.558 -0.3868 -0.5007  1.4663
   29MOL   H11315849   4.528   0.971   0.387 -3.2752 -1.1179 -0.8995
   29MOL   O11415850   4.591   0.724   0.793 -0.7729 -0.3347  0.1581
   29MOL   C11515851   4.608   0.618   0.894 -0.2807 -0.4182  0.3306
   29MOL   C11615852   4.508   0.511   0.881  0.6301 -1.0877 -0.1628
   29MOL   C11715853   4.502   0.416   1.009 -0.2703  0.7603 -0.4032
   29MOL   C11815854   4.437   0.279   0.990 -0.8011 -0.4666 -0.1431
   29MOL   O11915855   4.419   0.219   1.113  0.1133  0.8016 -0.0496
   29MOL   C12015856   4.353   0.101   1.124  0.1909 -0.2571  0.4603
   29MOL   O12115857   4.300   0.053   1.027  0.4148 -0.0822  0.2283
   29MOL   C12215858   4.344   0.059   1.264  0.9485 -0.0674 -0.5441
   29MOL   C12315859   4.366   0.155   1.366  0.4094 -0.1127 -0.3950
   29MOL   C12415860   4.373   0.116   1.503  0.6033  1.1361 -0.3028
   29MOL   C12515861   4.370   8.076   1.538  0.0374  0.9531  0.6492
   29MOL   C12615862   4.390   8.034   1.676 -0.1149  0.1858  0.3471
   29MOL   O12715863   4.361   0.005   1.777 -0.7253 -0.3803 -0.0372
   29MOL   C12815864   4.343   7.976   1.439  0.0470  0.0464 -0.0019
   29MOL   C12915865   4.332   8.019   1.307 -0.4073 -0.2740  0.1294
   29MOL   H13015866   4.700   0.568   0.863 -0.8689 -0.7721 -0.9262
   29MOL   H13115867   4.620   0.664   0.992  2.4309  0.1748 -0.2407
   29MOL   H13215868   4.520   0.447   0.794 -0.2325 -0.1494 -0.9796
   29MOL   H13315869   4.408   0.554   0.880  0.1934 -2.0367  0.8871
   29MOL   H13415870   4.604   0.386   1.031 -0.7110  0.0001  0.6316
   29MOL   H13515871   4.458   0.476   1.089  2.1846  0.4769  1.2011
   29MOL   H13615872   4.344   0.286   0.933 -0.0629  4.2659 -0.9603
   29MOL   H13715873   4.496   0.216   0.924 -0.9758 -1.0454  0.2464
   29MOL   H13815874   4.375   0.260   1.342 -1.9551  0.0828 -0.5280
   29MOL   H13915875   4.394   0.190   1.579  0.0217  1.0382 -0.0413
   29MOL   H14015876   4.320   7.874   1.469 -2.0563  0.0515 -1.5813
   29MOL   H14115877   4.320   7.953   1.223 -0.0880 -0.5529  0.2996
   29MOL   O14215878   4.432   7.900   1.696 -0.1762  0.3361  0.1623
   29MOL   C14315879   4.477   7.872   1.820  0.6075 -1.1949  0.3949
   29MOL   C14415880   4.365   7.845   1.929  0.0092 -0.0646  0.7019
   29MOL   C14515881   4.436   7.804   2.059  0.6546 -0.0923  0.5402
   29MOL   C14615882   4.328   7.789   2.167 -0.4352 -0.4847 -0.0771
   29MOL   O14715883   4.392   7.765   2.294  0.3041 -0.0376  1.1019
   29MOL   C14815884   4.326   7.769   2.410  1.1105  0.2659  0.2595
   29MOL   O14915885   4.206   7.802   2.410  0.0683  0.3505 -0.0284
   29MOL   C15015886   4.409   7.752   2.525  0.6790  0.2457  0.2843
   29MOL   C15115887   4.347   7.739   2.658 -0.3961  0.2505  1.2867
   29MOL   C15215888   4.425   7.714   2.772  0.1126  0.6550 -0.2219
   29MOL   C15315889   4.565   7.699   2.754 -0.0234  0.2866 -0.1405
   29MOL   C15415890   4.652   7.693   2.877  0.1890 -0.2308  0.3676
   29MOL   O15515891   4.609   7.703   2.993  0.0455 -0.0986  0.1430
   29MOL   C15615892   4.628   7.713   2.631  0.0939  0.1236  0.5031
   29MOL   C15715893   4.549   7.731   2.512 -0.0095  0.8586 -0.3746
   29MOL   H15815894   4.537   7.782   1.803 -0.2193 -1.8855  1.1087
   29MOL   H15915895   4.540   7.956   1.850  1.8414 -1.8884 -0.2245
   29MOL   H16015896   4.300   7.763   1.898 -2.0121  1.9278 -0.5474
   29MOL   H16115897   4.294   7.928   1.930  0.6071  0.4444  2.1256
   29MOL   H16215898   4.483   7.707   2.046  0.9809  0.1052  0.2374
   29MOL   H16315899   4.522   7.868   2.083 -0.8171  2.1809 -0.0586
   29MOL   H16415900   4.277   7.884   2.184  0.9145  0.4524 -1.2292
   29MOL   H16515901   4.244   7.725   2.140 -1.4744  0.7054  0.2907
   29MOL   H16615902   4.240   7.732   2.666 -0.6001  2.1703  0.6041
   29MOL   H16715903   4.387   7.710   2.873  1.8847  0.3261  0.4585
   29MOL   H16815904   4.735   7.708   2.616  0.3514  2.1480  1.3461
   29MOL   H16915905   4.590   7.735   2.412 -2.2465 -3.7973 -1.6465
   29MOL   O17015906   4.779   7.701   2.846  0.0197  0.1318 -0.4187
   29MOL   C17115907   4.889   7.730   2.927  0.5123 -0.3387 -0.3578
   29MOL   C17215908   4.953   7.605   2.983  0.0247 -0.5600  0.2619
   29MOL   C17315909   5.001   7.502   2.877  0.1176 -0.5777  0.0539
   29MOL   C17415910   4.897   7.405   2.828  0.3204  0.3553  0.0341
   29MOL   O17515911   4.856   7.311   2.920 -0.2723  0.0784 -0.5608
   29MOL   C17615912   4.930   7.209   2.956  0.1181 -0.2140  0.3034
   29MOL   O17715913   5.035   7.177   2.902 -0.4910 -0.3023 -0.1469
   29MOL   C17815914   4.876   7.133   3.073  0.5196  0.1289 -0.4877
   29MOL   C17915915   4.955   7.045   3.147 -0.2684  0.1450 -0.5023
   29MOL   C18015916   4.913   6.973   3.267  0.2481  0.5398  0.1456
   29MOL   C18115917   4.780   6.986   3.304  0.7218  1.0588 -0.6623
   29MOL   C18215918   4.725   6.911   3.417  0.9445  0.2983 -0.1447
   29MOL   O18315919   4.797   6.839   3.484 -1.0610 -0.0483 -0.5132
   29MOL   C18415920   4.703   7.083   3.235  0.1391 -0.4433  0.0272
   29MOL   C18515921   4.742   7.139   3.113 -0.0027 -0.4748 -0.2644
   29MOL   H18615922   4.956   7.794   2.868  0.1366  0.3954 -0.0018
   29MOL   H18715923   4.854   7.794   3.009 -0.2822 -2.4110  0.9500
   29MOL   H18815924   4.892   7.551   3.055  0.0600  0.9694  1.4598
   29MOL   H18915925   5.043   7.638   3.034  0.9410  1.7383 -2.6911
   29MOL   H19015926   5.037   7.560   2.792  0.2728 -1.1383 -0.2624
   29MOL   H19115927   5.087   7.447   2.915  0.3477 -0.7659 -0.7243
   29MOL   H19215928   4.807   7.448   2.784  1.1919  0.3755 -1.7726
   29MOL   H19315929   4.943   7.353   2.743  0.7908 -0.2736  0.6736
   29MOL   H19415930   5.059   7.038   3.120  0.6414  0.0587  2.8687
   29MOL   H19515931   4.970   6.898   3.319 -0.6957 -0.6200 -0.4746
   29MOL   H19615932   4.597   7.090   3.255  0.0660  2.9052 -1.2486
   29MOL   H19715933   4.675   7.206   3.062  0.5971  0.5312  0.2550
   29MOL   O19815934   4.598   6.947   3.447  0.4261  0.1441 -0.6177
   29MOL   C19915935   4.538   6.894   3.567 -0.1164 -0.3344 -0.2556
   29MOL   C20015936   4.426   6.982   3.629  0.2853 -0.1039 -0.5236
   29MOL   C20115937   4.287   6.962   3.569 -0.5092  0.3447  0.0186
   29MOL   C20215938   4.197   7.066   3.636  0.1365  0.4785  0.0370
   29MOL   O20315939   4.065   7.072   3.579  0.9513  0.1929 -0.3965
   29MOL   C20415940   4.033   7.158   3.480  0.2785 -0.0896 -0.2474
   29MOL   O20515941   4.098   7.260   3.453 -0.0721  0.5848  0.0085
   29MOL   C20615942   3.901   7.126   3.420  0.0701 -0.3347 -0.4793
   29MOL   C20715943   3.833   7.229   3.347  0.5459 -0.1914 -0.7672
   29MOL   C20815944   3.709   7.205   3.290  0.2510 -0.3634  0.1683
   29MOL   C20915945   3.645   7.081   3.308 -0.3799  0.7408  0.0404
   29MOL   C21015946   3.506   7.048   3.259  0.0169 -0.8024 -0.2280
   29MOL   O21115947   3.454   6.938   3.253 -0.3631 -0.1429 -0.0877
   29MOL   C21215948   3.712   6.979   3.377  0.2483  0.4979 -0.2365
   29MOL   C21315949   3.836   7.005   3.435 -0.5610  0.2131 -1.1969
   29MOL   H21415950   4.479   6.803   3.550 -1.8713  0.9039 -0.9393
   29MOL   H21515951   4.612   6.884   3.646  0.4599 -2.4965 -1.0333
   29MOL   H21615952   4.446   7.090   3.632  0.2026 -0.0238 -2.3275
   29MOL   H21715953   4.431   6.950   3.733 -1.7300  0.8767 -0.1024
   29MOL   H21815954   4.283   6.985   3.462 -1.7190  3.1039  0.6068
   29MOL   H21915955   4.252   6.861   3.592 -0.9166  0.6520  0.7666
   29MOL   H22015956   4.204   7.058   3.745  1.3648 -0.7657 -0.1340
   29MOL   H22115957   4.239   7.162   3.608  3.1169 -1.4212 -2.2080
   29MOL   H22215958   3.885   7.323   3.335  1.3318 -0.7109 -1.4501
   29MOL   H22315959   3.670   7.291   3.238  1.7747  0.8920  1.0336
   29MOL   H22415960   3.667   6.882   3.395  2.4354 -0.5267 -0.0611
   29MOL   H22515961   3.876   6.922   3.493 -0.9723  0.1696 -0.9764
   29MOL   O22615962   3.435   7.165   3.226  0.3551  0.2723 -0.4105
   29MOL   C22715963   3.306   7.151   3.177 -0.2030  0.3993  0.3844
   29MOL   C22815964   3.190   7.185   3.279 -0.1823 -0.4193  0.4503
   29MOL   C22915965   3.052   7.137   3.225  0.2530  0.2221  0.1606
   29MOL   C23015966   3.023   6.995   3.243  0.8463 -0.1574 -0.1244
   29MOL   O23115967   2.900   6.968   3.188  0.4406 -0.1559 -0.3111
   29MOL   C23215968   2.872   6.849   3.144 -0.6467 -0.3046 -0.0320
   29MOL   O23315969   2.947   6.752   3.135 -0.1475 -0.3603  0.0764
   29MOL   C23415970   2.732   6.832   3.093  0.7789 -0.2457 -0.6958
   29MOL   C23515971   2.688   6.705   3.041 -0.1325 -0.2531  0.2891
   29MOL   C23615972   2.561   6.681   2.991 -0.5334  0.3263  0.3678
   29MOL   C23715973   2.462   6.778   3.002  0.4273 -0.1697  0.2371
   29MOL   C23815974   2.319   6.767   2.957 -0.0212 -0.2300 -0.3906
   29MOL   O23915975   2.232   6.844   3.000 -0.6346  0.1948 -0.4096
   29MOL   C24015976   2.509   6.905   3.049 -0.3388 -0.6686 -0.0288
   29MOL   C24115977   2.639   6.940   3.092 -0.4539 -0.0366 -0.0421
   29MOL   H24215978   3.288   7.220   3.094 -1.6606 -0.3522  0.0578
   29MOL   H24315979   3.291   7.051   3.137  1.7009  0.6512 -1.0301
   29MOL   H24415980   3.183   7.293   3.289 -1.0210 -0.6050  2.0415
   29MOL   H24515981   3.216   7.154   3.381 -0.3093  0.0772  0.6345
   29MOL   H24615982   2.987   7.200   3.287 -1.1860 -2.1362  1.1492
   29MOL   H24715983   3.025   7.168   3.124  0.4329 -0.0475  0.0308
   29MOL   H24815984   3.098   6.927   3.203  0.5485 -0.0330 -0.9025
   29MOL   H24915985   3.029   6.976   3.350  1.5748  1.7373  0.2080
   29MOL   H25015986   2.765   6.630   3.036  0.5918  0.5991 -1.7616
   29MOL   H25115987   2.534   6.578   2.970 -0.4815 -0.3830  3.5165
   29MOL   H25215988   2.435   6.983   3.055  0.3955  0.1057 -0.9504
   29MOL   H25315989   2.670   7.039   3.124  3.1399 -2.1809  3.5859
   29MOL   O25415990   2.313   6.673   2.860 -0.5754  0.4740  0.0844
   29MOL   C25515991   2.197   6.654   2.793  0.4000 -0.2447 -0.1938
   29MOL   C25615992   2.229   6.690   2.646 -0.2112  0.1127  0.2591
   29MOL   C25715993   2.256   6.841   2.620  1.0277  0.0288  0.1916
   29MOL   C25815994   2.135   6.923   2.676  0.1263 -0.2792 -0.0193
   29MOL   O25915995   2.118   7.032   2.583  0.6077  0.5123 -0.0590
   29MOL   C26015996   1.997   7.095   2.563  0.0592  0.3791 -0.8803
   29MOL   O26115997   1.908   7.092   2.650 -0.1181 -0.4663 -0.4756
   29MOL   C26215998   1.986   7.169   2.433 -0.3760 -0.1963  0.7823
   29MOL   C26315999   1.863   7.229   2.402 -0.0191 -0.2963  0.0750
   29MOL   C26416000   1.840   7.298   2.275 -0.4488 -0.0021 -0.1166
   29MOL   C26516001   1.944   7.307   2.183  0.3760 -0.2520 -0.2197
   29MOL   C26616002   1.936   7.379   2.052 -0.5208 -0.2887  0.0418
   29MOL   O26716003   2.020   7.392   1.968  0.5644 -0.8054  0.5355
   29MOL   C26816004   2.065   7.239   2.214  0.5595 -0.2821  0.8449
   29MOL   C26916005   2.088   7.173   2.339  0.1540 -0.4540 -0.1013
   29MOL   H27016006   2.169   6.550   2.806 -1.0574 -0.5225 -4.6335
   29MOL   H27116007   2.116   6.707   2.843 -0.0750 -1.1308 -0.0077
   29MOL   H27216008   2.155   6.664   2.570 -0.7166 -0.9736  1.1165
   29MOL   H27316009   2.308   6.622   2.613 -0.3293 -1.0992  2.3836
   29MOL   H27416010   2.340   6.873   2.681  0.5352  1.8710 -0.0352
   29MOL   H27516011   2.276   6.863   2.515 -3.7608  1.9963 -0.4716
   29MOL   H27616012   2.043   6.868   2.659  0.7222 -0.5571 -2.4347
   29MOL   H27716013   2.128   6.949   2.782 -0.3026  1.6200 -0.4904
   29MOL   H27816014   1.775   7.210   2.461  0.4560 -0.2805  0.7908
   29MOL   H27916015   1.752   7.349   2.240 -2.5928 -1.6970  2.5011
   29MOL   H28016016   2.151   7.243   2.148  0.7634 -0.0705  1.1188
   29MOL   H28116017   2.182   7.126   2.362  0.6798  0.9228  0.6332
   29MOL   O28216018   1.814   7.434   2.025 -0.1631 -0.2242 -0.2886
   29MOL   C28316019   1.803   7.546   1.938 -0.0229  0.3690  0.3369
   29MOL   C28416020   1.675   7.617   1.969 -0.3532  0.3446  0.4626
   29MOL   C28516021   1.568   7.575   1.866 -1.0141 -0.0362 -0.2988
   29MOL   C28616022   1.446   7.661   1.882  1.0265  1.5007 -0.5530
   29MOL   O28716023   1.353   7.632   1.778  0.5735 -0.2573 -0.1348
   29MOL   C28816024   1.303   7.725   1.699  0.1833 -0.6123 -0.2922
   29MOL   O28916025   1.334   7.842   1.706 -0.1645 -0.1151  0.3210
   29MOL   C29016026   1.209   7.674   1.597  0.1845  0.0086 -0.5658
   29MOL   C29116027   1.190   7.533   1.596 -0.4256  0.4340  0.6437
   29MOL   C29216028   1.105   7.479   1.495 -0.6470 -0.0688 -1.4129
   29MOL   C29316029   1.042   7.558   1.398 -0.1692  0.4236  0.0713
   29MOL   C29416030   0.955   7.499   1.292  0.3126 -0.5086 -0.1255
   29MOL   O29516031   0.924   7.383   1.288 -0.4117  0.3289 -0.1320
   29MOL   C29616032   1.071   7.695   1.401  0.2804  0.0061 -0.3642
   29MOL   C29716033   1.143   7.758   1.504 -0.3892 -0.2862 -0.2844
   29MOL   H29816034   1.881   7.617   1.963  1.1365  0.5787 -3.5406
   29MOL   H29916035   1.822   7.515   1.835 -2.5312  0.1763 -0.1172
   29MOL   H30016036   1.697   7.723   1.958 -0.4421  0.1976 -1.1892
   29MOL   H30116037   1.639   7.605   2.072 -1.1031  2.0038  0.4010
   29MOL   H30216038   1.617   7.578   1.769  1.4848 -0.4141  0.9184
   29MOL   H30316039   1.546   7.470   1.881 -3.2773  0.3593 -0.6086
   29MOL   H30416040   1.403   7.648   1.981 -0.5711  0.5938 -1.3528
   29MOL   H30516041   1.485   7.762   1.871  0.0119  1.9117 -0.4045
   29MOL   H30616042   1.240   7.471   1.669 -0.6325 -0.8499 -0.2811
   29MOL   H30716043   1.085   7.373   1.505 -0.1535 -0.2178 -1.9974
   29MOL   H30816044   1.018   7.760   1.334 -1.0644  0.5205  1.1600
   29MOL   H30916045   1.141   7.865   1.511  2.8927  0.0927 -3.3439
   29MOL   O31016046   0.893   7.593   1.221  0.0146 -0.0261 -0.3801
   29MOL   C31116047   0.782   7.569   1.139  0.0940 -0.2959 -0.0450
   29MOL   C31216048   0.649   7.583   1.215  0.0862  0.8688  0.6196
   29MOL   C31316049   0.602   7.453   1.279 -0.2893  0.4272 -0.9023
   29MOL   C31416050   0.458   7.453   1.333  0.3484 -0.2584  0.3446
   29MOL   O31516051   0.453   7.525   1.455  0.4541  0.1810  0.1532
   29MOL   C31616052   0.342   7.520   1.537 -0.2038 -0.9809  0.2330
   29MOL   O31716053   0.233   7.475   1.495 -1.1265  0.0027  0.2767
   29MOL   C31816054   0.362   7.595   1.658  0.3385  0.5229  1.0199
   29MOL   C31916055   0.254   7.622   1.748 -0.1073  0.0047  0.1617
   29MOL   C32016056   0.269   7.681   1.877 -0.2944 -0.5626 -0.1662
   29MOL   C32116057   0.396   7.724   1.913 -0.3473  0.2311 -0.2971
   29MOL   C32216058   0.418   7.767   2.049  0.9023 -0.3973  0.3796
   29MOL   O32316059   0.322   7.795   2.123  1.0013  0.0464 -0.3057
   29MOL   C32416060   0.503   7.715   1.818 -1.0088  0.1865  0.3639
   29MOL   C32516061   0.492   7.646   1.697  0.6757  0.1428 -0.1742
   29MOL   H32616062   0.786   7.638   1.055  0.3327  0.1208  0.3053
   29MOL   H32716063   0.789   7.469   1.097  0.6985 -0.7995  1.2141
   29MOL   H32816064   0.582   7.599   1.131  1.8414  0.1824 -0.9526
   29MOL   H32916065   0.624   7.678   1.262 -0.5466  0.9619  0.1058
   29MOL   H33016066   0.608   7.374   1.204 -0.6554  0.7569 -1.2794
   29MOL   H33116067   0.680   7.419   1.347 -1.1773  1.0433  0.4423
   29MOL   H33216068   0.387   7.498   1.262  0.9548 -2.8948 -2.0347
   29MOL   H33316069   0.416   7.357   1.363 -2.7340  1.0787  0.5729
   29MOL   H33416070   0.159   7.585   1.711  0.5537  0.2072 -1.8169
   29MOL   H33516071   0.183   7.689   1.941  0.1029 -0.7386  0.3879
   29MOL   H33616072   0.604   7.737   1.852 -0.5490 -2.7119  1.0590
   29MOL   H33716073   0.580   7.630   1.636  2.0116  2.0386  1.1859
   29MOL   O33816074   0.548   7.796   2.079 -0.4719 -0.1969 -0.2748
   29MOL   C33916075   0.580   7.842   2.211 -0.5793  0.0765  0.1538
   29MOL   C34016076   0.606   7.706   2.286  0.0423  0.0129  0.4286
   29MOL   C34116077   0.629   7.712   2.433 -0.5817 -0.5514  0.4716
   29MOL   C34216078   0.772   7.760   2.470  0.3762 -0.1198  0.0705
   29MOL   O34316079   0.782   7.778   2.608 -0.2909  0.2175 -0.1055
   29MOL   C34416080   0.732   7.877   2.670  0.4250 -0.0849  0.5529
   29MOL   O34516081   0.675   7.969   2.607 -0.0111 -0.0402 -0.2588
   29MOL   C34616082   0.737   7.864   2.817 -0.2228  1.2575  0.0444
   29MOL   C34716083   0.817   7.765   2.877  0.1471 -0.0575  0.6615
   29MOL   C34816084   0.822   7.757   3.017  0.0732 -0.2785 -0.1679
   29MOL   C34916085   0.732   7.830   3.099 -0.0015  0.8390  0.0353
   29MOL   C35016086   0.745   7.815   3.248 -0.1131 -0.4003  0.2938
   29MOL   O35116087   0.659   7.856   3.331  0.5215 -0.0583 -0.3292
   29MOL   C35216088   0.635   7.908   3.038 -0.1041 -0.7356  0.2511
   29MOL   C35316089   0.640   7.929   2.900  0.1139  0.4802  0.6448
   29MOL   H35416090   0.672   7.896   2.190 -1.8291  2.8273  1.4912
   29MOL   H35516091   0.504   7.907   2.253  0.7962 -0.9283  4.4625
   29MOL   H35616092   0.680   7.648   2.231 -0.4899  0.8377 -1.1825
   29MOL   H35716093   0.512   7.652   2.275  0.8611 -1.7071  1.6457
   29MOL   H35816094   0.556   7.775   2.484  1.1599  1.1627  0.9468
   29MOL   H35916095   0.611   7.616   2.479  1.7736 -1.6673 -0.8375
   29MOL   H36016096   0.838   7.685   2.426  1.3522 -0.0125  1.3495
   29MOL   H36116097   0.794   7.852   2.416 -2.2509  0.9288  0.7093
   29MOL   H36216098   0.886   7.706   2.818 -0.2308  0.1028  0.0665
   29MOL   H36316099   0.887   7.686   3.066  0.4522  0.8666  1.0084
   29MOL   H36416100   0.570   7.972   3.097 -0.5208 -1.5101  0.6461
   29MOL   H36516101   0.576   8.008   2.863  1.3313  0.7609 -0.9217
   29MOL   O36616102   0.858   7.765   3.286  0.8375 -0.3525 -0.1292
   29MOL   C36716103   0.880   7.738   3.424 -0.7106 -0.2253 -0.0756
   29MOL   C36816104   0.969   7.620   3.442 -0.4484  0.4787  0.1045
   29MOL   C36916105   0.903   7.487   3.394 -0.2151  0.3201  0.3451
   29MOL   C37016106   1.004   7.367   3.423 -0.3946 -0.5957  0.3169
   29MOL   O37116107   0.982   7.332   3.562  0.0236  0.4476 -0.2731
   29MOL   C37216108   1.097   7.283   3.632  0.6577 -0.6652  0.6088
   29MOL   O37316109   1.207   7.261   3.587  0.1178  0.0932  0.4486
   29MOL   C37416110   1.068   7.247   3.770 -0.0171  0.0065  0.5307
   29MOL   C37516111   0.934   7.263   3.821 -0.3729  0.2175  0.9931
   29MOL   C37616112   0.914   7.251   3.958 -0.4672  0.3582  0.3641
   29MOL   C37716113   1.015   7.214   4.051  0.2404  0.7316  0.4725
   29MOL   C37816114   0.976   7.191   4.193 -0.1187 -0.1182 -0.1078
   29MOL   O37916115   0.860   7.184   4.239  0.4115  0.1564  0.3125
   29MOL   C38016116   1.145   7.195   4.000  0.2110  0.0297 -0.0270
   29MOL   C38116117   1.170   7.215   3.860 -0.5544  0.0208 -0.2556
   29MOL   H38216118   0.911   7.831   3.472  2.5575 -1.3200  0.0070
   29MOL   H38316119   0.784   7.714   3.470 -1.0216  1.0171 -0.0496
   29MOL   H38416120   1.000   7.607   3.546  0.2135 -0.2718 -0.1876
   29MOL   H38516121   1.059   7.642   3.385  0.8396 -1.4993  1.3128
   29MOL   H38616122   0.809   7.463   3.442 -0.5761  2.7604  0.9134
   29MOL   H38716123   0.889   7.491   3.286 -0.1871  0.6022  0.3531
   29MOL   H38816124   0.976   7.285   3.357 -1.5268  1.9306 -2.4078
   29MOL   H38916125   1.105   7.404   3.406 -0.6199  0.0111  0.2950
   29MOL   H39016126   0.853   7.299   3.759  0.8145  1.9982  0.4189
   29MOL   H39116127   0.809   7.266   3.982 -0.1665 -0.2470  2.1581
   29MOL   H39216128   1.223   7.158   4.065  0.8563 -1.2482 -1.4879
   29MOL   H39316129   1.268   7.203   3.816 -0.9968  1.5077 -1.7010
   29MOL   O39416130   1.081   7.164   4.276  0.4036  0.4429 -0.4264
   29MOL   C39516131   1.067   7.155   4.424  0.1102 -0.2350  0.3715
   29MOL   C39616132   1.032   7.012   4.447 -0.5582  0.3601 -0.0996
   29MOL   C39716133   1.146   6.917   4.400 -0.0008 -0.5325  0.2587
   29MOL   C39816134   1.173   6.788   4.460  0.6151 -0.0337  0.1344
   29MOL   O39916135   1.047   6.736   4.501 -0.3947 -0.3473  0.5587
   29MOL   C40016136   1.037   6.625   4.577  0.1761  0.8211 -0.0970
   29MOL   O40116137   1.135   6.558   4.610  0.5256  0.2953 -0.1473
   29MOL   C40216138   0.901   6.584   4.618  0.9429 -0.2681  0.4659
   29MOL   C40316139   0.876   6.504   4.729  0.3720  0.4558 -0.7901
   29MOL   C40416140   0.748   6.497   4.781  0.1443 -0.4274 -0.2016
   29MOL   C40516141   0.637   6.560   4.715 -0.1236 -0.0218 -0.1947
   29MOL   C40616142   0.501   6.538   4.772 -0.3310 -0.1629  0.7767
   29MOL   O40716143   0.475   6.460   4.859 -0.0644  0.8899 -0.0345
   29MOL   C40816144   0.662   6.637   4.599 -0.3225  0.2088 -0.3004
   29MOL   C40916145   0.792   6.656   4.555  0.4814 -0.3193 -0.7237
   29MOL   H41016146   1.163   7.190   4.463  1.2293  0.0120 -2.5041
   29MOL   H41116147   0.997   7.222   4.475 -2.0244 -1.8520 -0.3750
   29MOL   H41216148   0.946   6.979   4.388  0.2140 -2.0893  0.1012
   29MOL   H41316149   1.025   6.996   4.554 -0.4591  2.7433  0.2862
   29MOL   H41416150   1.123   6.909   4.294 -0.4238 -1.1102  0.3928
   29MOL   H41516151   1.240   6.971   4.408  0.1224 -0.0399 -3.4609
   29MOL   H41616152   1.216   6.725   4.383  1.8271  0.2310  0.5941
   29MOL   H41716153   1.252   6.793   4.535 -0.3242  0.0049  1.1375
   29MOL   H41816154   0.954   6.453   4.782  0.0054  0.0184 -0.6723
   29MOL   H41916155   0.719   6.442   4.869 -0.0848  1.7403  1.1085
   29MOL   H42016156   0.580   6.674   4.539 -0.0894  0.2302 -0.6034
   29MOL   H42116157   0.804   6.718   4.468 -1.1775  1.1619  0.0588
   29MOL   O42216158   0.403   6.623   4.724  0.3207  0.2515  0.4098
   29MOL   C42316159   0.269   6.603   4.747 -1.1420 -0.0265  0.1396
   29MOL   C42416160   0.205   6.590   4.607 -0.9107  0.2027 -0.2193
   29MOL   C42516161   0.188   6.439   4.561  0.4939 -0.5321  0.4816
   29MOL   C42616162   0.114   6.421   4.427  0.3853  0.2924  0.0383
   29MOL   O42716163   0.191   6.478   4.318  0.1898  0.1301 -0.1500
   29MOL   C42816164   0.178   6.441   4.189  0.3419 -0.5009  0.5694
   29MOL   O42916165   0.102   6.351   4.156 -0.6066 -0.2065  0.6601
   29MOL   C43016166   0.277   6.511   4.103  0.4156  0.7669 -0.6935
   29MOL   C43116167   0.370   6.613   4.151  0.5617  0.1379  0.9021
   29MOL   C43216168   0.450   6.687   4.058 -0.2362  0.5465  0.3683
   29MOL   C43316169   0.445   6.655   3.921  0.1224 -0.0329  0.0908
   29MOL   C43416170   0.536   6.726   3.827 -0.0523  0.0996  0.5768
   29MOL   O43516171   0.595   6.828   3.864 -0.1594 -0.3664 -0.5929
   29MOL   C43616172   0.361   6.551   3.873 -0.2815  0.0060 -1.0527
   29MOL   C43716173   0.276   6.484   3.963 -0.1469 -0.5377  0.2461
   29MOL   H43816174   0.252   6.513   4.807  0.0940  0.6273  1.4885
   29MOL   H43916175   0.230   6.685   4.807 -0.4722 -0.2170  0.8505
   29MOL   H44016176   0.264   6.632   4.525 -1.1206  1.7243  0.3942
   29MOL   H44116177   0.104   6.629   4.623 -0.4639  2.7124 -3.1044
   29MOL   H44216178   0.289   6.396   4.563  0.7834  0.1235  0.2287
   29MOL   H44316179   0.125   6.377   4.624  1.3011 -3.2431 -1.3049
   29MOL   H44416180   0.094   6.314   4.417 -3.0537  0.8832 -0.1754
   29MOL   H44516181   0.019   6.473   4.439 -0.0696 -0.2011 -1.3537
   29MOL   H44616182   0.377   6.635   4.256 -0.0126 -0.4656  1.0737
   29MOL   H44716183   0.519   6.763   4.093  0.7102  0.5653 -1.4463
   29MOL   H44816184   0.355   6.529   3.767  0.7568  2.0295 -1.5604
   29MOL   H44916185   0.206   6.410   3.927 -0.1926 -0.6143  0.4876
   29MOL   O45016186   0.546   6.659   3.707 -0.0059 -0.2678 -0.2068
   29MOL   C45116187   0.667   6.674   3.626  0.3280 -0.0376  0.1684
   29MOL   C45216188   0.728   6.539   3.595 -0.6075  0.4589  0.4052
   29MOL   C45316189   0.645   6.430   3.532  0.3811 -0.2273  0.2309
   29MOL   C45416190   0.581   6.481   3.404  0.3380  0.1085 -0.7171
   29MOL   O45516191   0.676   6.521   3.305 -0.0679 -0.2028  0.1902
   29MOL   C45616192   0.731   6.427   3.220  0.8280  0.3961 -0.3165
   29MOL   O45716193   0.726   6.309   3.234 -0.3168 -0.1343 -0.3567
   29MOL   C45816194   0.792   6.486   3.098 -0.2693  0.5525 -0.2118
   29MOL   C45916195   0.828   6.405   2.985  0.0680 -0.0170  0.5644
   29MOL   C46016196   0.871   6.462   2.865  0.7103  0.1314 -0.1283
   29MOL   C46116197   0.893   6.597   2.856  0.5926  0.1806 -0.4991
   29MOL   C46216198   0.942   6.653   2.724  0.1112  0.1810 -0.0233
   29MOL   O46316199   0.941   6.773   2.690 -0.1524 -0.1102  0.1017
   29MOL   C46416200   0.860   6.681   2.967  0.4018 -0.4099  1.2191
   29MOL   C46516201   0.801   6.626   3.086  0.0999  0.0682 -0.7889
   29MOL   H46616202   0.630   6.724   3.537  0.9528  1.8169  0.9404
   29MOL   H46716203   0.739   6.744   3.667  0.7427 -0.3853  0.0415
   29MOL   H46816204   0.777   6.504   3.686  1.1677  1.2732 -0.2045
   29MOL   H46916205   0.811   6.561   3.528 -2.0161 -1.0304 -1.8969
   29MOL   H47016206   0.694   6.336   3.505  1.1383  0.4444 -0.7344
   29MOL   H47116207   0.564   6.401   3.599  2.1313 -2.2744  1.5212
   29MOL   H47216208   0.512   6.406   3.365 -0.2869  0.9905 -1.3406
   29MOL   H47316209   0.517   6.565   3.431  0.6932 -0.3066  1.4638
   29MOL   H47416210   0.819   6.298   2.996  1.4083 -0.1279  0.6836
   29MOL   H47516211   0.885   6.396   2.781  0.4579  0.7492 -0.6585
   29MOL   H47616212   0.862   6.788   2.957  2.4356 -0.5680 -0.6753
   29MOL   H47716213   0.772   6.695   3.164 -1.0701  0.5251 -1.6090
   29MOL   O47816214   0.996   6.554   2.646 -0.5788 -0.5812  0.1929
   29MOL   C47916215   1.059   6.574   2.515 -0.4933  0.0935  0.0793
   29MOL   C48016216   1.150   6.457   2.486  0.1369  0.0965 -0.7311
   29MOL   C48116217   1.066   6.329   2.474 -0.3424  0.6613 -0.3129
   29MOL   C48216218   1.144   6.202   2.437 -0.0723 -0.0045  0.0771
   29MOL   O48316219   1.057   6.093   2.431  0.6941  0.2726 -0.1284
   29MOL   C48416220   1.078   5.984   2.511  0.0078  0.3141  0.8513
   29MOL   O48516221   1.165   5.977   2.592 -0.1898 -0.3323 -0.0122
   29MOL   C48616222   0.975   5.877   2.491 -0.1318  0.7095  0.0328
   29MOL   C48716223   1.004   5.750   2.551 -0.6572 -0.2235 -0.1211
   29MOL   C48816224   0.909   5.647   2.545  0.0733  0.3635 -0.1069
   29MOL   C48916225   0.795   5.658   2.460  0.7539  0.4883 -0.0204
   29MOL   C49016226   0.698   5.541   2.444 -0.0307  0.3719 -0.1646
   29MOL   O49116227   0.594   5.547   2.370  0.2752 -0.4719  0.2283
   29MOL   C49216228   0.776   5.776   2.384  0.3771 -0.4661  0.0540
   29MOL   C49316229   0.870   5.881   2.401 -0.0498 -0.0915 -0.0027
   29MOL   H49416230   0.979   6.571   2.441 -1.7273  1.2274  1.3338
   29MOL   H49516231   1.118   6.664   2.498  0.4956 -0.4318  0.6777
   29MOL   H49616232   1.223   6.442   2.566 -1.7154  1.9758  1.3739
   29MOL   H49716233   1.215   6.479   2.402  1.3794  0.8464  0.3936
   29MOL   H49816234   1.009   6.312   2.565  0.9543  0.4057  0.4583
   29MOL   H49916235   0.985   6.340   2.402 -1.4188 -0.1635  0.7487
   29MOL   H50016236   1.203   6.222   2.347  0.8380  2.1602  1.1045
   29MOL   H50116237   1.224   6.187   2.510 -1.0418 -2.1808  0.7120
   29MOL   H50216238   1.095   5.726   2.603 -0.7767  2.4552  1.4761
   29MOL   H50316239   0.932   5.553   2.592 -3.1042 -0.3494  0.1204
   29MOL   H50416240   0.692   5.796   2.318 -1.5914  1.2015  2.9548
   29MOL   H50516241   0.855   5.972   2.344  0.1764 -0.5110 -0.7418
   29MOL   O50616242   0.733   5.439   2.509 -0.0927  0.3721 -0.1666
   29MOL   C50716243   0.666   5.318   2.497  0.3226  0.1072  0.2910
   29MOL   C50816244   0.700   5.225   2.621 -0.0748  0.3598 -0.8243
   29MOL   C50916245   0.603   5.113   2.651  0.5726 -0.1879 -1.1217
   29MOL   C51016246   0.626   5.040   2.787 -0.3651 -0.3581 -0.4593
   29MOL   O51116247   0.747   4.961   2.795 -0.0087  0.0081 -0.3260
   29MOL   C51216248   0.745   4.830   2.748 -0.2250  0.3892 -0.2261
   29MOL   O51316249   0.649   4.773   2.696 -0.3651 -0.4860 -0.4160
   29MOL   C51416250   0.883   4.770   2.759 -0.1326 -0.4285 -0.5558
   29MOL   C51516251   0.973   4.816   2.850  0.2844 -0.2131 -0.0168
   29MOL   C51616252   1.103   4.762   2.854 -0.1247 -0.3944 -0.1666
   29MOL   C51716253   1.131   4.643   2.778  0.6136 -1.1607 -0.1589
   29MOL   C51816254   1.271   4.592   2.791 -0.6705 -0.7253  0.2064
   29MOL   O51916255   1.362   4.662   2.838 -0.2300  0.6427  0.3832
   29MOL   C52016256   1.033   4.582   2.692 -0.0538 -0.9231  0.5435
   29MOL   C52116257   0.907   4.651   2.683 -0.3148  0.3816 -0.3940
   29MOL   H52216258   0.560   5.337   2.488  0.5189  0.3310 -1.7486
   29MOL   H52316259   0.696   5.262   2.409 -0.4239  3.7704 -2.3977
   29MOL   H52416260   0.705   5.283   2.713  2.6256 -0.6399 -0.3088
   29MOL   H52516261   0.801   5.185   2.617  0.6708  2.1685 -0.4525
   29MOL   H52616262   0.504   5.156   2.663 -0.0360 -1.5280 -1.2530
   29MOL   H52716263   0.600   5.034   2.576 -1.6299 -1.0956 -0.1420
   29MOL   H52816264   0.641   5.110   2.870 -0.3270  0.5652 -1.2263
   29MOL   H52916265   0.536   4.984   2.810 -0.2619 -1.1890 -2.0160
   29MOL   H53016266   0.946   4.900   2.914  0.7120  0.3134 -0.5258
   29MOL   H53116267   1.179   4.793   2.924 -1.2566 -0.4329  1.1086
   29MOL   H53216268   1.050   4.500   2.623 -2.6516  0.2381 -1.5489
   29MOL   H53316269   0.845   4.599   2.611  1.4365 -0.4180 -1.3485
   29MOL   O53416270   1.285   4.466   2.750 -0.3726 -0.0083 -0.0692
   29MOL   C53516271   1.411   4.413   2.735  0.2148 -0.0580  0.0831
   29MOL   C53616272   1.402   4.282   2.666  0.5699  0.5429 -1.5270
   29MOL   C53716273   1.379   4.298   2.515 -0.0160  0.8777 -0.5365
   29MOL   C53816274   1.484   4.364   2.431  0.0075  0.0868  0.2810
   29MOL   O53916275   1.591   4.275   2.452 -0.2445  0.0330 -0.2561
   29MOL   C54016276   1.703   4.292   2.379  0.3278 -0.6959 -0.8227
   29MOL   O54116277   1.727   4.379   2.293 -0.2653 -0.2854  0.1913
   29MOL   C54216278   1.810   4.200   2.426  0.3608  0.2740  0.2966
   29MOL   C54316279   1.799   4.117   2.537  0.0806  0.4738 -0.6151
   29MOL   C54416280   1.897   4.016   2.554  0.1187  0.3391  0.0864
   29MOL   C54516281   2.018   4.023   2.486  0.2518  0.1716 -0.8008
   29MOL   C54616282   2.114   3.918   2.502 -0.6592  0.8054  0.6729
   29MOL   O54716283   2.224   3.907   2.444 -0.0971  0.2867 -0.5205
   29MOL   C54816284   2.031   4.113   2.380 -0.0778 -0.5196 -0.0145
   29MOL   C54916285   1.933   4.205   2.358 -0.3996  0.2611 -0.1987
   29MOL   H55016286   1.480   4.488   2.697 -0.7335  0.5788 -0.4046
   29MOL   H55116287   1.444   4.384   2.835  1.6729  2.5838  0.3885
   29MOL   H55216288   1.330   4.217   2.718  1.1030 -0.3974 -1.9590
   29MOL   H55316289   1.498   4.232   2.676 -0.3315 -0.7087  2.0575
   29MOL   H55416290   1.358   4.204   2.466 -1.3886  0.7280  0.2829
   29MOL   H55516291   1.294   4.366   2.506 -0.2597  0.8068  0.9983
   29MOL   H55616292   1.458   4.377   2.326 -2.1778 -2.2636  0.5034
   29MOL   H55716293   1.504   4.466   2.462  1.7956 -0.0734 -0.2641
   29MOL   H55816294   1.714   4.114   2.603  0.1455  0.2904 -0.5402
   29MOL   H55916295   1.885   3.950   2.639  3.1133  1.7312  1.6903
   29MOL   H56016296   2.122   4.123   2.324  0.4874 -2.4454  0.5099
   29MOL   H56116297   1.948   4.274   2.276 -0.9842  0.3537 -0.2350
   29MOL   H56216298   2.078   3.851   2.580 -0.9690 -0.6701 -0.7189
   30MOL     O116299   6.418   2.278   7.164 -0.4209 -0.1200  0.2456
   30MOL     C216300   6.484   2.317   7.283 -0.3000  0.3641 -0.5781
   30MOL     C316301   6.627   2.377   7.266  1.0212 -0.1032  0.7776
   30MOL     C416302   6.690   2.429   7.398 -0.3937  0.2887  0.3387
   30MOL     C516303   6.754   2.314   7.480  0.7393 -0.4014  0.1898
   30MOL     O616304   6.822   2.388   7.581 -0.2927  0.1895  0.0525
   30MOL     C716305   6.927   2.332   7.634 -0.0600  0.1849  0.1805
   30MOL     O816306   6.971   2.224   7.588 -0.2156  0.0032 -0.1038
   30MOL     C916307   6.987   2.405   7.748 -0.6208  0.6553  0.3119
   30MOL    C1016308   7.102   2.351   7.810  0.1646 -0.0039  0.3882
   30MOL    C1116309   7.161   2.421   7.916  0.5440 -0.1967  0.4503
   30MOL    C1216310   7.100   2.541   7.958 -0.0376  0.0423 -0.4309
   30MOL    C1316311   7.164   2.615   8.076 -0.2307  0.1213  0.1151
   30MOL    O1416312   7.116   2.722   0.024  0.2557  0.2580 -0.5086
   30MOL    C1516313   6.979   2.593   7.901  0.1742 -0.1791 -0.1493
   30MOL    C1616314   6.925   2.528   7.789  0.9465 -0.3673 -0.3057
   30MOL    H1716315   6.419   2.379   7.343 -1.0708 -2.9164  2.1146
   30MOL    H1816316   6.497   2.222   7.336 -2.0382  0.9589  0.9482
   30MOL    H1916317   6.616   2.467   7.205  1.3111  0.2059  1.1812
   30MOL    H2016318   6.688   2.296   7.224 -0.1597 -0.6826  0.1591
   30MOL    H2116319   6.765   2.503   7.370 -0.1442 -0.4154 -0.8486
   30MOL    H2216320   6.610   2.478   7.455 -0.2536  0.7403  0.1491
   30MOL    H2316321   6.676   2.248   7.520  1.8654 -1.8049  0.1279
   30MOL    H2416322   6.808   2.250   7.410 -0.0652 -1.0102  0.1156
   30MOL    H2516323   7.157   2.260   7.788  0.1004  0.3113 -1.1710
   30MOL    H2616324   7.248   2.380   7.964  0.8355 -1.1399 -0.8484
   30MOL    H2716325   6.944   2.682   7.951  0.5941  0.2264 -0.5828
   30MOL    H2816326   6.847   2.580   7.735  1.9607 -0.4183 -1.8491
   30MOL    H2916327   6.344   2.222   7.185 -0.8716 -0.6583 -2.6162
   30MOL    O3016328   7.276   2.552   0.037  0.1078 -0.6350  0.1304
   30MOL    C3116329   7.327   2.590   0.165 -0.7587  0.9628 -0.1402
   30MOL    C3216330   7.449   2.688   0.154  0.1289  0.1731 -0.8567
   30MOL    C3316331   7.409   2.833   0.128 -0.3354 -0.1260  0.0930
   30MOL    C3416332   7.521   2.932   0.145 -0.3572 -0.7532  0.2967
   30MOL    O3516333   7.629   2.897   0.056  0.1694  0.1680 -0.7714
   30MOL    C3616334   7.680   2.996   8.070  0.0535  0.1362 -0.5045
   30MOL    O3716335   7.642   3.111   8.070  0.2744 -0.5418  0.5980
   30MOL    C3816336   7.784   2.943   7.983  0.0868  0.2444 -0.8175
   30MOL    C3916337   7.786   2.807   7.956  0.0412 -0.5460  0.1615
   30MOL    C4016338   7.877   2.753   7.865  0.1148 -0.0665 -0.6092
   30MOL    C4116339   7.966   2.835   7.800 -0.3900 -0.2491  0.2456
   30MOL    C4216340   8.072   2.775   7.713  0.1473  0.4358  0.2528
   30MOL    O4316341   0.058   2.844   7.652  0.5790 -0.3296  0.2814
   30MOL    C4416342   7.967   2.973   7.824  0.1678 -0.0373 -0.4454
   30MOL    C4516343   7.875   3.030   7.914  0.1111  0.2172 -0.0164
   30MOL    H4616344   7.254   2.619   0.240  0.0715 -1.6499  1.7573
   30MOL    H4716345   7.361   2.495   0.209 -0.2390  0.0158 -2.4924
   30MOL    H4816346   7.514   2.659   0.072  0.0259  0.8850 -1.2008
   30MOL    H4916347   7.497   2.677   0.251 -2.0490  1.8929  0.4769
   30MOL    H5016348   7.360   2.832   0.031 -2.0003 -1.0746  0.9121
   30MOL    H5116349   7.339   2.857   0.208 -0.1398 -1.0019  0.5363
   30MOL    H5216350   7.475   3.028   0.120  0.0524 -0.5794  0.2009
   30MOL    H5316351   7.581   2.938   0.236 -1.0351 -1.2432  0.7789
   30MOL    H5416352   7.720   2.735   8.002  0.2598 -0.0471  1.2746
   30MOL    H5516353   7.875   2.645   7.863 -1.1878 -0.1607  2.5536
   30MOL    H5616354   8.039   3.038   7.778  0.6584 -0.7237 -0.6527
   30MOL    H5716355   7.867   3.136   7.932 -0.4351 -0.2419  2.6905
   30MOL    O5816356   8.052   2.647   7.696 -0.1933  0.0863 -0.1248
   30MOL    C5916357   0.054   2.566   7.638  0.4115  0.1200 -0.0368
   30MOL    C6016358   8.087   2.473   7.528  0.2536  0.7648  0.6433
   30MOL    C6116359   8.012   2.354   7.580 -0.2859 -0.2767  0.3232
   30MOL    C6216360   7.927   2.288   7.465 -0.2920 -0.4158 -0.3175
   30MOL    O6316361   8.007   2.231   7.372  0.6733 -0.5653 -0.0385
   30MOL    C6416362   7.951   2.175   7.261  0.2215 -0.6880 -0.0363
   30MOL    O6516363   7.828   2.165   7.236  0.1157  0.5602  0.2625
   30MOL    C6616364   8.052   2.121   7.163 -0.1556  0.5313 -0.7597
   30MOL    C6716365   8.006   2.068   7.043 -0.3583 -0.3455  0.0715
   30MOL    C6816366   8.097   2.021   6.946 -0.9537 -0.2094  0.3300
   30MOL    C6916367   0.138   2.015   6.976  0.1307  0.8039  0.2381
   30MOL    C7016368   0.231   1.958   6.878  0.1184 -0.0639  0.2048
   30MOL    O7116369   0.196   1.904   6.771  1.0962 -0.0298 -0.4048
   30MOL    C7216370   0.183   2.060   7.103 -0.1424  0.0947 -0.1511
   30MOL    C7316371   0.093   2.119   7.192  0.0215 -0.0068 -0.1279
   30MOL    H7416372   0.143   2.614   7.597 -1.6620  2.1355 -2.3133
   30MOL    H7516373   0.080   2.507   7.726  0.1738  1.2491  0.7933
   30MOL    H7616374   0.073   2.442   7.466 -0.1032 -0.7819  0.8967
   30MOL    H7716375   8.015   2.543   7.485 -0.4064  0.8263  1.8263
   30MOL    H7816376   8.077   2.281   7.629  1.7011  2.8379  2.4624
   30MOL    H7916377   7.935   2.378   7.653 -1.4059  3.1861 -1.8779
   30MOL    H8016378   7.872   2.212   7.520  0.1523  0.2966  1.1422
   30MOL    H8116379   7.866   2.362   7.413 -0.2788 -1.6431 -2.1210
   30MOL    H8216380   7.901   2.065   7.022  0.1910 -2.1932 -2.6969
   30MOL    H8316381   8.055   1.980   6.856  1.1291  2.8880 -2.1575
   30MOL    H8416382   0.290   2.060   7.117  0.0530  0.9070 -1.5922
   30MOL    H8516383   0.137   2.148   7.287 -0.3723 -1.6123  0.5675
   30MOL    O8616384   0.364   1.980   6.913 -0.2219  0.4683 -0.0365
   30MOL    C8716385   0.462   1.911   6.843 -0.4388 -0.0913 -0.0354
   30MOL    C8816386   0.603   1.968   6.881 -0.2589 -1.1302 -0.4817
   30MOL    C8916387   0.667   1.931   7.018  0.3420 -0.2416 -0.8372
   30MOL    C9016388   0.604   1.991   7.145 -0.2173 -0.4785  0.2820
   30MOL    O9116389   0.654   2.131   7.144  0.3596  0.4578  0.3382
   30MOL    C9216390   0.578   2.223   7.202  0.0060  0.1376  0.2848
   30MOL    O9316391   0.462   2.195   7.241  0.3477  0.4531 -0.4425
   30MOL    C9416392   0.650   2.357   7.217 -0.1177 -0.2552 -0.5008
   30MOL    C9516393   0.588   2.464   7.286 -0.2297  0.6331  0.3114
   30MOL    C9616394   0.652   2.588   7.303 -0.3130  0.2766 -0.7463
   30MOL    C9716395   0.776   2.607   7.243 -0.4250 -0.5408  0.7555
   30MOL    C9816396   0.853   2.731   7.265 -0.3600 -0.2877 -0.0803
   30MOL    O9916397   0.974   2.740   7.251  0.2456  0.1790 -0.1941
   30MOL   C10016398   0.846   2.502   7.184  0.0893 -0.4089  0.1930
   30MOL   C10116399   0.779   2.377   7.165 -0.1133  0.2500 -0.1170
   30MOL   H10216400   0.460   1.807   6.875 -2.2901  1.0183  3.7859
   30MOL   H10316401   0.449   1.908   6.735  0.9679 -0.2106 -0.2110
   30MOL   H10416402   0.586   2.076   6.882 -0.5406 -1.1725  0.6857
   30MOL   H10516403   0.675   1.939   6.805 -0.4472 -1.4305 -0.5414
   30MOL   H10616404   0.675   1.824   7.033  1.8905 -0.1106 -0.7401
   30MOL   H10716405   0.771   1.963   7.017  0.4750 -0.6238  0.1706
   30MOL   H10816406   0.497   1.983   7.127 -0.6321  1.6476  1.5312
   30MOL   H10916407   0.640   1.942   7.235 -0.9645  1.2914  1.5882
   30MOL   H11016408   0.489   2.454   7.329 -0.3474 -2.0761 -0.4876
   30MOL   H11116409   0.590   2.661   7.353 -1.1830  0.0969 -1.5560
   30MOL   H11216410   0.949   2.520   7.156 -0.7859  0.9984 -2.2506
   30MOL   H11316411   0.828   2.297   7.111 -1.5674 -0.9342  0.2778
   30MOL   O11416412   0.772   2.832   7.301 -0.1951  0.1342  1.0263
   30MOL   C11516413   0.818   2.953   7.355 -0.0514 -0.2620  0.0967
   30MOL   C11616414   0.807   2.955   7.506 -0.0012  0.6727  0.6291
   30MOL   C11716415   0.842   2.817   7.568 -0.3414  0.2648 -0.5012
   30MOL   C11816416   0.840   2.823   7.717 -0.0629  0.0198 -0.6297
   30MOL   O11916417   0.950   2.905   7.754  0.7392 -0.0569 -0.2786
   30MOL   C12016418   1.010   2.884   7.871 -0.0358 -0.1548 -1.0355
   30MOL   O12116419   0.953   2.830   7.964 -0.1611 -0.2852 -0.5657
   30MOL   C12216420   1.140   2.946   7.879  0.0522 -0.0381 -0.5837
   30MOL   C12316421   1.219   2.962   7.758 -0.0890 -0.1110  0.1733
   30MOL   C12416422   1.355   2.990   7.769 -0.0017  0.2823 -0.2262
   30MOL   C12516423   1.414   3.024   7.894  0.2075  0.2193  0.6582
   30MOL   C12616424   1.561   3.051   7.908 -0.5034 -0.5354  0.2566
   30MOL   O12716425   1.615   3.099   8.008 -0.0518 -0.7022  0.1003
   30MOL   C12816426   1.333   3.019   8.005 -0.0998 -0.2659  0.2380
   30MOL   C12916427   1.196   2.976   8.003 -0.6945  0.3255 -0.3911
   30MOL   H13016428   0.917   2.981   7.318  3.0139 -5.5830  3.6822
   30MOL   H13116429   0.763   3.035   7.309 -0.1371 -0.2261  0.2622
   30MOL   H13216430   0.707   2.987   7.536 -0.3763 -1.5333  1.8394
   30MOL   H13316431   0.881   3.023   7.549  0.7900  1.7414 -2.3237
   30MOL   H13416432   0.753   2.761   7.541 -0.2157 -1.8608  3.1686
   30MOL   H13516433   0.931   2.766   7.531 -0.4163  0.2611 -0.6730
   30MOL   H13616434   0.748   2.875   7.743  1.0835  2.1488 -0.7114
   30MOL   H13716435   0.838   2.725   7.764  1.2338  0.1681 -0.2480
   30MOL   H13816436   1.174   2.949   7.661 -0.8332  0.0000  0.4961
   30MOL   H13916437   1.410   2.995   7.676 -0.1055 -0.3821 -0.3281
   30MOL   H14016438   1.370   3.041   0.006 -0.3002  0.2117  0.2115
   30MOL   H14116439   1.137   2.968   8.093 -0.6375  0.0495 -0.3767
   30MOL   O14216440   1.628   3.026   7.792  0.1207  0.5184  0.1594
   30MOL   C14316441   1.771   3.045   7.774 -1.0105  0.9181  0.0030
   30MOL   C14416442   1.857   2.937   7.838 -0.0610  0.2395 -0.2107
   30MOL   C14516443   2.000   2.922   7.802 -0.1575  0.8054  0.1569
   30MOL   C14616444   2.085   3.031   7.872  0.7293  0.0198 -0.8182
   30MOL   O14716445   2.070   3.151   7.806 -0.4428 -0.0604 -0.7461
   30MOL   C14816446   2.155   3.191   7.711 -0.2076 -0.0821 -0.5438
   30MOL   O14916447   2.258   3.126   7.680 -0.1591 -0.4437 -0.4605
   30MOL   C15016448   2.124   3.332   7.660 -0.5376  0.5553 -0.0143
   30MOL   C15116449   2.205   3.384   7.557 -0.1714  0.4873 -0.8591
   30MOL   C15216450   2.171   3.513   7.506 -0.4417  0.0843  0.2362
   30MOL   C15316451   2.067   3.588   7.562 -0.2525 -0.1185 -0.1038
   30MOL   C15416452   2.031   3.729   7.518 -0.2023 -0.4588 -0.1852
   30MOL   O15516453   1.928   3.794   7.547 -0.2904 -0.0021  0.2421
   30MOL   C15616454   1.991   3.533   7.671 -0.6641 -0.0628  0.1791
   30MOL   C15716455   2.019   3.404   7.715  0.2873  0.3528 -0.3523
   30MOL   H15816456   1.785   3.042   7.666 -1.8008  2.0903 -0.1366
   30MOL   H15916457   1.794   3.142   7.818 -0.9923  0.5806  0.7500
   30MOL   H16016458   1.813   2.842   7.807  1.0783 -0.8099  1.3029
   30MOL   H16116459   1.854   2.942   7.947 -0.5050 -0.2961 -0.1975
   30MOL   H16216460   2.029   2.825   7.843  1.8624  0.9131 -0.9227
   30MOL   H16316461   2.016   2.919   7.694  5.0383 -1.7908  0.8243
   30MOL   H16416462   2.047   3.067   7.967  1.5100 -1.5364  0.1022
   30MOL   H16516463   2.185   2.990   7.888  0.4656  0.8476  3.4904
   30MOL   H16616464   2.291   3.331   7.519  1.3690  0.5711  2.3846
   30MOL   H16716465   2.224   3.563   7.427  1.6209  0.2122  1.6700
   30MOL   H16816466   1.902   3.581   7.708 -0.0839  0.4031  0.9878
   30MOL   H16916467   1.940   3.362   7.777  0.5442  1.0341  0.4338
   30MOL   O17016468   2.122   3.779   7.433 -0.2365 -0.7129 -0.0104
   30MOL   C17116469   2.117   3.916   7.397 -0.7662  0.2240 -0.2209
   30MOL   C17216470   2.205   3.931   7.272  0.2308 -0.0326 -0.2220
   30MOL   C17316471   2.154   4.040   7.173 -0.7617 -0.2794  1.1306
   30MOL   C17416472   2.244   4.077   7.051  0.7520  0.2317 -0.5825
   30MOL   O17516473   2.180   4.180   6.969  0.5188  0.2436  0.0024
   30MOL   C17616474   2.163   4.167   6.839 -0.0761  0.8162 -0.0862
   30MOL   O17716475   2.191   4.063   6.780  0.6833  0.9407  0.4368
   30MOL   C17816476   2.091   4.276   6.779 -0.1843 -0.6678  0.8865
   30MOL   C17916477   2.046   4.266   6.642  0.7395 -0.3559  0.0399
   30MOL   C18016478   1.990   4.380   6.584  0.3106  0.5100  0.5768
   30MOL   C18116479   1.971   4.506   6.650  0.6360 -0.1836 -0.1681
   30MOL   C18216480   1.899   4.625   6.594 -0.3414  0.0530  0.8357
   30MOL   O18316481   1.846   4.633   6.481 -0.1949  0.0084  0.4426
   30MOL   C18416482   2.009   4.505   6.787 -0.1427 -0.8463 -0.0419
   30MOL   C18516483   2.062   4.397   6.852  0.1761  0.1443  0.2551
   30MOL   H18616484   2.016   3.938   7.365 -0.5676  0.5177 -0.6481
   30MOL   H18716485   2.152   3.980   7.478 -1.6909  0.4175  0.0280
   30MOL   H18816486   2.211   3.840   7.212  2.0800  0.3543 -0.6393
   30MOL   H18916487   2.304   3.960   7.306  0.3651  1.3678 -1.7365
   30MOL   H19016488   2.066   3.994   7.129  0.5152  0.3598 -2.2286
   30MOL   H19116489   2.136   4.135   7.223 -0.9761  0.1047  0.3225
   30MOL   H19216490   2.337   4.128   7.078 -0.8663  2.0741  1.6101
   30MOL   H19316491   2.281   3.994   6.990 -0.2642 -0.2397 -0.5547
   30MOL   H19416492   2.059   4.180   6.578 -0.7748 -0.1726 -0.5348
   30MOL   H19516493   1.958   4.363   6.482 -1.0116 -1.7730  1.3349
   30MOL   H19616494   2.012   4.601   6.837 -0.1473 -1.1849  0.5994
   30MOL   H19716495   2.100   4.400   6.953 -0.7194  0.7557  0.5789
   30MOL   O19816496   1.885   4.728   6.690 -0.5341  0.0304  0.3803
   30MOL   C19916497   1.837   4.853   6.648  0.7043  0.1852 -0.4671
   30MOL   C20016498   1.864   4.959   6.758 -0.0220  0.7236  0.4479
   30MOL   C20116499   2.013   4.984   6.777 -0.0289 -0.4507 -0.2740
   30MOL   C20216500   2.036   5.115   6.859  0.5311 -0.3948  0.8114
   30MOL   O20316501   2.180   5.130   6.887  0.0420  0.2518  0.1141
   30MOL   C20416502   2.234   5.253   6.872  0.3014 -0.0149  0.7143
   30MOL   O20516503   2.174   5.361   6.861 -0.2004  0.0693 -0.3780
   30MOL   C20616504   2.387   5.250   6.874  0.7284 -0.0114 -0.1309
   30MOL   C20716505   2.462   5.369   6.889 -0.5918 -0.4864 -0.1737
   30MOL   C20816506   2.605   5.371   6.894  1.0362 -0.1966 -0.3003
   30MOL   C20916507   2.674   5.255   6.864 -0.0314  0.6480 -0.2624
   30MOL   C21016508   2.819   5.250   6.860 -0.3331 -0.3358 -0.8339
   30MOL   O21116509   2.879   5.151   6.815  0.2667  0.2029  0.3918
   30MOL   C21216510   2.600   5.133   6.847 -0.0544  0.6569 -0.6855
   30MOL   C21316511   2.455   5.132   6.852  0.2927 -0.4336  0.1966
   30MOL   H21416512   1.894   4.889   6.562  1.2845  0.1313 -0.1103
   30MOL   H21516513   1.732   4.836   6.625  0.4302 -0.2664  1.0244
   30MOL   H21616514   1.811   4.943   6.852 -1.6284 -0.1329 -0.5856
   30MOL   H21716515   1.816   5.044   6.710  0.7950  0.2145 -1.3283
   30MOL   H21816516   2.065   4.900   6.824 -0.2830 -1.0676 -1.0871
   30MOL   H21916517   2.052   5.008   6.678 -0.8195  2.5297  0.0876
   30MOL   H22016518   2.000   5.204   6.807  2.5273  0.3519  0.6819
   30MOL   H22116519   1.979   5.114   6.953  2.7915  1.8515  2.2599
   30MOL   H22216520   2.415   5.465   6.906  1.4350  0.4759  0.2179
   30MOL   H22316521   2.663   5.462   6.891 -0.4572  0.7366 -1.4207
   30MOL   H22416522   2.649   5.039   6.824 -1.4569 -0.0335 -0.8821
   30MOL   H22516523   2.407   5.037   6.830  3.6712 -1.2665 -4.2309
   30MOL   O22616524   2.886   5.351   6.921  0.0693  0.3846  0.4858
   30MOL   C22716525   3.024   5.347   6.940 -0.7639 -0.0619  0.2021
   30MOL   C22816526   3.105   5.382   6.818 -0.2436 -0.2559 -0.6597
   30MOL   C22916527   3.254   5.364   6.846  0.2879 -0.4352  0.7182
   30MOL   C23016528   3.306   5.489   6.924  0.3802  0.4928 -0.4047
   30MOL   O23116529   3.337   5.591   6.828 -0.2158 -0.2704  0.0279
   30MOL   C23216530   3.285   5.718   6.842  0.7012  0.2875  0.0287
   30MOL   O23316531   3.198   5.747   6.926  0.0979 -0.0402  0.0337
   30MOL   C23416532   3.335   5.816   6.743  0.3825 -0.0143  0.2678
   30MOL   C23516533   3.289   5.950   6.747 -0.1118 -0.4968 -0.7337
   30MOL   C23616534   3.321   6.041   6.650 -0.3569 -0.7695 -0.2713
   30MOL   C23716535   3.403   5.995   6.545 -0.0178  0.7439  1.0829
   30MOL   C23816536   3.439   6.099   6.441 -0.4625  0.6760  0.3285
   30MOL   O23916537   3.378   6.209   6.436 -0.1649  0.0654  0.6444
   30MOL   C24016538   3.446   5.859   6.535  0.7611  0.0412 -0.8830
   30MOL   C24116539   3.403   5.770   6.627  0.0890  0.1786 -0.1907
   30MOL   H24216540   3.066   5.407   7.021  0.1785 -1.5726  0.8593
   30MOL   H24316541   3.057   5.249   6.976  2.4995  0.3890 -1.3854
   30MOL   H24416542   3.091   5.486   6.788  1.6375  0.5615  1.1820
   30MOL   H24516543   3.078   5.324   6.730 -2.4622 -1.8225  0.9933
   30MOL   H24616544   3.275   5.285   6.917 -0.9551 -0.7585  0.7376
   30MOL   H24716545   3.320   5.348   6.761 -1.2656 -0.4766 -0.4989
   30MOL   H24816546   3.234   5.527   6.997  1.0448 -2.2350  1.7937
   30MOL   H24916547   3.400   5.464   6.974  0.0635 -1.7017 -0.8756
   30MOL   H25016548   3.222   5.984   6.824 -0.6490  0.9789 -1.8391
   30MOL   H25116549   3.298   6.144   6.675  0.1615 -0.2108 -2.0222
   30MOL   H25216550   3.517   5.842   6.455  2.2987 -1.8741  0.8328
   30MOL   H25316551   3.443   5.670   6.624  1.4539  0.7620 -1.5870
   30MOL   O25416552   3.530   6.059   6.360  0.4456 -0.4042 -0.2588
   30MOL   C25516553   3.556   6.142   6.246 -0.2764 -0.1482 -0.4026
   30MOL   C25616554   3.628   6.046   6.142  0.1721 -0.1159  0.9358
   30MOL   C25716555   3.624   6.108   6.001 -0.3053 -0.3420  0.0131
   30MOL   C25816556   3.688   6.014   5.901 -0.0103 -0.4061  0.1015
   30MOL   O25916557   3.828   6.037   5.905  0.1432  0.1122  0.4919
   30MOL   C26016558   3.891   6.108   5.810 -0.6231  0.6809 -0.1277
   30MOL   O26116559   3.845   6.140   5.699 -1.0656 -0.4080 -0.0244
   30MOL   C26216560   4.027   6.155   5.854 -0.4474  0.7508 -0.2451
   30MOL   C26316561   4.120   6.215   5.763 -0.0121  0.2033 -0.3725
   30MOL   C26416562   4.254   6.241   5.799  0.5079  0.4504 -0.6854
   30MOL   C26516563   4.301   6.211   5.930  0.2107  0.3441  0.2525
   30MOL   C26616564   4.447   6.225   5.965 -0.0234  0.6858  0.2533
   30MOL   O26716565   4.530   6.244   5.882 -0.4341  0.5367 -0.2621
   30MOL   C26816566   4.214   6.162   6.024  0.0181  0.6258 -0.8875
   30MOL   C26916567   4.080   6.131   5.989  0.3105 -0.2555  0.1019
   30MOL   H27016568   3.467   6.190   6.204  0.7459  0.6688 -1.6663
   30MOL   H27116569   3.617   6.226   6.278 -0.0407  0.3333 -2.0531
   30MOL   H27216570   3.595   5.943   6.133 -0.3023  0.1347 -0.3939
   30MOL   H27316571   3.734   6.046   6.167  0.0774 -0.3361  1.3250
   30MOL   H27416572   3.520   6.132   5.978 -0.5913  0.3537  1.9084
   30MOL   H27516573   3.673   6.206   6.000  0.3533 -0.5642  3.4130
   30MOL   H27616574   3.674   5.910   5.930  3.4489 -0.5702  1.3778
   30MOL   H27716575   3.652   6.037   5.801  1.9567  0.3358 -0.4506
   30MOL   H27816576   4.098   6.237   5.660 -0.1035  1.4715 -0.0918
   30MOL   H27916577   4.325   6.278   5.726  0.8007 -0.2895 -0.7839
   30MOL   H28016578   4.260   6.122   6.113  2.2506  2.9646 -0.9394
   30MOL   H28116579   4.027   6.075   6.064  1.3566  0.0786  1.1068
   30MOL   O28216580   4.468   6.229   6.097 -0.8831 -0.1542  0.6876
   30MOL   C28316581   4.603   6.246   6.141  0.0423  0.5485  0.3220
   30MOL   C28416582   4.622   6.180   6.286  0.3019 -0.5574  0.2446
   30MOL   C28516583   4.766   6.155   6.334  0.1062  0.1994  0.1641
   30MOL   C28616584   4.780   6.078   6.476 -0.9163  0.3096 -0.2298
   30MOL   O28716585   4.912   6.034   6.490  0.0462  0.1958  0.5419
   30MOL   C28816586   4.956   5.953   6.586 -0.1170  0.5202 -0.0362
   30MOL   O28916587   4.888   5.925   6.685  0.5477 -0.4648 -0.3184
   30MOL   C29016588   5.093   5.902   6.567 -0.3127 -0.2884  0.6989
   30MOL   C29116589   5.156   5.838   6.675 -0.1572  0.0461 -0.5121
   30MOL   C29216590   5.291   5.794   6.665  0.1719  0.0502 -0.1329
   30MOL   C29316591   5.355   5.803   6.542  0.2949 -0.1061 -0.2187
   30MOL   C29416592   5.492   5.752   6.525  0.0101  0.3891  0.9915
   30MOL   O29516593   5.569   5.775   6.432 -0.0765  0.2594  0.5703
   30MOL   C29616594   5.286   5.854   6.434 -0.8852  0.3250  0.2625
   30MOL   C29716595   5.156   5.902   6.440 -0.3068 -0.5729  0.7260
   30MOL   H29816596   4.683   6.212   6.075  1.6831  1.1065  1.9866
   30MOL   H29916597   4.628   6.352   6.143 -0.3924  0.6360  0.9415
   30MOL   H30016598   4.581   6.080   6.270  3.7813 -2.1227  0.7021
   30MOL   H30116599   4.548   6.212   6.359  0.0673  1.1743 -0.7316
   30MOL   H30216600   4.824   6.095   6.265 -1.3151 -1.4028  0.3200
   30MOL   H30316601   4.808   6.255   6.344 -1.1973  0.6934  0.9428
   30MOL   H30416602   4.758   6.141   6.562 -0.9247  1.1647 -0.8508
   30MOL   H30516603   4.718   5.989   6.468 -0.0729 -0.2209 -1.0177
   30MOL   H30616604   5.107   5.816   6.769  1.1476 -0.2721  0.1035
   30MOL   H30716605   5.333   5.751   6.755 -0.8714 -0.4445  0.1238
   30MOL   H30816606   5.334   5.849   6.337 -3.7693 -2.2138 -1.1174
   30MOL   H30916607   5.115   5.930   6.344  0.4744 -1.7425  0.0333
   30MOL   O31016608   5.527   5.675   6.636  0.6202  0.2843  0.1173
   30MOL   C31116609   5.661   5.626   6.651 -0.5286  0.0230 -0.1582
   30MOL   C31216610   5.719   5.647   6.789 -0.0116  0.2717 -0.7879
   30MOL   C31316611   5.658   5.552   6.887 -0.2995 -0.1281  0.4005
   30MOL   C31416612   5.764   5.521   7.006  0.3625  0.1980  0.0372
   30MOL   O31516613   5.679   5.489   7.114  0.0644  0.0216 -0.3698
   30MOL   C31616614   5.637   5.359   7.133  0.0532  0.4197  0.2217
   30MOL   O31716615   5.641   5.269   7.049  0.0020  0.2074 -0.1050
   30MOL   C31816616   5.557   5.341   7.261  0.0826 -0.7641 -0.1934
   30MOL   C31916617   5.496   5.218   7.292  0.4290 -0.4885 -0.3450
   30MOL   C32016618   5.429   5.200   7.414 -0.2342  0.2088  0.2397
   30MOL   C32116619   5.410   5.307   7.506  0.2434  0.2901 -0.3607
   30MOL   C32216620   5.332   5.291   7.634 -0.2883 -0.7818  0.7352
   30MOL   O32316621   5.288   5.188   7.678 -0.0965 -0.0145 -0.3578
   30MOL   C32416622   5.462   5.432   7.474 -0.1831  0.1141 -0.5019
   30MOL   C32516623   5.536   5.446   7.354  0.1333  0.4783 -0.4906
   30MOL   H32616624   5.646   5.520   6.632 -2.2972  0.2877 -0.3352
   30MOL   H32716625   5.731   5.667   6.578  0.6476 -0.6627  0.5577
   30MOL   H32816626   5.715   5.752   6.819  0.3772  0.0433  0.0601
   30MOL   H32916627   5.826   5.630   6.775 -0.0550  0.3329 -1.2027
   30MOL   H33016628   5.570   5.598   6.931  0.2548  0.1364  1.2461
   30MOL   H33116629   5.629   5.457   6.841  0.6802  0.4789 -1.5554
   30MOL   H33216630   5.820   5.429   6.987 -0.6318 -0.8421  1.9897
   30MOL   H33316631   5.824   5.610   7.022 -2.6025  1.9550  1.8239
   30MOL   H33416632   5.504   5.132   7.227 -1.5812  0.5784 -2.0766
   30MOL   H33516633   5.386   5.103   7.434 -0.2201  0.0220 -0.6255
   30MOL   H33616634   5.443   5.518   7.537 -2.5578  0.1943 -1.2517
   30MOL   H33716635   5.571   5.548   7.348  1.8320  0.0361  1.2108
   30MOL   O33816636   5.300   5.412   7.699 -0.6498 -0.3327 -0.5363
   30MOL   C33916637   5.217   5.417   7.807 -0.3289 -0.2088 -0.0751
   30MOL   C34016638   5.169   5.567   7.835  0.5567  0.4991  0.0593
   30MOL   C34116639   5.283   5.664   7.860 -0.5166  0.2462 -1.2081
   30MOL   C34216640   5.238   5.810   7.856  0.3860  0.5791  0.0820
   30MOL   O34316641   5.113   5.824   7.916  0.1846  0.2748  0.8573
   30MOL   C34416642   5.100   5.851   8.047  0.2418 -0.0167 -0.4053
   30MOL   O34516643   5.193   5.856   0.035  0.6425  0.5812 -0.0494
   30MOL   C34616644   4.957   5.879   8.084  0.2466 -0.2878  0.3113
   30MOL   C34716645   4.929   5.897   0.125 -0.8190 -0.0816 -0.1874
   30MOL   C34816646   4.797   5.904   0.173 -0.4989  0.9667 -0.0666
   30MOL   C34916647   4.695   5.908   0.078  0.5799  0.9075  0.5805
   30MOL   C35016648   4.560   5.932   0.123 -0.6310 -0.7491 -0.4406
   30MOL   O35116649   4.536   5.986   0.231  0.1665  0.1295  0.1162
   30MOL   C35216650   4.719   5.904   8.038  0.3327  0.1622 -0.7757
   30MOL   C35316651   4.848   5.879   7.993 -0.2733  0.6241  0.6108
   30MOL   H35416652   5.120   5.370   7.787 -0.5744 -1.9958  4.6040
   30MOL   H35516653   5.267   5.370   7.891  1.8699  0.7135 -0.8415
   30MOL   H35616654   5.097   5.558   7.916 -1.0013 -0.5532 -1.4229
   30MOL   H35716655   5.126   5.600   7.741  0.9432  1.7281  0.3139
   30MOL   H35816656   5.317   5.649   7.963 -0.3951  0.8977 -1.1462
   30MOL   H35916657   5.374   5.640   7.806  1.0083 -0.8355  1.7277
   30MOL   H36016658   5.313   5.882   7.889  0.5969  0.4156 -0.0350
   30MOL   H36116659   5.216   5.835   7.752  3.2396 -1.3005 -1.0585
   30MOL   H36216660   5.011   5.891   0.195 -1.7366 -1.1127  0.8111
   30MOL   H36316661   4.769   5.912   0.278 -2.3384 -0.1988 -0.4417
   30MOL   H36416662   4.642   5.927   7.966  0.3321 -0.1758 -0.8869
   30MOL   H36516663   4.858   5.861   7.887 -0.5583  0.6225  0.5835
   30MOL   O36616664   4.463   5.906   0.037 -0.1174 -0.2041 -0.1605
   30MOL   C36716665   4.326   5.934   0.060  0.1505 -0.0044  0.0028
   30MOL   C36816666   4.252   5.861   8.048 -0.2425  0.0475 -0.3362
   30MOL   C36916667   4.303   5.882   7.909  0.6755 -0.1446  0.5217
   30MOL   C37016668   4.331   6.028   7.855  0.1183  0.3553  0.7724
   30MOL   O37116669   4.429   6.021   7.749 -0.0986  0.7404 -0.1493
   30MOL   C37216670   4.497   6.125   7.705  1.1527 -0.5752  0.2642
   30MOL   O37316671   4.458   6.239   7.716  0.5108 -0.9776  0.1653
   30MOL   C37416672   4.628   6.099   7.641  0.2429  0.2957 -0.4962
   30MOL   C37516673   4.700   5.983   7.666 -0.2483  0.2481  0.3745
   30MOL   C37616674   4.824   5.949   7.601 -0.0584 -0.1483  0.0664
   30MOL   C37716675   4.885   6.047   7.520 -0.2109 -0.0944  0.3120
   30MOL   C37816676   5.013   6.042   7.439  0.5422 -0.2985 -0.0931
   30MOL   O37916677   5.075   6.144   7.409  0.3062  0.3522  0.1876
   30MOL   C38016678   4.812   6.169   7.495 -1.1119 -0.0415 -0.4958
   30MOL   C38116679   4.688   6.194   7.553 -0.5116 -0.3322  0.5458
   30MOL   H38216680   4.290   5.908   0.159  1.8596  1.6585  1.0941
   30MOL   H38316681   4.313   6.042   0.052 -2.2296 -0.2731 -0.1457
   30MOL   H38416682   4.152   5.904   8.060 -1.2251 -2.3860  0.7336
   30MOL   H38516683   4.238   5.754   8.068  2.9031 -0.6036 -1.3744
   30MOL   H38616684   4.395   5.825   7.908 -0.6206 -2.2867 -0.5720
   30MOL   H38716685   4.243   5.827   7.836 -0.1999 -0.6803  1.6303
   30MOL   H38816686   4.239   6.074   7.818  0.0304 -0.3519  0.1108
   30MOL   H38916687   4.372   6.089   7.936 -0.2736  0.1973  1.0948
   30MOL   H39016688   4.658   5.913   7.738  1.0024 -1.3962 -0.4453
   30MOL   H39116689   4.878   5.856   7.614  1.8190  0.6292 -1.9963
   30MOL   H39216690   4.852   6.233   7.418  0.9392 -2.6945 -1.7112
   30MOL   H39316691   4.641   6.290   7.545  2.0809  0.7590 -2.6848
   30MOL   O39416692   5.049   5.912   7.418 -0.5440  0.1222 -0.4108
   30MOL   C39516693   5.179   5.880   7.366  0.7220 -0.1658 -0.2781
   30MOL   C39616694   5.278   5.851   7.479  0.9978  0.5324  0.5122
   30MOL   C39716695   5.420   5.844   7.429 -0.0158 -0.3085 -0.4214
   30MOL   C39816696   5.533   5.839   7.538 -0.2078 -0.6797 -0.3027
   30MOL   O39916697   5.640   5.773   7.475  0.0867 -0.2332  0.2431
   30MOL   C40016698   5.763   5.754   7.539  0.5315  0.0943 -0.4999
   30MOL   O40116699   5.777   5.789   7.657  0.3274 -0.1030 -0.2994
   30MOL   C40216700   5.860   5.671   7.465  0.1067  0.6473 -0.0197
   30MOL   C40316701   5.839   5.612   7.338 -0.0832 -0.6255  0.0213
   30MOL   C40416702   5.941   5.534   7.278  0.0357 -0.1168 -0.6349
   30MOL   C40516703   6.063   5.505   7.340 -0.7315  0.8954 -0.3461
   30MOL   C40616704   6.156   5.405   7.280 -0.6454 -0.1118  0.6265
   30MOL   O40716705   6.244   5.342   7.340 -0.0356  0.0109 -0.2349
   30MOL   C40816706   6.088   5.566   7.466 -0.0757 -0.4082  0.2601
   30MOL   C40916707   5.986   5.645   7.525  0.5543  0.2752 -0.6527
   30MOL   H41016708   5.166   5.789   7.307  1.4084 -0.4005 -0.0699
   30MOL   H41116709   5.205   5.956   7.292  1.1027  1.0154  1.0564
   30MOL   H41216710   5.239   5.761   7.526 -2.3108  1.0691 -1.0787
   30MOL   H41316711   5.275   5.939   7.544  1.1281 -0.3891  1.7816
   30MOL   H41416712   5.417   5.752   7.370 -0.6430 -1.1555  0.9074
   30MOL   H41516713   5.454   5.920   7.358 -2.1465  2.4536  1.3975
   30MOL   H41616714   5.561   5.944   7.549 -1.3697 -0.5401  1.6180
   30MOL   H41716715   5.504   5.788   7.630 -1.8972  0.2867 -0.2828
   30MOL   H41816716   5.746   5.630   7.286 -1.2508 -0.2063  2.2121
   30MOL   H41916717   5.925   5.476   7.189  0.8834  1.7301 -2.0234
   30MOL   H42016718   6.181   5.553   7.519  0.6970 -2.2785 -1.4374
   30MOL   H42116719   6.006   5.682   7.624 -1.4921 -1.7735  0.5895
   30MOL   O42216720   6.141   5.409   7.146  0.2658  0.1819  0.3998
   30MOL   C42316721   6.232   5.332   7.062 -0.0740 -1.0795 -0.0363
   30MOL   C42416722   6.255   5.433   6.946 -0.0298  0.1848  0.1320
   30MOL   C42516723   6.342   5.550   6.992  0.1972 -0.2087 -0.4070
   30MOL   C42616724   6.370   5.649   6.874 -0.7886 -0.2267 -0.1791
   30MOL   O42716725   6.441   5.592   6.771 -0.0280 -0.4330 -0.4700
   30MOL   C42816726   6.397   5.601   6.638 -0.6069 -0.6758  1.1622
   30MOL   O42916727   6.277   5.610   6.606  0.1020  0.3360 -0.5206
   30MOL   C43016728   6.503   5.600   6.530  0.1834 -0.1395  0.2243
   30MOL   C43116729   6.464   5.614   6.395 -0.3641  0.0244 -0.5044
   30MOL   C43216730   6.557   5.631   6.286 -0.1863 -0.9079 -0.2283
   30MOL   C43316731   6.698   5.626   6.312 -0.1890 -0.2302 -0.1890
   30MOL   C43416732   6.801   5.640   6.207  0.3278 -0.0015 -0.2855
   30MOL   O43516733   6.769   5.649   6.088  0.4739  0.4382 -0.0419
   30MOL   C43616734   6.738   5.626   6.453  0.0398 -0.5481 -1.1402
   30MOL   C43716735   6.643   5.612   6.560  0.0229 -0.4869 -0.2080
   30MOL   H43816736   6.327   5.296   7.102  0.3402  3.2741  3.1875
   30MOL   H43916737   6.177   5.243   7.031 -3.1283  1.2180 -1.4039
   30MOL   H44016738   6.161   5.461   6.900  0.8787 -0.6097 -2.2741
   30MOL   H44116739   6.311   5.386   6.865  0.2984 -0.6916  0.8460
   30MOL   H44216740   6.280   5.606   7.062  1.0299  0.0172  0.1679
   30MOL   H44316741   6.428   5.535   7.058 -1.7610  0.0520  2.2643
   30MOL   H44416742   6.281   5.699   6.836 -1.0537 -1.2870 -0.9606
   30MOL   H44516743   6.437   5.732   6.900 -3.0433  1.2421  1.1734
   30MOL   H44616744   6.359   5.621   6.371 -0.3364  0.0825 -0.6037
   30MOL   H44716745   6.519   5.642   6.186  1.7156  2.0650 -0.6848
   30MOL   H44816746   6.843   5.633   6.476 -0.1770  1.4612 -0.6519
   30MOL   H44916747   6.680   5.626   6.661 -2.0923 -0.2598  0.5794
   30MOL   O45016748   6.931   5.631   6.253  0.1376  0.4958  0.3351
   30MOL   C45116749   7.045   5.633   6.171 -0.1802 -0.2782 -0.1954
   30MOL   C45216750   7.179   5.591   6.244  0.3114  0.1430  0.2276
   30MOL   C45316751   7.194   5.441   6.287  0.3375  0.3196  0.2690
   30MOL   C45416752   7.326   5.406   6.352 -0.3275 -0.5029 -0.4904
   30MOL   O45516753   7.434   5.402   6.257 -0.3954 -0.4411  0.6007
   30MOL   C45616754   7.552   5.345   6.291 -0.2421  0.2061  0.3932
   30MOL   O45716755   7.582   5.293   6.402 -0.1026  0.9511  0.8472
   30MOL   C45816756   7.654   5.363   6.184  0.0521 -0.2965 -0.6934
   30MOL   C45916757   7.791   5.364   6.215  0.0023 -0.2313  0.3275
   30MOL   C46016758   7.891   5.382   6.115 -0.1545 -0.6381 -0.0844
   30MOL   C46116759   7.849   5.402   5.982 -0.0010  0.0471 -0.3457
   30MOL   C46216760   7.962   5.430   5.887  0.3536 -0.4127  0.3418
   30MOL   O46316761   8.082   5.422   5.912 -0.6828 -0.1019  0.1899
   30MOL   C46416762   7.713   5.403   5.945  0.0412  0.1361  0.7038
   30MOL   C46516763   7.613   5.390   6.049 -0.1952 -0.5183 -0.0678
   30MOL   H46616764   7.045   5.566   6.084 -0.3888 -0.8097  0.2104
   30MOL   H46716765   7.057   5.737   6.140  2.1855 -0.6472 -0.6516
   30MOL   H46816766   7.194   5.652   6.334  0.8723  2.2857 -1.2946
   30MOL   H46916767   7.264   5.620   6.183  0.7056 -0.2584  0.5767
   30MOL   H47016768   7.118   5.424   6.362  0.0050  0.9704  0.0832
   30MOL   H47116769   7.172   5.374   6.204  1.7147  1.7489 -1.2943
   30MOL   H47216770   7.338   5.470   6.440  1.7277 -2.7534  0.9277
   30MOL   H47316771   7.311   5.306   6.391 -0.8033  0.5219  2.0774
   30MOL   H47416772   7.828   5.355   6.316 -1.8263  0.2967  1.0757
   30MOL   H47516773   7.997   5.380   6.138  0.3101  3.0191 -1.5206
   30MOL   H47616774   7.683   5.422   5.843 -0.2102 -0.3436  0.6843
   30MOL   H47716775   7.507   5.397   6.026 -0.8088 -1.8926  2.1793
   30MOL   O47816776   7.916   5.467   5.769 -0.0532 -0.5156  0.1040
   30MOL   C47916777   8.006   5.474   5.657 -0.1312  0.2822 -0.2631
   30MOL   C48016778   8.046   5.613   5.633  0.6610  0.3880  0.4044
   30MOL   C48116779   0.044   5.634   5.515 -0.0592  0.5246  0.1143
   30MOL   C48216780   0.081   5.772   5.490  0.5760 -0.4629  0.0359
   30MOL   O48316781   8.077   5.852   5.442  0.6034 -0.5481  0.3083
   30MOL   C48416782   8.087   5.923   5.327  0.5496  0.5557 -0.4546
   30MOL   O48516783   0.090   5.931   5.253 -0.4889 -0.3911  0.0157
   30MOL   C48616784   7.959   5.999   5.297 -0.6804  0.3814 -0.5137
   30MOL   C48716785   7.852   6.015   5.385 -0.4861  0.2777  1.4710
   30MOL   C48816786   7.742   6.092   5.343  0.2416 -0.1349 -0.0443
   30MOL   C48916787   7.733   6.155   5.219  0.1324 -0.4882 -0.1486
   30MOL   C49016788   7.627   6.258   5.200  0.5580  0.4927 -0.0112
   30MOL   O49116789   7.534   6.271   5.279 -0.0994  0.3886  0.5244
   30MOL   C49216790   7.843   6.146   5.134 -0.2571 -0.0114  0.1518
   30MOL   C49316791   7.954   6.069   5.173 -0.8994 -0.3405  0.0253
   30MOL   H49416792   8.090   5.406   5.671 -0.6704 -0.3936 -0.2512
   30MOL   H49516793   7.949   5.445   5.569 -0.0627  0.1951 -0.2796
   30MOL   H49616794   8.090   5.641   5.729  2.2682  0.4080 -0.3080
   30MOL   H49716795   7.954   5.669   5.622  0.3571 -0.1090  0.4300
   30MOL   H49816796   0.145   5.594   5.524 -0.6047 -0.6145  1.2264
   30MOL   H49916797   8.093   5.595   5.426  2.0688 -1.9153 -0.0447
   30MOL   H50016798   0.120   5.827   5.576 -0.2912 -0.6447  0.5585
   30MOL   H50116799   0.152   5.754   5.410 -2.5818 -1.5989 -2.6190
   30MOL   H50216800   7.855   5.956   5.475 -0.2013 -1.5208  0.3115
   30MOL   H50316801   7.665   6.106   5.417  0.5291  0.3638  0.1636
   30MOL   H50416802   7.855   6.200   5.040  3.7151  2.4168  1.9045
   30MOL   H50516803   8.037   6.063   5.104 -0.4649  1.1991  0.3927
   30MOL   O50616804   7.651   6.335   5.087 -0.4934 -0.3125  0.1890
   30MOL   C50716805   7.551   6.423   5.052  0.4072  0.3341  0.4891
   30MOL   C50816806   7.538   6.552   5.138 -0.4476 -0.3099 -0.4425
   30MOL   C50916807   7.414   6.633   5.108 -0.0804  0.0322  0.1527
   30MOL   C51016808   7.297   6.571   5.191  0.1248  0.5297 -0.4754
   30MOL   O51116809   7.328   6.599   5.324  0.4107 -0.1963 -0.1180
   30MOL   C51216810   7.287   6.524   5.423  0.0532 -0.0866 -0.0847
   30MOL   O51316811   7.206   6.433   5.400 -0.6112  0.0543 -0.1471
   30MOL   C51416812   7.346   6.561   5.556 -0.1996 -0.8000 -0.5365
   30MOL   C51516813   7.327   6.479   5.672 -0.2670 -0.1903 -0.4331
   30MOL   C51616814   7.391   6.513   5.791  0.3293 -0.0731  0.4646
   30MOL   C51716815   7.476   6.625   5.798 -1.1963 -0.5838 -0.1171
   30MOL   C51816816   7.534   6.661   5.936 -0.2569  0.1225  0.6626
   30MOL   O51916817   7.529   6.580   6.031 -0.0821 -0.0670 -0.0459
   30MOL   C52016818   7.497   6.702   5.682 -0.1909  0.1635 -0.2123
   30MOL   C52116819   7.437   6.668   5.561  0.5633 -0.7327  0.0249
   30MOL   H52216820   7.573   6.447   4.948  0.8211  2.4639  1.0483
   30MOL   H52316821   7.457   6.370   5.060 -0.7094  2.5060  2.2597
   30MOL   H52416822   7.622   6.614   5.107  0.5330 -1.6204 -0.4141
   30MOL   H52516823   7.565   6.536   5.242  3.4319 -0.5209 -1.4053
   30MOL   H52616824   7.413   6.736   5.143 -3.7939 -0.2860  1.1901
   30MOL   H52716825   7.392   6.629   5.001  0.0331  0.4578  0.1128
   30MOL   H52816826   7.195   6.607   5.175 -0.4083 -0.1351  1.2833
   30MOL   H52916827   7.299   6.463   5.185 -1.4687  0.4694 -0.0646
   30MOL   H53016828   7.263   6.393   5.659  0.3100 -0.4129 -1.9596
   30MOL   H53116829   7.363   6.447   5.872 -2.9595  3.0066  2.0197
   30MOL   H53216830   7.560   6.789   5.688 -1.6062  1.1526  0.4555
   30MOL   H53316831   7.460   6.729   5.475 -0.0311  0.6199  0.8068
   30MOL   O53416832   7.568   6.790   5.941 -0.3650  0.2562 -0.0459
   30MOL   C53516833   7.645   6.826   6.053  0.3407  0.7384 -0.2618
   30MOL   C53616834   7.586   6.934   6.140  0.0637 -0.1979 -0.3927
   30MOL   C53716835   7.696   6.978   6.238  0.3241 -0.2684  0.0665
   30MOL   C53816836   7.650   7.093   6.322  0.0386  0.0775  0.2681
   30MOL   O53916837   7.755   7.130   6.410  0.1327 -0.3254 -0.2595
   30MOL   C54016838   7.790   7.255   6.436  0.0889  0.8338 -0.0857
   30MOL   O54116839   7.731   7.349   6.386 -0.0337  0.0867 -0.5540
   30MOL   C54216840   7.898   7.263   6.537  0.2422  0.1483  0.6703
   30MOL   C54316841   7.953   7.154   6.597 -0.1595  0.2298 -0.2411
   30MOL   C54416842   8.064   7.161   6.686  0.7339  0.0127  0.0772
   30MOL   C54516843   0.008   7.286   6.728  0.3245  0.6569  0.0399
   30MOL   C54616844   0.121   7.294   6.830  0.0165 -0.5681  0.7927
   30MOL   O54716845   0.158   7.206   6.903  0.2586 -0.0406  0.5668
   30MOL   C54816846   8.053   7.400   6.666  0.1773  0.1466  0.6922
   30MOL   C54916847   7.946   7.389   6.574  0.2419 -0.2961  0.3086
   30MOL   H55016848   7.669   6.739   6.114  1.5441  1.3159  0.1095
   30MOL   H55116849   7.745   6.855   6.019  0.1385  1.3967 -0.3038
   30MOL   H55216850   7.497   6.896   6.191 -0.0561  0.3446 -0.1937
   30MOL   H55316851   7.558   7.016   6.074  1.7438  0.7261 -0.0096
   30MOL   H55416852   7.714   6.891   6.300  0.6830 -2.1266 -2.5726
   30MOL   H55516853   7.789   6.993   6.184  0.8901 -2.0910  0.5177
   30MOL   H55616854   7.633   7.172   6.249 -0.8031 -1.4692 -1.2328
   30MOL   H55716855   7.558   7.068   6.375 -1.1061  0.0759 -1.6577
   30MOL   H55816856   7.927   7.050   6.580  0.7618  0.2834 -2.0997
   30MOL   H55916857   0.004   7.072   6.734 -0.0654 -0.0078  0.7061
   30MOL   H56016858   8.091   7.497   6.695  0.1285 -0.3125  2.3456
   30MOL   H56116859   7.909   7.479   6.528  3.5272  0.1146 -1.7220
   30MOL   H56216860   0.166   7.394   6.837 -0.7036 -0.3243  2.0017
   31MOL     O116861   1.945   6.029   1.371 -0.1437  0.3974 -0.5046
   31MOL     C216862   2.030   6.000   1.478  0.1178  0.4479  0.1746
   31MOL     C316863   1.944   6.030   1.601 -0.4300  0.2804 -0.0395
   31MOL     C416864   2.003   5.983   1.735  0.1432  0.2320  0.3679
   31MOL     C516865   1.932   6.038   1.858 -0.1836 -0.4440 -0.4199
   31MOL     O616866   1.978   5.979   1.978  0.3820 -0.1705  0.0751
   31MOL     C716867   2.044   6.054   2.071  0.2150  0.5800  0.0633
   31MOL     O816868   2.072   6.173   2.050 -0.1288  0.6287 -0.3512
   31MOL     C916869   2.084   5.975   2.191  0.0605  0.1793  0.1026
   31MOL    C1016870   2.072   5.837   2.201  0.0643  0.1510  0.2148
   31MOL    C1116871   2.093   5.773   2.324  0.1620  0.7569 -0.6163
   31MOL    C1216872   2.141   5.844   2.437 -0.2890  0.2504 -0.3889
   31MOL    C1316873   2.154   5.769   2.566  0.9443 -0.5004  0.3634
   31MOL    O1416874   2.118   5.653   2.581  0.6757 -0.2734  0.0462
   31MOL    C1516875   2.175   5.977   2.417  0.3113 -0.1480  0.7294
   31MOL    C1616876   2.150   6.043   2.295 -0.0395  0.0141 -0.0972
   31MOL    H1716877   2.062   5.896   1.482  0.5688  0.4461 -2.5490
   31MOL    H1816878   2.117   6.063   1.465  0.0444  1.1574  3.0016
   31MOL    H1916879   1.854   5.968   1.607 -0.2509 -0.1403 -1.5027
   31MOL    H2016880   1.911   6.134   1.601  0.7381  0.6611 -0.7061
   31MOL    H2116881   2.013   5.874   1.742 -2.6645 -0.1448 -0.9734
   31MOL    H2216882   2.106   6.018   1.741  1.1090 -2.0190 -1.9995
   31MOL    H2316883   1.951   6.145   1.865  3.3621 -0.9024 -1.8881
   31MOL    H2416884   1.825   6.021   1.848 -0.4083  1.1003 -0.8534
   31MOL    H2516885   2.033   5.780   2.118  1.2300  1.3870 -1.2009
   31MOL    H2616886   2.067   5.668   2.320  0.9091  0.5046  0.6517
   31MOL    H2716887   2.240   6.037   2.480  3.0748  0.0004 -2.1357
   31MOL    H2816888   2.169   6.150   2.295  0.4952 -0.0773  0.6647
   31MOL    H2916889   1.896   6.109   1.382 -1.3676 -0.5099  0.8035
   31MOL    O3016890   2.208   5.849   2.660 -0.0647 -0.4512  0.4495
   31MOL    C3116891   2.211   5.801   2.796 -0.0184  0.0546  0.0622
   31MOL    C3216892   2.273   5.910   2.878 -0.5220  0.0974  0.4665
   31MOL    C3316893   2.295   5.865   3.020 -0.2908  0.6117 -0.1337
   31MOL    C3416894   2.379   5.967   3.096 -0.7155  0.3587  0.8912
   31MOL    O3516895   2.450   5.911   3.214 -0.1233  0.3304 -0.1624
   31MOL    C3616896   2.588   5.913   3.211 -0.7214  0.6387  0.0834
   31MOL    O3716897   2.659   5.990   3.150  0.1900  0.0705 -0.3666
   31MOL    C3816898   2.644   5.812   3.308  0.6994 -0.2044 -0.3128
   31MOL    C3916899   2.566   5.704   3.348 -0.0552  0.3338 -0.0439
   31MOL    C4016900   2.630   5.604   3.426 -0.3684  0.2472  0.0049
   31MOL    C4116901   2.774   5.607   3.452  0.7714  0.1617  0.0039
   31MOL    C4216902   2.830   5.496   3.534 -0.6873  0.3169  0.3752
   31MOL    O4316903   2.772   5.390   3.549 -0.4369 -0.1658 -0.4463
   31MOL    C4416904   2.853   5.712   3.401  0.2329 -0.4953 -0.6821
   31MOL    C4516905   2.784   5.814   3.331 -0.3678 -0.1188 -0.0161
   31MOL    H4616906   2.109   5.799   2.835  0.2863  0.1593  0.8797
   31MOL    H4716907   2.255   5.702   2.811  2.4178  0.8858 -1.3339
   31MOL    H4816908   2.210   5.999   2.879  2.1944  2.1085 -0.8985
   31MOL    H4916909   2.357   5.946   2.820 -1.5321 -0.8196 -1.6081
   31MOL    H5016910   2.209   5.824   3.074  0.0497  1.3752  1.0087
   31MOL    H5116911   2.364   5.781   3.017 -0.3508  0.6255 -3.0775
   31MOL    H5216912   2.452   6.018   3.033 -2.4353  1.5146 -0.2101
   31MOL    H5316913   2.314   6.044   3.137 -0.4658  1.9141 -1.5194
   31MOL    H5416914   2.463   5.700   3.316  0.4709  1.0338 -1.8579
   31MOL    H5516915   2.568   5.530   3.475 -0.9995  0.8331  0.0943
   31MOL    H5616916   2.960   5.710   3.418  0.0137 -1.3655  0.6972
   31MOL    H5716917   2.837   5.902   3.297 -1.2317 -0.3133 -1.9238
   31MOL    O5816918   2.960   5.525   3.574 -0.0121  0.3949  0.3288
   31MOL    C5916919   3.037   5.428   3.631 -0.3513  0.9146  0.3998
   31MOL    C6016920   3.097   5.341   3.519 -0.4966  0.1021  0.5448
   31MOL    C6116921   3.188   5.221   3.565  0.2017  0.0360  0.3711
   31MOL    C6216922   3.229   5.131   3.449 -0.2613  0.0956  0.7658
   31MOL    O6316923   3.310   5.024   3.489 -0.0480  0.0153 -0.0985
   31MOL    C6416924   3.336   4.933   3.397 -0.0740 -0.4520  0.3772
   31MOL    O6516925   3.276   4.912   3.291 -0.7064  0.3751  0.1072
   31MOL    C6616926   3.450   4.847   3.429  0.3494 -0.0329 -0.5536
   31MOL    C6716927   3.520   4.879   3.548 -0.1708 -0.2317  0.1603
   31MOL    C6816928   3.636   4.810   3.578  0.6981  0.3521 -0.3901
   31MOL    C6916929   3.685   4.713   3.489  0.5318 -0.0590 -0.3165
   31MOL    C7016930   3.812   4.641   3.522  0.5948  0.4169  0.0125
   31MOL    O7116931   3.876   4.569   3.446 -0.0906 -0.6011  0.5432
   31MOL    C7216932   3.612   4.679   3.371  0.7316 -0.5324 -0.3423
   31MOL    C7316933   3.496   4.749   3.341 -1.2986  0.4177  0.0334
   31MOL    H7416934   3.115   5.465   3.697  1.8743 -0.8340 -1.1566
   31MOL    H7516935   2.972   5.369   3.696 -2.1679  1.7416 -0.6129
   31MOL    H7616936   3.152   5.415   3.461  0.5453 -0.5629  0.6667
   31MOL    H7716937   3.014   5.307   3.458  0.9749 -2.6743 -0.0001
   31MOL    H7816938   3.279   5.262   3.607  0.5578  0.3888 -0.7279
   31MOL    H7916939   3.132   5.158   3.635  1.5574 -0.8922  0.6387
   31MOL    H8016940   3.140   5.087   3.402 -0.4195  0.4093  0.7707
   31MOL    H8116941   3.281   5.186   3.370 -1.7814  0.0664 -0.2805
   31MOL    H8216942   3.494   4.959   3.615  0.0958  1.1108 -1.3290
   31MOL    H8316943   3.690   4.838   3.667  0.2163  0.0759 -0.0072
   31MOL    H8416944   3.648   4.607   3.300 -0.3640  0.1066 -1.5680
   31MOL    H8516945   3.442   4.724   3.251  2.9205  3.5875 -3.6335
   31MOL    O8616946   3.858   4.668   3.644  0.0783  0.1083  0.5117
   31MOL    C8716947   3.979   4.614   3.685 -0.3328 -0.5320  0.1252
   31MOL    C8816948   4.000   4.622   3.832 -0.2216 -0.4488  0.5156
   31MOL    C8916949   3.940   4.497   3.907  0.2688 -0.8134 -0.2688
   31MOL    C9016950   4.030   4.371   3.917  0.0473 -0.1891  0.0709
   31MOL    O9116951   4.050   4.319   3.792  0.1390 -0.4844  0.1168
   31MOL    C9216952   4.155   4.230   3.774  0.2917  0.0232  0.5184
   31MOL    O9316953   4.218   4.179   3.866 -0.1657 -0.2233  1.0295
   31MOL    C9416954   4.189   4.207   3.634 -0.2562 -0.3648  0.7302
   31MOL    C9516955   4.097   4.236   3.532  0.7373 -0.4482  0.3155
   31MOL    C9616956   4.130   4.213   3.398 -0.0918  0.4275  0.9175
   31MOL    C9716957   4.264   4.180   3.361 -0.0225  0.5551 -0.4530
   31MOL    C9816958   4.295   4.162   3.210 -0.6340 -0.3849  0.2426
   31MOL    O9916959   4.212   4.157   3.114  0.0292  0.0707 -0.1928
   31MOL   C10016960   4.360   4.162   3.464  0.2539 -0.1903  0.1164
   31MOL   C10116961   4.323   4.169   3.599  0.7574  0.1040  0.4503
   31MOL   H10216962   3.992   4.510   3.654 -1.0152 -1.1089  1.6722
   31MOL   H10316963   4.052   4.667   3.624  0.5412 -0.1517  1.4839
   31MOL   H10416964   3.939   4.700   3.877 -3.9890 -2.6394 -0.5574
   31MOL   H10516965   4.106   4.640   3.850  0.0950 -0.7093 -0.9755
   31MOL   H10616966   3.917   4.532   4.008 -1.8937  2.1853 -1.7002
   31MOL   H10716967   3.851   4.467   3.851  1.5565 -2.2068 -1.5884
   31MOL   H10816968   4.123   4.396   3.968  0.9306 -2.2774 -0.4684
   31MOL   H10916969   3.980   4.298   3.980 -1.7801 -0.1422 -1.2459
   31MOL   H11016970   3.994   4.265   3.548 -0.0481 -1.6599 -2.4202
   31MOL   H11116971   4.057   4.231   3.321  1.8339 -0.3160 -1.1263
   31MOL   H11216972   4.456   4.123   3.434 -0.2949 -0.8212 -0.8426
   31MOL   H11316973   4.396   4.158   3.678 -0.5121 -1.5315  1.4388
   31MOL   O11416974   4.428   4.154   3.195  0.3129  0.4137 -0.1468
   31MOL   C11516975   4.482   4.177   3.067  0.3103 -0.0563  0.4580
   31MOL   C11616976   4.642   4.187   3.075  0.2422 -0.2221 -0.4828
   31MOL   C11716977   4.703   4.044   3.086  0.2470 -0.3155 -0.8675
   31MOL   C11816978   4.698   3.957   2.956 -0.4179  0.1060 -0.3158
   31MOL   O11916979   4.807   3.991   2.872  0.2697  0.7375 -0.4484
   31MOL   C12016980   4.820   3.923   2.751  0.3779  0.7523  0.1760
   31MOL   O12116981   4.735   3.840   2.712  0.4334 -0.1368 -0.5458
   31MOL   C12216982   4.926   3.977   2.661  0.6417 -1.0075 -0.1097
   31MOL   C12316983   4.946   3.926   2.537  0.4464 -0.0305 -0.3292
   31MOL   C12416984   5.049   3.967   2.456 -0.6758 -0.9898  0.1242
   31MOL   C12516985   5.135   4.068   2.505 -0.2063  0.1615  0.3008
   31MOL   C12616986   5.252   4.105   2.424 -0.0587 -0.2502 -0.0334
   31MOL   O12716987   5.327   4.195   2.457  0.4845 -0.3898 -0.0661
   31MOL   C12816988   5.118   4.128   2.636 -0.0618 -0.0141  0.0245
   31MOL   C12916989   5.010   4.077   2.715  1.0996  0.0882 -0.0922
   31MOL   H13016990   4.456   4.088   3.009  1.6771  0.4062 -0.8961
   31MOL   H13116991   4.446   4.268   3.018 -0.0828  0.1003  1.0371
   31MOL   H13216992   4.673   4.247   3.161  2.9727 -0.3163 -1.3593
   31MOL   H13316993   4.683   4.234   2.986  1.1964  0.8038  0.4769
   31MOL   H13416994   4.803   4.069   3.121 -0.0188  1.5926 -1.4123
   31MOL   H13516995   4.654   3.986   3.164  0.9438 -1.2774 -1.1335
   31MOL   H13616996   4.692   3.851   2.977 -0.8651  0.1892 -0.0088
   31MOL   H13716997   4.615   3.987   2.891  0.2113 -1.1722 -1.7494
   31MOL   H13816998   4.885   3.842   2.506  3.5752 -1.6824 -2.3325
   31MOL   H13916999   5.068   3.924   2.359  1.1724  1.8148 -0.8061
   31MOL   H14017000   5.189   4.195   2.680 -1.4318  0.1815  1.9914
   31MOL   H14117001   5.013   4.106   2.819 -3.7471 -0.8545  0.4270
   31MOL   O14217002   5.257   4.043   2.308 -0.7553  0.1204  0.0040
   31MOL   C14317003   5.371   4.072   2.228  0.5139  0.4852 -0.0502
   31MOL   C14417004   5.380   3.984   2.114 -0.3166  0.3815 -0.1560
   31MOL   C14517005   5.470   4.026   1.999 -0.8186 -0.2005 -0.5524
   31MOL   C14617006   5.618   4.034   2.033 -0.8659 -0.3079 -0.0503
   31MOL   O14717007   5.678   3.909   2.035  0.1455 -0.3086 -0.5069
   31MOL   C14817008   5.778   3.868   1.957  0.5949  0.3374  0.3139
   31MOL   O14917009   5.822   3.935   1.865 -0.1848  0.3290  0.2491
   31MOL   C15017010   5.817   3.731   1.989  0.1878 -0.2051  0.2813
   31MOL   C15117011   5.768   3.670   2.099 -0.1279  0.6096  0.5663
   31MOL   C15217012   5.824   3.545   2.143  0.1052  0.4361 -0.4131
   31MOL   C15317013   5.931   3.480   2.072  0.6853 -0.1228  0.0763
   31MOL   C15417014   5.992   3.357   2.113  0.1954  0.1674 -0.0465
   31MOL   O15517015   5.937   3.276   2.186  0.1792  0.0815 -0.3088
   31MOL   C15617016   5.976   3.543   1.953 -0.3040 -0.9663  0.0400
   31MOL   C15717017   5.925   3.668   1.913  0.7161  0.2829  0.0132
   31MOL   H15817018   5.352   4.166   2.177 -2.0328 -1.0822 -2.1363
   31MOL   H15917019   5.458   4.084   2.293  0.2134  0.4557  0.3625
   31MOL   H16017020   5.280   3.985   2.069  0.1133  0.2412 -1.1249
   31MOL   H16117021   5.408   3.886   2.151  0.4256  0.8388  0.5151
   31MOL   H16217022   5.457   3.956   1.917 -1.6708  0.7987 -1.2872
   31MOL   H16317023   5.439   4.126   1.968  2.3336  1.4669  1.3784
   31MOL   H16417024   5.678   4.108   1.980 -1.4068  1.1353  1.2850
   31MOL   H16517025   5.629   4.076   2.133 -0.0816  0.6477 -0.5279
   31MOL   H16617026   5.685   3.715   2.151  0.0933 -0.3257  1.7340
   31MOL   H16717027   5.784   3.503   2.234 -1.3146  2.6527  0.0488
   31MOL   H16817028   6.060   3.508   1.896 -0.9852 -1.9262 -0.3782
   31MOL   H16917029   5.959   3.726   1.828  0.4615  1.9115  1.0097
   31MOL   O17017030   6.122   3.358   2.082  0.1112 -0.6823  0.2471
   31MOL   C17117031   6.206   3.251   2.105  0.0046  0.9312 -0.3922
   31MOL   C17217032   6.243   3.228   2.252 -0.2636 -0.0971  0.2310
   31MOL   C17317033   6.389   3.268   2.295  0.2779 -0.4688  0.2238
   31MOL   C17417034   6.428   3.230   2.442 -0.0612  0.3165  0.0747
   31MOL   O17517035   6.392   3.097   2.469 -0.3589  0.3352  0.2419
   31MOL   C17617036   6.467   3.027   2.561 -0.2417 -0.0843 -0.0766
   31MOL   O17717037   6.564   3.076   2.617  0.0152  0.0751  0.5024
   31MOL   C17817038   6.421   2.890   2.568  0.2676 -0.0931 -0.3599
   31MOL   C17917039   6.490   2.789   2.635 -0.3262 -0.2252  0.3261
   31MOL   C18017040   6.444   2.655   2.631  0.4284  0.1575 -0.0120
   31MOL   C18117041   6.322   2.626   2.568  0.3316  0.7218 -0.0326
   31MOL   C18217042   6.269   2.483   2.576 -0.5610  0.5237  0.3395
   31MOL   O18317043   6.329   2.389   2.626  0.1088 -0.0225  0.1069
   31MOL   C18417044   6.253   2.727   2.501 -0.4236  0.7285 -0.5571
   31MOL   C18517045   6.297   2.860   2.506  0.3218 -0.0712  0.6860
   31MOL   H18617046   6.157   3.162   2.067  0.8079 -0.5504  1.9573
   31MOL   H18717047   6.295   3.260   2.041 -0.5202 -0.9255 -1.4037
   31MOL   H18817048   6.220   3.123   2.270  0.0786 -0.7488 -2.7932
   31MOL   H18917049   6.176   3.278   2.322  1.1013  0.8682  0.8774
   31MOL   H19017050   6.457   3.211   2.233 -0.0905 -0.5135 -0.1470
   31MOL   H19117051   6.407   3.375   2.281  0.7655 -0.3929  1.4378
   31MOL   H19217052   6.530   3.250   2.473 -0.7611  3.5519  0.4712
   31MOL   H19317053   6.377   3.295   2.513  2.0450  0.8698  1.1358
   31MOL   H19417054   6.577   2.805   2.697 -1.3647 -0.8687  1.9771
   31MOL   H19517055   6.488   2.574   2.688 -2.3709  0.9680  3.5300
   31MOL   H19617056   6.156   2.700   2.463  0.0144 -2.8142  0.7206
   31MOL   H19717057   6.233   2.929   2.452  0.8903 -2.1149 -2.7541
   31MOL   O19817058   6.142   2.468   2.539  1.2246  0.3894  0.0274
   31MOL   C19917059   6.070   2.354   2.576  0.2384  0.3411 -0.2213
   31MOL   C20017060   5.921   2.350   2.533 -0.2220  0.0316 -0.1633
   31MOL   C20117061   5.844   2.477   2.595  0.3609 -0.0722 -0.4040
   31MOL   C20217062   5.703   2.475   2.542  0.6757 -0.9194  0.8280
   31MOL   O20317063   5.641   2.586   2.607  0.5583 -0.7509 -0.4278
   31MOL   C20417064   5.523   2.579   2.670 -0.4733  0.0665 -0.7777
   31MOL   O20517065   5.459   2.474   2.671  0.7191 -0.1998 -0.0852
   31MOL   C20617066   5.482   2.708   2.721  0.1571  0.7831  0.4745
   31MOL   C20717067   5.365   2.708   2.797 -0.4670  0.0859 -0.0982
   31MOL   C20817068   5.317   2.816   2.870 -0.2126 -0.7532 -0.9524
   31MOL   C20917069   5.375   2.947   2.838  0.0019  0.4265 -0.2027
   31MOL   C21017070   5.304   3.069   2.884 -0.7559  0.0613 -0.4482
   31MOL   O21117071   5.191   3.070   2.939  0.3229 -0.6951  0.3401
   31MOL   C21217072   5.485   2.950   2.748 -0.0519  0.0781  0.3723
   31MOL   C21317073   5.542   2.831   2.691  0.0510  0.3691  0.7144
   31MOL   H21417074   6.116   2.279   2.512  1.7432 -0.6511  1.9758
   31MOL   H21517075   6.077   2.347   2.684  3.9811 -1.6705 -0.5236
   31MOL   H21617076   5.876   2.253   2.554  0.1430 -0.4134 -1.3751
   31MOL   H21717077   5.900   2.371   2.428  0.0981  1.2886  0.0080
   31MOL   H21817078   5.843   2.469   2.704  2.0450 -1.4554 -0.4727
   31MOL   H21917079   5.895   2.571   2.576 -0.8253  0.9104  1.0636
   31MOL   H22017080   5.702   2.491   2.434  1.3484  2.9880  1.3393
   31MOL   H22117081   5.647   2.383   2.563  0.1239 -0.8339 -0.2173
   31MOL   H22217082   5.299   2.625   2.816 -0.3993  0.0067 -0.2129
   31MOL   H22317083   5.227   2.804   2.928  1.1770 -0.7849  1.2581
   31MOL   H22417084   5.539   3.037   2.714  1.8997 -1.3857 -0.4328
   31MOL   H22517085   5.630   2.845   2.630  1.0330 -0.2530  1.9756
   31MOL   O22617086   5.382   3.171   2.872  0.1472 -0.6012  0.5206
   31MOL   C22717087   5.345   3.296   2.921 -0.2233  0.2903 -0.2824
   31MOL   C22817088   5.338   3.314   3.076  0.4458  0.4860  0.4028
   31MOL   C22917089   5.310   3.458   3.107 -0.2442  0.7067 -0.0017
   31MOL   C23017090   5.263   3.484   3.249  0.7482 -0.0935 -0.2618
   31MOL   O23117091   5.163   3.398   3.298 -0.4729 -0.4701  0.0796
   31MOL   C23217092   5.108   3.398   3.422 -0.6439 -0.0331  0.0574
   31MOL   O23317093   5.143   3.485   3.499 -0.3192 -0.4248  0.2682
   31MOL   C23417094   5.016   3.297   3.459  0.2172 -0.6246  0.6482
   31MOL   C23517095   4.994   3.185   3.378 -0.3125  0.6544 -0.4106
   31MOL   C23617096   4.914   3.077   3.431  0.9133  0.1818 -0.4488
   31MOL   C23717097   4.856   3.084   3.557 -0.8964  0.6312  0.1384
   31MOL   C23817098   4.787   2.965   3.608 -0.2885  0.9894  0.7364
   31MOL   O23917099   4.752   2.951   3.727 -0.4187  0.4717  0.0613
   31MOL   C24017100   4.876   3.202   3.634  0.1106 -0.0403  0.3005
   31MOL   C24117101   4.952   3.308   3.583 -0.1016  0.1819 -0.8677
   31MOL   H24217102   5.405   3.380   2.884  0.3851 -0.5055 -1.1199
   31MOL   H24317103   5.246   3.319   2.880  0.9029  1.5977 -2.4221
   31MOL   H24417104   5.431   3.272   3.112  1.0714  3.2135  2.0678
   31MOL   H24517105   5.256   3.257   3.119  0.8931 -0.6524 -0.2298
   31MOL   H24617106   5.402   3.509   3.078  0.5016  0.1815  1.4378
   31MOL   H24717107   5.228   3.495   3.044  0.5363 -1.0583 -2.1270
   31MOL   H24817108   5.352   3.492   3.311  0.0785  0.0014  0.7011
   31MOL   H24917109   5.211   3.580   3.255  0.6875 -0.2764  3.0173
   31MOL   H25017110   5.041   3.167   3.282 -0.6353 -4.2230  0.2013
   31MOL   H25117111   4.909   2.991   3.365  0.8445 -1.8092  2.1050
   31MOL   H25217112   4.827   3.216   3.729 -0.0318 -1.9554  0.5399
   31MOL   H25317113   4.970   3.395   3.643 -1.2805 -0.5240  0.5414
   31MOL   O25417114   4.755   2.872   3.512  0.0612 -0.1013 -0.7060
   31MOL   C25517115   4.665   2.762   3.561 -0.3870  0.1951 -0.4022
   31MOL   C25617116   4.650   2.676   3.434  0.8251 -0.9104  0.0540
   31MOL   C25717117   4.581   2.531   3.456 -0.7171 -0.3021 -0.5233
   31MOL   C25817118   4.659   2.446   3.560 -0.7665 -0.1335  0.0820
   31MOL   O25917119   4.635   2.313   3.533  0.0510  0.1968  0.5564
   31MOL   C26017120   4.537   2.242   3.601  1.0303 -0.3825  0.2635
   31MOL   O26117121   4.466   2.303   3.682  0.0652  0.6310 -0.3655
   31MOL   C26217122   4.529   2.090   3.570  0.2317 -0.4729 -0.3270
   31MOL   C26317123   4.434   2.006   3.638  0.2841  0.4573  0.4981
   31MOL   C26417124   4.432   1.863   3.628 -0.0236 -0.3695 -0.5395
   31MOL   C26517125   4.512   1.809   3.528  0.2005  0.0430  0.2559
   31MOL   C26617126   4.519   1.658   3.491  0.7438 -0.5807 -0.0419
   31MOL   O26717127   4.593   1.605   3.409  0.1184  0.2657 -0.2483
   31MOL   C26817128   4.601   1.889   3.453  0.2896 -0.3408 -0.2161
   31MOL   C26917129   4.610   2.029   3.474 -0.9821 -0.4558  0.1483
   31MOL   H27017130   4.701   2.710   3.650 -0.5171  0.8377  0.0267
   31MOL   H27117131   4.563   2.786   3.592 -0.3724  0.6244 -0.6830
   31MOL   H27217132   4.751   2.657   3.396  0.4924 -0.1853 -1.2330
   31MOL   H27317133   4.598   2.731   3.355 -0.1259 -0.9500  0.6454
   31MOL   H27417134   4.478   2.546   3.488 -0.8346  1.5752 -1.6790
   31MOL   H27517135   4.565   2.493   3.355 -1.2433  1.6731 -1.2060
   31MOL   H27617136   4.763   2.461   3.530 -1.1134  1.5361 -0.3459
   31MOL   H27717137   4.633   2.486   3.658 -0.0083  2.4634 -0.7200
   31MOL   H27817138   4.365   2.047   3.710 -0.5516  0.1938 -0.1496
   31MOL   H27917139   4.361   1.803   3.682 -2.5738  1.4901 -1.7596
   31MOL   H28017140   4.672   1.841   3.386  0.4492  1.0178 -1.0528
   31MOL   H28117141   4.674   2.082   3.404  0.1632 -0.2442  1.3313
   31MOL   O28217142   4.432   1.595   3.569 -0.6624  0.3211  0.1875
   31MOL   C28317143   4.414   1.463   3.552 -0.3869  0.0500  0.1406
   31MOL   C28417144   4.324   1.436   3.675  0.4003  0.1410  0.8356
   31MOL   C28517145   4.176   1.472   3.660  0.1965 -0.2408 -0.4910
   31MOL   C28617146   4.075   1.399   3.737  0.1805  0.2761 -0.5406
   31MOL   O28717147   4.057   1.445   3.866 -0.4800 -0.2165 -0.2460
   31MOL   C28817148   4.149   1.412   3.960 -0.5184 -0.3149  0.3188
   31MOL   O28917149   4.241   1.327   3.943  0.3400 -0.7516 -0.2732
   31MOL   C29017150   4.129   1.486   4.084 -0.6303 -0.2843  0.2125
   31MOL   C29117151   4.035   1.589   4.103  0.0216 -0.2576 -0.7394
   31MOL   C29217152   4.011   1.643   4.235  0.0934 -0.0682  0.0627
   31MOL   C29317153   4.094   1.604   4.340 -0.3291 -0.4602 -0.5988
   31MOL   C29417154   4.079   1.674   4.473 -0.1125  0.1225  0.8007
   31MOL   O29517155   4.135   1.636   4.573 -0.8400  0.3907  0.0209
   31MOL   C29617156   4.187   1.499   4.324 -0.0479 -0.3951  0.3728
   31MOL   C29717157   4.203   1.442   4.197 -0.2796  0.1693 -0.0686
   31MOL   H29817158   4.363   1.433   3.461  2.3403 -0.0324 -1.3959
   31MOL   H29917159   4.513   1.422   3.570  0.0016  0.5239 -0.8984
   31MOL   H30017160   4.360   1.478   3.769  0.8890  3.3623 -0.7167
   31MOL   H30117161   4.308   1.329   3.692 -2.1896  0.4200  0.3196
   31MOL   H30217162   4.166   1.577   3.689  1.3037 -0.4793  0.8424
   31MOL   H30317163   4.152   1.462   3.554  0.0590  2.7439 -0.7884
   31MOL   H30417164   3.979   1.412   3.687 -0.7353  0.7076  1.3009
   31MOL   H30517165   4.096   1.292   3.736  1.6407  0.5230  0.7772
   31MOL   H30617166   3.994   1.631   4.012  1.2633  0.6796 -0.8760
   31MOL   H30717167   3.940   1.725   4.241 -0.2182 -0.3452  0.1571
   31MOL   H30817168   4.238   1.459   4.410 -2.1310 -2.8461  0.5386
   31MOL   H30917169   4.271   1.358   4.199 -0.4297  0.0730  1.5133
   31MOL   O31017170   3.997   1.783   4.468  0.5880  0.5982  0.2655
   31MOL   C31117171   3.982   1.869   4.580  0.5517 -0.4783 -0.3817
   31MOL   C31217172   3.879   1.977   4.535  0.2745  0.0604  0.0820
   31MOL   C31317173   3.936   2.066   4.423 -0.4099  0.2686 -0.1498
   31MOL   C31417174   3.825   2.161   4.380 -0.2859 -0.2247 -0.5471
   31MOL   O31517175   3.824   2.272   4.468 -0.2899  0.8575  0.2531
   31MOL   C31617176   3.718   2.351   4.476  0.3502 -0.0016 -0.6542
   31MOL   O31717177   3.622   2.358   4.400  0.4044  0.1281  0.0250
   31MOL   C31817178   3.742   2.448   4.591  0.7023  0.4425  0.0504
   31MOL   C31917179   3.861   2.458   4.669  0.9168  0.5420  0.8686
   31MOL   C32017180   3.877   2.547   4.778  0.0631 -0.6887 -0.1720
   31MOL   C32117181   3.768   2.638   4.803  0.5178  0.2824 -0.1584
   31MOL   C32217182   3.786   2.736   4.917  0.3456  0.3019  0.2500
   31MOL   O32317183   3.881   2.725   4.995 -0.3662 -0.6391  0.0428
   31MOL   C32417184   3.648   2.624   4.732 -0.3999 -0.0878 -0.3351
   31MOL   C32517185   3.640   2.540   4.620 -0.1898 -0.3471 -0.7102
   31MOL   H32617186   3.937   1.811   4.660 -0.0677  1.1703  0.4877
   31MOL   H32717187   4.080   1.904   4.613  0.1774 -2.5484  3.1433
   31MOL   H32817188   3.842   2.033   4.621  2.1804 -1.1514  1.7450
   31MOL   H32917189   3.799   1.922   4.485  0.0900  0.3770  0.0261
   31MOL   H33017190   4.022   2.124   4.456 -0.3284 -0.1128  0.3042
   31MOL   H33117191   3.982   2.008   4.343  1.7899  1.3069  0.3234
   31MOL   H33217192   3.834   2.194   4.276 -0.6842  1.0304 -0.1915
   31MOL   H33317193   3.729   2.111   4.396 -0.9322  0.9849 -0.6080
   31MOL   H33417194   3.941   2.388   4.646 -2.2059 -2.9234  0.0848
   31MOL   H33517195   3.967   2.551   4.838  1.6413  0.6972 -2.5561
   31MOL   H33617196   3.573   2.698   4.754  0.4472  0.9163 -0.7727
   31MOL   H33717197   3.547   2.531   4.567 -0.4911  0.1380 -0.2759
   31MOL   O33817198   3.686   2.834   4.919 -0.2590  0.3520  0.3922
   31MOL   C33917199   3.677   2.928   5.031 -0.1448 -0.4309 -0.1650
   31MOL   C34017200   3.561   3.024   5.005  0.2463  0.1280  1.1550
   31MOL   C34117201   3.426   2.969   4.951 -0.5348 -0.7058 -0.2457
   31MOL   C34217202   3.349   2.885   5.056 -0.1921 -0.6626  0.0654
   31MOL   O34317203   3.406   2.754   5.065 -0.4229 -0.1525 -0.3020
   31MOL   C34417204   3.391   2.684   5.180 -0.6000 -0.0970 -0.3452
   31MOL   O34517205   3.361   2.734   5.293  0.9613  0.1188 -0.1051
   31MOL   C34617206   3.424   2.544   5.148  0.0895  0.4223  0.6431
   31MOL   C34717207   3.357   2.435   5.216 -0.1012 -0.4374 -0.2442
   31MOL   C34817208   3.391   2.299   5.187  0.0457 -0.0294 -0.2587
   31MOL   C34917209   3.495   2.269   5.096  0.1386  0.9023  0.2944
   31MOL   C35017210   3.533   2.128   5.074 -0.8544 -0.4338 -0.0418
   31MOL   O35117211   3.508   2.034   5.147 -0.1008  0.2776  0.0143
   31MOL   C35217212   3.551   2.372   5.027 -0.0335 -0.2131 -0.0901
   31MOL   C35317213   3.519   2.511   5.048 -0.6523  0.1817 -0.1782
   31MOL   H35417214   3.654   2.870   5.120  0.6382 -0.5763 -0.0592
   31MOL   H35517215   3.769   2.984   5.048  0.9802 -2.1251 -0.5440
   31MOL   H35617216   3.603   3.107   4.948  0.9835  0.4678  2.1833
   31MOL   H35717217   3.551   3.078   5.099 -1.8407  0.9397  0.5006
   31MOL   H35817218   3.358   3.051   4.925  0.3077  0.2056  0.4109
   31MOL   H35917219   3.448   2.914   4.860  0.2581  2.4410 -2.0367
   31MOL   H36017220   3.356   2.931   5.155 -0.5514  1.1207 -0.7182
   31MOL   H36117221   3.245   2.861   5.034  0.7679 -2.2791 -2.9785
   31MOL   H36217222   3.281   2.464   5.286  0.3760  2.8159 -0.9878
   31MOL   H36317223   3.330   2.223   5.234  1.1927 -0.5930  0.3384
   31MOL   H36417224   3.626   2.342   4.954 -0.2128 -1.7225  0.3367
   31MOL   H36517225   3.577   2.582   4.993  3.3381 -4.2062 -1.9202
   31MOL   O36617226   3.608   2.104   4.966 -0.7999  0.0722  0.2258
   31MOL   C36717227   3.684   1.982   4.944 -0.5489  0.0656  0.0454
   31MOL   C36817228   3.587   1.879   4.882 -0.3460  0.2776 -0.2750
   31MOL   C36917229   3.669   1.757   4.825 -0.4354 -0.4287  0.3291
   31MOL   C37017230   3.586   1.675   4.729 -0.6010 -0.4825  0.4832
   31MOL   O37117231   3.664   1.621   4.627 -0.2057 -0.4359  0.2603
   31MOL   C37217232   3.615   1.586   4.501  0.3017  0.3360  0.2513
   31MOL   O37317233   3.503   1.619   4.461  0.0513  0.6287 -0.3886
   31MOL   C37417234   3.702   1.491   4.429  0.9681 -0.0133  0.2783
   31MOL   C37517235   3.793   1.415   4.503 -0.5987  0.2143  1.0318
   31MOL   C37617236   3.868   1.316   4.437  0.6977 -0.0484 -0.7042
   31MOL   C37717237   3.862   1.292   4.296  1.1065  0.3651  0.0996
   31MOL   C37817238   3.955   1.197   4.235 -1.1665  0.0470  0.1695
   31MOL   O37917239   4.049   1.137   4.289 -0.3528  0.6518  0.2687
   31MOL   C38017240   3.775   1.384   4.226  0.2452  0.4805  0.9837
   31MOL   C38117241   3.701   1.484   4.287 -0.5342 -0.1386  0.5755
   31MOL   H38217242   3.768   2.006   4.879  0.2706 -0.4266  0.9196
   31MOL   H38317243   3.730   1.952   5.037  0.4441  1.7110  0.1173
   31MOL   H38417244   3.519   1.931   4.815 -1.2755 -1.3407 -0.6105
   31MOL   H38517245   3.521   1.839   4.959  1.8769  0.0735  1.5846
   31MOL   H38617246   3.754   1.802   4.773 -0.7933  1.7115  1.5092
   31MOL   H38717247   3.710   1.690   4.901  2.0568 -0.2881 -0.8375
   31MOL   H38817248   3.544   1.589   4.781 -0.8703 -0.5079  0.2305
   31MOL   H38917249   3.496   1.724   4.692  0.1176 -0.2127 -0.9342
   31MOL   H39017250   3.808   1.431   4.609 -0.8622 -0.2654  1.1416
   31MOL   H39117251   3.944   1.262   4.491  2.4918  0.4500 -2.6398
   31MOL   H39217252   3.776   1.391   4.118  0.1558  3.2995  1.1321
   31MOL   H39317253   3.635   1.547   4.229 -0.3125 -2.2265 -2.0437
   31MOL   O39417254   3.926   1.173   4.102  0.1305  0.0084  0.6312
   31MOL   C39517255   3.989   1.077   4.016 -0.6214 -0.0187 -0.2343
   31MOL   C39617256   3.880   1.015   3.927  0.0924  0.2451  0.6690
   31MOL   C39717257   3.778   0.934   4.014 -0.4125  0.1582 -0.3127
   31MOL   C39817258   3.652   0.879   3.945 -0.0002  0.9434  0.1991
   31MOL   O39917259   3.576   0.807   4.039 -0.0970  0.2779  0.6031
   31MOL   C40017260   3.455   0.862   4.085  0.4928 -0.0751 -0.2849
   31MOL   O40117261   3.412   0.970   4.048  0.5081  0.5701 -0.3044
   31MOL   C40217262   3.372   0.774   4.174 -0.1902  0.7179 -0.0325
   31MOL   C40317263   3.412   0.640   4.205 -0.1145 -0.2956  1.0404
   31MOL   C40417264   3.317   0.558   4.267  0.7108 -0.3923  0.2004
   31MOL   C40517265   3.185   0.597   4.294 -0.3088  0.8846  0.1898
   31MOL   C40617266   3.101   0.504   4.372 -0.1303 -0.5447  0.6268
   31MOL   O40717267   3.142   0.396   4.403  0.1118  0.0186  0.2932
   31MOL   C40817268   3.151   0.730   4.280  0.9523 -0.1630 -0.0980
   31MOL   C40917269   3.250   0.818   4.217  0.5134  0.2837  0.6616
   31MOL   H41017270   4.060   1.127   3.949 -0.3640 -2.5441 -1.9076
   31MOL   H41117271   4.049   1.004   4.069 -1.3020 -0.1053  0.4149
   31MOL   H41217272   3.918   0.958   3.842 -3.4404  2.0952 -2.3006
   31MOL   H41317273   3.817   1.091   3.881 -0.7902 -0.7565  0.1886
   31MOL   H41417274   3.833   0.843   4.038 -2.1381 -0.5524  1.0919
   31MOL   H41517275   3.763   0.987   4.108  0.0258 -0.5330  0.1486
   31MOL   H41617276   3.592   0.955   3.895 -0.4624  0.1667 -0.4506
   31MOL   H41717277   3.684   0.816   3.862 -1.1744 -0.3177  0.6823
   31MOL   H41817278   3.505   0.596   4.173  0.6259  2.6233 -1.0063
   31MOL   H41917279   3.345   0.456   4.286 -0.7882 -0.8382  0.1029
   31MOL   H42017280   3.052   0.772   4.288  1.0444  0.8072 -3.1322
   31MOL   H42117281   3.214   0.915   4.186  0.9876  0.1361 -0.3586
   31MOL   O42217282   2.972   0.546   4.398 -0.7560 -0.2487  0.1719
   31MOL   C42317283   2.874   0.449   4.452  1.0763 -0.3290 -0.0220
   31MOL   C42417284   2.726   0.492   4.428 -0.6942  0.3912 -0.4827
   31MOL   C42517285   2.694   0.631   4.501 -0.0568  0.3506 -0.5264
   31MOL   C42617286   2.547   0.661   4.514  0.4266 -0.3910  0.2016
   31MOL   O42717287   2.512   0.702   4.385  0.0416 -0.0117 -0.1631
   31MOL   C42817288   2.414   0.652   4.316  0.1605  0.6578 -0.3826
   31MOL   O42917289   2.345   0.560   4.356 -0.0455 -0.0142  0.1200
   31MOL   C43017290   2.394   0.718   4.185 -0.2588  0.6280 -0.9499
   31MOL   C43117291   2.495   0.799   4.128  0.3860 -0.0128  0.1340
   31MOL   C43217292   2.468   0.859   4.000 -0.2202 -0.6458 -0.0476
   31MOL   C43317293   2.338   0.842   3.939 -0.4498  0.2081 -0.0228
   31MOL   C43417294   2.302   0.896   3.807  0.2093  0.0741  0.0152
   31MOL   O43517295   2.185   0.927   3.781 -0.1704 -0.1798 -0.1035
   31MOL   C43617296   2.236   0.764   4.004  0.4681  0.0194 -0.1331
   31MOL   C43717297   2.267   0.702   4.124 -0.4094  0.0408  0.2573
   31MOL   H43817298   2.885   0.354   4.398  2.3949  1.1674 -2.4791
   31MOL   H43917299   2.906   0.433   4.555  0.8662 -0.5841  0.0044
   31MOL   H44017300   2.660   0.422   4.479  1.4456 -0.9317  0.4979
   31MOL   H44117301   2.697   0.492   4.323 -1.6765  1.9037 -0.2292
   31MOL   H44217302   2.736   0.622   4.602 -0.9023 -1.3155 -0.3080
   31MOL   H44317303   2.740   0.719   4.458  1.5763  0.4099  1.2136
   31MOL   H44417304   2.490   0.572   4.544 -1.4352  0.9699  0.8353
   31MOL   H44517305   2.520   0.743   4.581 -1.0693 -0.0731 -0.7601
   31MOL   H44617306   2.595   0.810   4.167  0.7749  2.7402 -1.4781
   31MOL   H44717307   2.542   0.924   3.955 -0.0604 -1.3120 -0.7643
   31MOL   H44817308   2.139   0.757   3.957  1.0903 -0.4880 -1.3801
   31MOL   H44917309   2.190   0.641   4.167  0.5483 -0.3731  1.4119
   31MOL   O45017310   2.410   0.911   3.730  0.0407  0.5837  0.2946
   31MOL   C45117311   2.408   0.964   3.600 -0.1883 -0.3168 -0.2234
   31MOL   C45217312   2.482   1.097   3.602  0.0486  0.2792 -0.0141
   31MOL   C45317313   2.623   1.107   3.663  0.5785 -0.1311  0.2728
   31MOL   C45417314   2.712   1.005   3.594 -0.4138 -0.1954  0.0429
   31MOL   O45517315   2.693   0.872   3.648  0.1345 -0.1294 -0.5580
   31MOL   C45617316   2.756   0.835   3.767  0.4971 -0.7997 -0.1566
   31MOL   O45717317   2.798   0.921   3.841 -0.0900 -0.5383  0.1225
   31MOL   C45817318   2.751   0.692   3.794 -0.8581  1.0922  0.4851
   31MOL   C45917319   2.794   0.641   3.922  0.1861 -0.7164 -0.0627
   31MOL   C46017320   2.796   0.509   3.961  0.2877  0.1170  0.0281
   31MOL   C46117321   2.760   0.408   3.870  0.3616  0.2273  0.5705
   31MOL   C46217322   2.774   0.264   3.896 -0.1106  0.1433 -0.3455
   31MOL   O46317323   2.753   0.174   3.812 -0.4173  0.4534 -0.3935
   31MOL   C46417324   2.721   0.455   3.742 -0.7505 -0.4370 -0.0474
   31MOL   C46517325   2.713   0.592   3.699 -0.2970  0.1261  0.2897
   31MOL   H46617326   2.460   0.895   3.534  0.0610 -0.2292 -0.1182
   31MOL   H46717327   2.309   0.960   3.555  0.0448  0.2683 -0.7936
   31MOL   H46817328   2.414   1.165   3.652 -3.6691 -1.6235 -2.2846
   31MOL   H46917329   2.474   1.136   3.500  1.1155  0.2996 -0.1023
   31MOL   H47017330   2.661   1.208   3.644 -0.4840  0.0218 -1.0427
   31MOL   H47117331   2.614   1.093   3.771  0.9046  0.3257  0.3634
   31MOL   H47217332   2.696   1.000   3.486 -1.7846  1.0956  0.1730
   31MOL   H47317333   2.811   1.049   3.605  0.2141 -1.5674  0.0433
   31MOL   H47417334   2.828   0.716   3.992  0.8126 -0.3678 -0.7237
   31MOL   H47517335   2.824   0.481   4.062 -1.7271  1.0914  0.8928
   31MOL   H47617336   2.691   0.380   3.670  0.4006 -1.4900  0.5416
   31MOL   H47717337   2.680   0.623   3.601  0.0135 -1.5021 -0.3398
   31MOL   O47817338   2.812   0.236   4.025 -0.2510 -0.2938  0.1036
   31MOL   C47917339   2.831   0.106   4.063 -0.6294  0.4356 -0.4878
   31MOL   C48017340   2.870   0.085   4.208  0.5413 -0.4314 -0.0889
   31MOL   C48117341   3.015   0.136   4.238 -0.3518  0.8446  0.1390
   31MOL   C48217342   3.121   0.028   4.233  0.3813 -0.1317  0.6543
   31MOL   O48317343   3.135   8.078   4.097 -0.0439  0.3744  0.1468
   31MOL   C48417344   3.238   8.006   4.073  0.1058 -0.1857 -0.1847
   31MOL   O48517345   3.337   8.010   4.133 -0.3767  0.3026  0.4871
   31MOL   C48617346   3.232   7.925   3.950 -0.2088  0.4567  1.0635
   31MOL   C48717347   3.117   7.904   3.871 -0.0091  0.0882  0.2907
   31MOL   C48817348   3.114   7.829   3.757  0.2689 -0.2592  0.3007
   31MOL   C48917349   3.236   7.765   3.712  0.0002  0.3288  0.2712
   31MOL   C49017350   3.230   7.671   3.593  0.4097  0.5204  0.9249
   31MOL   O49117351   3.126   7.630   3.541 -0.5101 -0.4049  0.3904
   31MOL   C49217352   3.359   7.792   3.781 -0.0496 -0.7437 -0.6716
   31MOL   C49317353   3.352   7.870   3.899 -0.1404 -0.8101  0.1358
   31MOL   H49417354   2.748   0.038   4.045  0.2225 -0.9566  0.6615
   31MOL   H49517355   2.920   0.078   4.007  0.0292  0.3941  0.5743
   31MOL   H49617356   2.865   8.078   4.234  0.5600 -0.8656 -1.8165
   31MOL   H49717357   2.799   0.129   4.279 -1.3619 -1.3941 -1.3685
   31MOL   H49817358   3.041   0.220   4.175  2.2329  0.5717  0.7586
   31MOL   H49917359   3.009   0.189   4.333 -1.2346  1.4812 -0.2694
   31MOL   H50017360   3.214   0.071   4.272  0.6853 -2.7053  2.9237
   31MOL   H50117361   3.087   8.044   4.295  0.0123  0.0779  0.7313
   31MOL   H50217362   3.023   7.948   3.899  0.3131  1.2797 -0.4282
   31MOL   H50317363   3.019   7.827   3.705  1.1269  0.7722 -1.3494
   31MOL   H50417364   3.454   7.746   3.757  2.2237  3.6977 -0.7528
   31MOL   H50517365   3.447   7.882   3.948  0.5278 -2.5186 -0.7079
   31MOL   O50617366   3.351   7.639   3.551  0.5926  0.4813  0.0027
   31MOL   C50717367   3.366   7.541   3.447  0.3284  0.6118 -0.1689
   31MOL   C50817368   3.433   7.602   3.327  0.4194  0.8032 -0.9027
   31MOL   C50917369   3.431   7.514   3.200 -0.0781  0.3095  0.2875
   31MOL   C51017370   3.492   7.585   3.074 -0.7121 -0.7532 -0.2358
   31MOL   O51117371   3.631   7.563   3.084  0.6880 -0.0302  0.3808
   31MOL   C51217372   3.710   7.631   2.990  0.1685 -0.9091  0.4134
   31MOL   O51317373   3.656   7.697   2.898  0.0185  0.2498 -0.4532
   31MOL   C51417374   3.854   7.588   3.002 -0.3270 -0.1268 -0.9830
   31MOL   C51517375   3.897   7.523   3.118  0.1830 -0.1772  0.6679
   31MOL   C51617376   4.025   7.459   3.129 -0.3809  0.0118  0.3430
   31MOL   C51717377   4.109   7.470   3.018  0.3531  1.0084  0.4555
   31MOL   C51817378   4.239   7.397   3.026  0.0011 -0.0840 -0.2390
   31MOL   O51917379   4.286   7.339   3.124 -0.0357  0.1518  0.5322
   31MOL   C52017380   4.078   7.549   2.908 -0.6340 -0.3927 -0.9903
   31MOL   C52117381   3.947   7.612   2.899 -0.2620 -0.2494 -0.6491
   31MOL   H52217382   3.433   7.460   3.474  1.0661  1.2922  0.0651
   31MOL   H52317383   3.277   7.482   3.427 -0.1879  0.3441  2.6871
   31MOL   H52417384   3.534   7.635   3.348  1.2084 -1.8320 -0.3483
   31MOL   H52517385   3.387   7.695   3.294 -2.2091 -1.1817 -3.1183
   31MOL   H52617386   3.458   7.409   3.207 -3.0899 -0.4062  2.0094
   31MOL   H52717387   3.325   7.497   3.185 -0.2293  0.2209  1.4244
   31MOL   H52817388   3.464   7.534   2.982 -0.9606  0.0062 -0.5834
   31MOL   H52917389   3.457   7.688   3.064 -0.4967 -0.6199  0.3937
   31MOL   H53017390   3.829   7.519   3.201 -0.2192 -0.3469  0.3347
   31MOL   H53117391   4.061   7.422   3.224  0.9903 -0.2668 -0.2710
   31MOL   H53217392   4.148   7.569   2.828  0.0869 -1.2608 -0.5820
   31MOL   H53317393   3.915   7.678   2.820  0.0543  0.6368 -0.0368
   31MOL   O53417394   4.309   7.412   2.907 -0.4567 -0.9039 -0.5790
   31MOL   C53517395   4.432   7.356   2.893  0.1199 -0.2273 -0.3519
   31MOL   C53617396   4.438   7.286   2.761  0.2669 -0.0037  0.3319
   31MOL   C53717397   4.360   7.150   2.753  0.0484  0.6231 -0.5417
   31MOL   C53817398   4.412   7.069   2.627  0.3238 -0.5789  0.1787
   31MOL   O53917399   4.544   7.036   2.657  0.5249  0.1809 -0.0135
   31MOL   C54017400   4.619   6.965   2.570  0.1467  0.0083 -0.3734
   31MOL   O54117401   4.583   6.930   2.461  0.3063 -0.5169 -0.3821
   31MOL   C54217402   4.747   6.910   2.623  0.8023 -0.3712 -0.6019
   31MOL   C54317403   4.816   6.815   2.550 -0.3854 -0.4837  0.1073
   31MOL   C54417404   4.930   6.753   2.603  0.2959 -0.6692  0.6407
   31MOL   C54517405   4.968   6.779   2.731 -0.0444  0.2694  0.0710
   31MOL   C54617406   5.089   6.721   2.793  0.6084  0.3775  0.2067
   31MOL   O54717407   5.165   6.654   2.721 -0.4177 -0.2904 -0.2845
   31MOL   C54817408   4.893   6.868   2.809  0.3333 -0.0672  0.1373
   31MOL   C54917409   4.787   6.939   2.752  0.1985  0.0397 -0.4545
   31MOL   H55017410   4.506   7.436   2.897 -1.9872  1.8417 -1.5444
   31MOL   H55117411   4.445   7.279   2.969  0.1138 -0.3694 -0.4931
   31MOL   H55217412   4.545   7.269   2.748 -0.1241 -1.0661 -1.7542
   31MOL   H55317413   4.408   7.357   2.684 -1.1624 -0.5359  0.3731
   31MOL   H55417414   4.361   7.090   2.844  0.5105 -2.4677 -2.5093
   31MOL   H55517415   4.252   7.162   2.752 -0.3577 -1.9198  3.4566
   31MOL   H55617416   4.340   6.987   2.617  1.7402 -1.8810  0.4654
   31MOL   H55717417   4.405   7.131   2.537 -0.0119 -2.5378 -1.1912
   31MOL   H55817418   4.784   6.793   2.450 -1.8972  3.0319 -0.2748
   31MOL   H55917419   4.971   6.677   2.538 -1.3886 -0.7337 -0.3676
   31MOL   H56017420   4.924   6.885   2.911 -0.6007  1.8863  0.1319
   31MOL   H56117421   4.730   7.016   2.801 -0.0320  0.0666 -0.7627
   31MOL   H56217422   5.105   6.746   2.898  2.8474 -1.0338  0.2274
   32MOL     O117423   2.640   2.557   7.078 -0.3100  0.0227 -0.3249
   32MOL     C217424   2.646   2.578   7.222 -0.5927 -0.2297 -0.9714
   32MOL     C317425   2.609   2.714   7.278 -0.1889 -0.2161  0.9897
   32MOL     C417426   2.466   2.753   7.249  0.1741 -0.4867  0.2327
   32MOL     C517427   2.424   2.893   7.317  0.0503  0.6627  0.7523
   32MOL     O617428   2.280   2.914   7.323 -0.0207 -0.2419 -0.1862
   32MOL     C717429   2.228   3.028   7.360  0.2042 -0.1872 -0.4199
   32MOL     O817430   2.302   3.125   7.395 -0.3066 -0.3081 -0.5171
   32MOL     C917431   2.080   3.021   7.371  0.3850 -0.0167  1.1876
   32MOL    C1017432   2.010   2.894   7.354  0.8213 -0.1192  0.4643
   32MOL    C1117433   1.866   2.894   7.339 -0.0750  0.3689 -0.8256
   32MOL    C1217434   1.793   3.013   7.345 -0.3599  0.3026  0.6121
   32MOL    C1317435   1.645   3.028   7.342 -0.3573  1.0014 -0.0275
   32MOL    O1417436   1.586   3.136   7.352 -0.0466  0.3611 -0.2699
   32MOL    C1517437   1.868   3.139   7.359 -0.2113  0.5849  1.2667
   32MOL    C1617438   2.007   3.138   7.372  0.1331  0.5356  0.2852
   32MOL    H1717439   2.584   2.506   7.275 -1.3161  0.8147 -0.3807
   32MOL    H1817440   2.746   2.549   7.253 -0.6783  1.3747  0.9166
   32MOL    H1917441   2.673   2.791   7.234 -2.2680  0.5681 -0.7492
   32MOL    H2017442   2.630   2.715   7.385  3.0979  2.2887  0.4129
   32MOL    H2117443   2.446   2.760   7.142  1.2185  1.7665  0.1594
   32MOL    H2217444   2.393   2.679   7.281  1.7613 -3.9564 -3.6442
   32MOL    H2317445   2.466   2.891   7.417 -0.9249 -0.6151  1.1477
   32MOL    H2417446   2.473   2.982   7.276  0.4696  0.0507 -0.0923
   32MOL    H2517447   2.063   2.800   7.360  0.4546 -0.5031 -2.1332
   32MOL    H2617448   1.817   2.799   7.332 -0.7649  0.5895  0.8340
   32MOL    H2717449   1.811   3.231   7.364 -1.2086 -0.0482  1.8099
   32MOL    H2817450   2.060   3.231   7.381  0.9854  0.1848 -0.9618
   32MOL    H2917451   2.550   2.532   7.062  0.3057 -1.9915 -0.8510
   32MOL    O3017452   1.585   2.905   7.314 -0.0948 -0.0703  0.4727
   32MOL    C3117453   1.447   2.893   7.303 -0.2407 -0.3302  0.2185
   32MOL    C3217454   1.398   2.940   7.165 -0.4538  0.3261  0.0486
   32MOL    C3317455   1.243   2.928   7.150 -0.6398  0.5559 -0.7783
   32MOL    C3417456   1.160   3.046   7.192 -0.1156 -0.3893  0.4757
   32MOL    O3517457   1.220   3.162   7.131  0.2326  0.2930  0.4255
   32MOL    C3617458   1.163   3.282   7.130  0.3559  0.0938  0.1143
   32MOL    O3717459   1.043   3.295   7.146  0.9887 -0.0054  0.5803
   32MOL    C3817460   1.258   3.388   7.093  0.3987 -0.2466  0.1254
   32MOL    C3917461   1.398   3.359   7.093  0.1510 -0.1173  0.7458
   32MOL    C4017462   1.491   3.457   7.056 -0.3486 -0.3202 -0.4990
   32MOL    C4117463   1.443   3.586   7.004 -0.4621  0.2147  0.7696
   32MOL    C4217464   1.530   3.685   6.943  0.3722  0.0799 -0.4530
   32MOL    O4317465   1.490   3.795   6.911  0.5425  0.0755  0.3629
   32MOL    C4417466   1.305   3.609   6.999  0.6605  0.6531  0.4806
   32MOL    C4517467   1.209   3.517   7.057  0.0650 -0.1958  0.3262
   32MOL    H4617468   1.421   2.789   7.321  1.7209 -0.3491  3.4535
   32MOL    H4717469   1.403   2.945   7.389  0.6508  0.6527  0.0919
   32MOL    H4817470   1.447   2.878   7.089  1.2969  1.5992  0.1085
   32MOL    H4917471   1.429   3.034   7.119  3.9733 -1.4040 -0.7386
   32MOL    H5017472   1.220   2.924   7.044 -1.1093  0.2140 -0.6663
   32MOL    H5117473   1.205   2.830   7.179  0.9862  0.0471 -0.2610
   32MOL    H5217474   1.056   3.032   7.163  0.4323 -3.1924 -0.2377
   32MOL    H5317475   1.170   3.059   7.300  1.2103 -0.6322  0.3857
   32MOL    H5417476   1.438   3.266   7.130  1.3968 -0.3429 -1.0868
   32MOL    H5517477   1.597   3.441   7.062 -0.3072 -0.6519 -1.8330
   32MOL    H5617478   1.264   3.702   6.962  2.1737  0.8092 -0.8799
   32MOL    H5717479   1.104   3.544   7.059  0.3934  1.5927 -2.3340
   32MOL    O5817480   1.659   3.641   6.930 -0.2767  0.0974  0.2894
   32MOL    C5917481   1.755   3.724   6.866 -0.5559 -0.0159 -0.5601
   32MOL    C6017482   1.902   3.705   6.922  0.4245  0.0898 -0.2432
   32MOL    C6117483   1.980   3.579   6.865  0.0967 -0.0429 -0.7458
   32MOL    C6217484   1.954   3.450   6.944 -0.5360  0.1240 -0.2869
   32MOL    O6317485   1.838   3.379   6.908  0.3577  0.1465 -0.1911
   32MOL    C6417486   1.805   3.271   6.979 -0.2122  0.1633 -0.1374
   32MOL    O6517487   1.861   3.233   7.081  0.5469 -0.0943  0.7984
   32MOL    C6617488   1.687   3.205   6.918 -0.7590 -0.3849 -0.4695
   32MOL    C6717489   1.648   3.077   6.952 -0.0814 -0.5281  0.7051
   32MOL    C6817490   1.549   3.000   6.881  0.0840 -0.8943  0.7244
   32MOL    C6917491   1.468   3.066   6.786  0.0690  0.1511 -0.4604
   32MOL    C7017492   1.351   2.989   6.732  0.9508  0.2497 -0.0466
   32MOL    O7117493   1.312   2.874   6.763 -0.2756 -0.1785  0.1685
   32MOL    C7217494   1.492   3.198   6.752 -0.5128 -1.3009  0.4447
   32MOL    C7317495   1.610   3.264   6.809  0.3098  0.3714 -0.9281
   32MOL    H7417496   1.741   3.703   6.760  3.1978  0.2916 -1.2120
   32MOL    H7517497   1.722   3.827   6.878  2.2094  0.8317  0.1763
   32MOL    H7617498   1.906   3.709   7.031 -1.6407  2.1011 -0.2155
   32MOL    H7717499   1.955   3.797   6.899  1.4054 -0.9593 -2.3194
   32MOL    H7817500   1.942   3.560   6.765  1.1480 -2.6737 -0.6997
   32MOL    H7917501   2.087   3.595   6.877 -0.2305  0.9858  0.9760
   32MOL    H8017502   2.043   3.389   6.925  2.1030  3.0017  2.1523
   32MOL    H8117503   1.954   3.458   7.053  0.1057  0.0038 -0.2731
   32MOL    H8217504   1.700   3.022   7.029  0.5786 -1.1071 -0.1426
   32MOL    H8317505   1.527   2.898   6.908 -1.5813 -1.0386 -1.0760
   32MOL    H8417506   1.438   3.253   6.677  2.1564 -1.7594 -1.9065
   32MOL    H8517507   1.628   3.368   6.784 -0.6341  0.8092  0.1265
   32MOL    O8617508   1.292   3.065   6.633  0.7073 -0.1144  0.2249
   32MOL    C8717509   1.174   3.016   6.578 -0.2938  0.0629  0.3436
   32MOL    C8817510   1.066   3.114   6.531 -0.2499 -0.5601  0.2229
   32MOL    C8917511   1.095   3.166   6.393 -0.1054  0.5518  0.7663
   32MOL    C9017512   0.978   3.237   6.327 -0.2354 -0.0784  0.6306
   32MOL    O9117513   0.985   3.370   6.362 -0.1627  0.5852 -0.3070
   32MOL    C9217514   0.875   3.450   6.343 -0.0915 -0.2781  0.6412
   32MOL    O9317515   0.764   3.404   6.306 -0.1577 -0.0194  0.9312
   32MOL    C9417516   0.899   3.597   6.376  0.5023  0.5149  0.5508
   32MOL    C9517517   0.791   3.680   6.399  0.1739 -0.2239 -0.3212
   32MOL    C9617518   0.804   3.818   6.426  0.2950 -1.0991 -0.3090
   32MOL    C9717519   0.935   3.877   6.426  0.0095  0.5180  0.2839
   32MOL    C9817520   0.949   4.025   6.442 -0.2579 -0.1736 -0.5007
   32MOL    O9917521   0.847   4.103   6.448 -0.2646  0.6241 -0.2333
   32MOL   C10017522   1.045   3.794   6.387 -0.3713 -0.1975  0.2181
   32MOL   C10117523   1.021   3.656   6.366  0.3924  0.4581 -0.0664
   32MOL   H10217524   1.209   2.945   6.503  2.1822  2.4329 -0.8399
   32MOL   H10317525   1.129   2.967   6.665  1.0707 -1.5608  0.1752
   32MOL   H10417526   1.048   3.189   6.608 -3.4407  0.0702 -1.0553
   32MOL   H10517527   0.970   3.063   6.529 -0.2881 -0.4575 -0.7945
   32MOL   H10617528   1.179   3.236   6.395  0.4552  0.0713 -2.8536
   32MOL   H10717529   1.137   3.091   6.326 -1.1060 -0.3359  1.1259
   32MOL   H10817530   0.994   3.235   6.219  0.1524  0.6292  0.6715
   32MOL   H10917531   0.883   3.189   6.347 -0.3942  0.5714  1.5094
   32MOL   H11017532   0.689   3.644   6.395 -0.4583  1.6373 -1.4289
   32MOL   H11117533   0.710   3.869   6.442  2.0743  2.5400 -1.0277
   32MOL   H11217534   1.143   3.838   6.384 -0.4105 -0.1250  0.0238
   32MOL   H11317535   1.099   3.590   6.333 -0.5583 -0.4519 -0.5192
   32MOL   O11417536   1.072   4.058   6.459 -0.1191  0.1423  0.3862
   32MOL   C11517537   1.110   4.190   6.432 -0.6039 -0.2990 -0.9782
   32MOL   C11617538   1.253   4.224   6.473 -0.5060 -0.4093 -0.3316
   32MOL   C11717539   1.269   4.373   6.514 -0.4276 -0.3693  0.0968
   32MOL   C11817540   1.417   4.400   6.554  0.1505  1.0126  0.3712
   32MOL   O11917541   1.450   4.319   6.669  0.0611  0.3710  0.0116
   32MOL   C12017542   1.581   4.310   6.708  0.0134  0.0120  0.1078
   32MOL   O12117543   1.672   4.379   6.661 -0.3076 -0.0369 -0.1715
   32MOL   C12217544   1.610   4.218   6.824  0.3339  0.0029  0.0289
   32MOL   C12317545   1.743   4.173   6.852 -0.5259 -0.4321  0.3721
   32MOL   C12417546   1.767   4.084   6.961  0.2610  0.0985  0.2744
   32MOL   C12517547   1.657   4.037   7.039  0.2289  0.2108  0.2044
   32MOL   C12617548   1.690   3.941   7.145  0.5055  0.2430  0.1491
   32MOL   O12717549   1.800   3.892   7.156 -1.1727 -0.0157  0.1469
   32MOL   C12817550   1.526   4.092   7.026  0.1949 -0.7463 -0.6063
   32MOL   C12917551   1.504   4.184   6.916 -0.6815 -0.7254  0.9902
   32MOL   H13017552   1.096   4.204   6.324 -0.1186 -1.8923 -1.2547
   32MOL   H13117553   1.040   4.260   6.478  1.8133  1.0791  0.7270
   32MOL   H13217554   1.329   4.196   6.400 -0.7258 -0.3504 -0.5827
   32MOL   H13317555   1.266   4.167   6.565 -1.7938  0.2832  0.3038
   32MOL   H13417556   1.234   4.445   6.440 -2.6873 -2.8908 -1.4021
   32MOL   H13517557   1.202   4.386   6.599 -1.2338  1.6079 -0.8170
   32MOL   H13617558   1.492   4.380   6.478 -1.1204 -3.3588  0.0814
   32MOL   H13717559   1.431   4.503   6.587  0.8703  0.9075  0.3919
   32MOL   H13817560   1.827   4.213   6.797  0.4605 -1.6245  0.9772
   32MOL   H13917561   1.864   4.049   6.991 -1.1921 -2.8178  1.7764
   32MOL   H14017562   1.436   4.054   7.071  0.6093 -0.5294  0.4263
   32MOL   H14117563   1.411   4.233   6.891  0.6392  0.9290 -0.7625
   32MOL   O14217564   1.588   3.915   7.227 -0.7122 -0.3279  0.2269
   32MOL   C14317565   1.624   3.848   7.345  0.1542  0.1821 -0.9343
   32MOL   C14417566   1.580   3.699   7.326  0.2540 -0.1845 -1.3382
   32MOL   C14517567   1.645   3.602   7.427 -1.0077 -0.6380  0.5485
   32MOL   C14617568   1.629   3.457   7.407 -0.1746 -0.0791  0.2404
   32MOL   O14717569   1.495   3.427   7.451  0.9358  0.1357 -0.1420
   32MOL   C14817570   1.474   3.355   7.560  0.1450 -0.5359  0.1641
   32MOL   O14917571   1.557   3.316   7.639 -0.4204 -0.0043  0.4441
   32MOL   C15017572   1.332   3.336   7.579 -0.1475 -0.3843 -0.0300
   32MOL   C15117573   1.246   3.341   7.466  0.1178  0.1770  0.2482
   32MOL   C15217574   1.106   3.334   7.492 -0.4485  0.7055  0.1446
   32MOL   C15317575   1.060   3.316   7.625  0.8956  0.6446 -0.2784
   32MOL   C15417576   0.911   3.295   7.642  0.3928  0.6110 -0.3040
   32MOL   O15517577   0.831   3.340   7.561 -0.2861  0.3848  0.1604
   32MOL   C15617578   1.142   3.317   7.739  0.0763 -0.3566  0.5058
   32MOL   C15717579   1.281   3.327   7.713 -0.4526  0.4543  0.1736
   32MOL   H15817580   1.726   3.869   7.375 -0.4036  1.2705  0.2579
   32MOL   H15917581   1.549   3.889   7.413 -0.6500 -0.6668 -1.3057
   32MOL   H16017582   1.611   3.671   7.226  2.0658 -0.9488 -0.5724
   32MOL   H16117583   1.471   3.695   7.316 -0.3016  0.8256  3.0438
   32MOL   H16217584   1.750   3.628   7.440 -1.3222 -0.4229  2.8334
   32MOL   H16317585   1.598   3.629   7.522  0.2768  2.4103  0.3708
   32MOL   H16417586   1.652   3.433   7.303  0.7972 -0.9149  0.6366
   32MOL   H16517587   1.695   3.397   7.469 -2.4265 -1.4875  1.3343
   32MOL   H16617588   1.276   3.343   7.362  0.6007 -0.2367  0.3763
   32MOL   H16717589   1.032   3.331   7.413 -2.0753 -2.1425  1.6992
   32MOL   H16817590   1.096   3.297   7.835 -2.7406  0.2012 -0.6926
   32MOL   H16917591   1.350   3.310   7.794 -2.2012 -2.6756  1.1149
   32MOL   O17017592   0.869   3.237   7.760 -0.8788 -0.1002  0.5998
   32MOL   C17117593   0.735   3.214   7.791  0.3442 -1.0424  0.1128
   32MOL   C17217594   0.735   3.192   7.946 -0.7238 -0.6109  0.6417
   32MOL   C17317595   0.595   3.193   8.005 -0.4654 -0.0528  0.2097
   32MOL   C17417596   0.512   3.060   7.982 -0.3692 -0.5228 -1.1524
   32MOL   O17517597   0.391   3.084   8.041 -0.2693 -0.2753 -0.2067
   32MOL   C17617598   0.278   3.009   8.027  0.5711 -0.5545 -0.3467
   32MOL   O17717599   0.265   2.907   7.952  0.4121 -0.4777  0.2595
   32MOL   C17817600   0.176   3.076   0.016 -0.5977  0.2260  0.1383
   32MOL   C17917601   0.208   3.178   0.109 -0.0720  0.0403 -0.2686
   32MOL   C18017602   0.109   3.229   0.196  0.3557 -0.0424  0.4307
   32MOL   C18117603   8.077   3.171   0.197 -0.1441 -0.3156 -0.5373
   32MOL   C18217604   7.967   3.222   0.277  0.5452  1.2736  0.4719
   32MOL   O18317605   7.854   3.177   0.268  0.0569  0.2701 -0.2175
   32MOL   C18417606   8.041   3.079   0.098 -0.4082 -0.3721  0.1768
   32MOL   C18517607   0.046   3.025   0.016 -0.3792 -0.4742 -0.3302
   32MOL   H18617608   0.667   3.296   7.769 -1.6516 -2.9862 -1.1813
   32MOL   H18717609   0.689   3.130   7.739  2.0562 -1.4320 -0.8314
   32MOL   H18817610   0.797   3.264   7.999 -0.3781 -0.6773  0.3319
   32MOL   H18917611   0.783   3.097   7.967  0.2342  0.3352  2.8444
   32MOL   H19017612   0.597   3.209   0.015 -2.5289 -0.2783  0.3034
   32MOL   H19117613   0.536   3.272   7.959  1.4941  1.5843  0.3842
   32MOL   H19217614   0.501   3.035   7.876 -1.2384  0.7894 -1.3908
   32MOL   H19317615   0.546   2.971   8.035 -1.2620 -0.3694 -0.2974
   32MOL   H19417616   0.310   3.211   0.116 -0.2560  0.2579  1.5234
   32MOL   H19517617   0.131   3.313   0.260 -0.0753  0.3496  0.0605
   32MOL   H19617618   7.944   3.030   0.098  0.0502 -1.3115  1.9507
   32MOL   H19717619   0.013   2.944   8.051 -0.4900  0.3276 -1.3014
   32MOL   O19817620   7.994   3.321   0.359  0.4356  0.0827 -0.9323
   32MOL   C19917621   7.892   3.379   0.441 -0.6982 -0.3704 -0.1311
   32MOL   C20017622   7.869   3.524   0.397 -0.1993 -0.8046  0.3801
   32MOL   C20117623   7.780   3.538   0.272 -0.1507  0.2332 -0.1319
   32MOL   C20217624   7.722   3.676   0.241  0.0219 -0.2938 -0.1834
   32MOL   O20317625   7.821   3.773   0.227  0.0818  0.4567 -0.0090
   32MOL   C20417626   7.794   3.897   0.286 -0.2478  0.1659  1.2040
   32MOL   O20517627   7.690   3.933   0.345  0.1845 -0.5263 -0.3065
   32MOL   C20617628   7.906   3.989   0.275 -0.7706 -0.2145  0.0533
   32MOL   C20717629   8.035   3.943   0.239  0.4962 -0.7192 -0.0688
   32MOL   C20817630   0.041   4.036   0.233  0.4170  0.1569  0.6396
   32MOL   C20917631   0.024   4.171   0.265 -0.5109  0.4336  0.6028
   32MOL   C21017632   0.135   4.266   0.240  0.0267 -0.0784  0.1692
   32MOL   O21117633   0.245   4.244   0.184  0.2116 -0.3032  0.2929
   32MOL   C21217634   7.999   4.216   0.306  0.5089 -1.3229  0.2785
   32MOL   C21317635   7.888   4.127   0.315 -0.6291 -0.7981  0.2811
   32MOL   H21417636   7.799   3.325   0.455 -0.0257 -1.4807  0.0991
   32MOL   H21517637   7.933   3.383   0.542 -0.9911 -0.3547 -0.0129
   32MOL   H21617638   7.956   3.584   0.371 -0.8725 -0.2284 -0.5592
   32MOL   H21717639   7.829   3.576   0.484 -1.9713 -0.7978 -0.4199
   32MOL   H21817640   7.843   3.507   0.189  1.2585 -0.2556  1.0867
   32MOL   H21917641   7.695   3.471   0.288  0.2856 -0.4222 -0.5473
   32MOL   H22017642   7.690   3.670   0.137  1.4972  1.5659 -0.7757
   32MOL   H22117643   7.636   3.713   0.297 -0.1962 -1.0356 -0.0327
   32MOL   H22217644   8.050   3.840   0.212 -0.6028 -0.9093  0.0474
   32MOL   H22317645   0.130   4.006   0.180 -1.2151 -2.5316 -0.7050
   32MOL   H22417646   7.993   4.320   0.333 -0.4041 -0.9090 -1.4466
   32MOL   H22517647   7.796   4.169   0.353 -0.5311 -1.5291  1.3441
   32MOL   O22617648   0.116   4.387   0.304 -0.1532  0.6071 -0.2403
   32MOL   C22717649   0.212   4.500   0.292  0.2578  0.0483  0.0938
   32MOL   C22817650   0.158   4.592   0.180  0.3466 -0.0393 -0.0640
   32MOL   C22917651   0.219   4.733   0.180  0.2691 -0.6698  0.3388
   32MOL   C23017652   0.365   4.739   0.118  1.4073 -0.2221  0.0075
   32MOL   O23117653   0.463   4.688   0.208  0.0138 -0.5090  0.8188
   32MOL   C23217654   0.588   4.729   0.178  0.1258 -0.1618 -0.1757
   32MOL   O23317655   0.609   4.813   0.089 -0.2429 -0.2485 -0.5536
   32MOL   C23417656   0.685   4.667   0.271  0.0978 -0.2344 -0.3599
   32MOL   C23517657   0.646   4.569   0.365  0.1786 -0.2110 -0.5314
   32MOL   C23617658   0.742   4.505   0.447 -0.0866  0.1953 -0.0030
   32MOL   C23717659   0.876   4.548   0.445 -0.4922  0.5131  0.8060
   32MOL   C23817660   0.974   4.472   0.527 -0.4095  0.2459 -0.2285
   32MOL   O23917661   0.939   4.370   0.590  0.4460 -0.1671 -0.1578
   32MOL   C24017662   0.916   4.647   0.350  0.0653 -0.0783 -0.4098
   32MOL   C24117663   0.825   4.694   0.258  0.8021 -0.1538 -1.1164
   32MOL   H24217664   0.225   4.560   0.382 -1.6172 -0.1915  0.5467
   32MOL   H24317665   0.312   4.461   0.278 -0.1088 -0.3385 -1.5766
   32MOL   H24417666   0.051   4.600   0.198  0.2015  0.1886 -1.0337
   32MOL   H24517667   0.177   4.544   0.084  0.8078 -2.5248  1.2030
   32MOL   H24617668   0.162   4.793   0.109  0.2655  0.5171  1.3290
   32MOL   H24717669   0.211   4.779   0.278 -1.4352  0.4232 -0.2951
   32MOL   H24817670   0.356   4.683   0.025  0.8712  1.4575 -0.9670
   32MOL   H24917671   0.383   4.843   0.093 -2.0391 -0.3037 -3.3694
   32MOL   H25017672   0.545   4.531   0.370 -0.0177  0.1472 -1.5956
   32MOL   H25117673   0.703   4.434   0.519  0.2845 -2.5479 -2.4159
   32MOL   H25217674   1.016   4.687   0.347 -0.2448  0.7157 -0.2663
   32MOL   H25317675   0.855   4.767   0.185  0.8053 -0.3635 -1.3260
   32MOL   O25417676   1.087   4.530   0.541  0.0432  0.0940  0.0354
   32MOL   C25517677   1.181   4.480   0.640  0.2034  0.5799 -0.1369
   32MOL   C25617678   1.302   4.574   0.637 -0.2738  0.0749  0.3886
   32MOL   C25717679   1.403   4.539   0.749  1.0605 -0.0287 -1.2363
   32MOL   C25817680   1.513   4.648   0.772  0.2443  0.4816  0.0745
   32MOL   O25917681   1.601   4.634   0.663  0.3334  0.3048  0.1944
   32MOL   C26017682   1.711   4.710   0.652  0.1205  0.5628 -0.1678
   32MOL   O26117683   1.752   4.793   0.734 -0.5296 -0.2862 -0.3264
   32MOL   C26217684   1.798   4.665   0.529 -0.0882 -0.2881 -0.9217
   32MOL   C26317685   1.942   4.673   0.539 -0.2356  0.1465 -0.3268
   32MOL   C26417686   2.022   4.633   0.430  0.0598  0.8810 -0.1616
   32MOL   C26517687   1.965   4.570   0.314 -0.3149  0.4571 -0.1008
   32MOL   C26617688   2.048   4.510   0.210 -0.5159 -0.2235 -0.4856
   32MOL   O26717689   2.009   4.435   0.120 -0.2848 -0.0354  0.1983
   32MOL   C26817690   1.825   4.545   0.318  0.2684 -0.3844  0.6253
   32MOL   C26917691   1.742   4.602   0.418 -0.0105  0.9540  0.5869
   32MOL   H27017692   1.132   4.480   0.737  0.1758  1.3538 -0.1463
   32MOL   H27117693   1.219   4.381   0.616 -0.2049  0.2589  0.5299
   32MOL   H27217694   1.271   4.677   0.653  0.1562 -0.1794  3.1857
   32MOL   H27317695   1.348   4.563   0.539 -0.3077  0.1439  0.3653
   32MOL   H27417696   1.342   4.543   0.839  1.9985  0.4753 -0.6182
   32MOL   H27517697   1.448   4.440   0.736 -0.7812 -1.4643  2.4932
   32MOL   H27617698   1.470   4.748   0.774 -2.0461 -0.4867  0.0797
   32MOL   H27717699   1.566   4.631   0.865  0.2714  1.2239  0.2035
   32MOL   H27817700   1.993   4.709   0.627  0.0055  0.2591 -0.5119
   32MOL   H27917701   2.127   4.655   0.440 -0.2617  2.4183  0.0539
   32MOL   H28017702   1.784   4.494   0.232  1.3880  0.7048 -0.5732
   32MOL   H28117703   1.635   4.589   0.410  0.0914 -0.3173  1.0426
   32MOL   O28217704   2.171   4.544   0.229 -0.5237 -0.2112  0.8588
   32MOL   C28317705   2.279   4.476   0.154 -0.1716  0.4028 -0.2981
   32MOL   C28417706   2.408   4.543   0.198 -1.1008  0.3866 -0.5503
   32MOL   C28517707   2.436   4.572   0.348  0.4701 -0.0413  0.1442
   32MOL   C28617708   2.554   4.673   0.359 -0.1842 -0.3543  0.4905
   32MOL   O28717709   2.525   4.801   0.301 -0.1047  0.1063 -0.2127
   32MOL   C28817710   2.473   4.892   0.386 -0.5077  0.4324  0.3179
   32MOL   O28917711   2.468   4.875   0.511  0.5345  0.0697  0.1942
   32MOL   C29017712   2.418   5.018   0.327 -0.2756 -0.1875  0.0488
   32MOL   C29117713   2.448   5.040   0.191 -0.8505 -0.2365  0.2270
   32MOL   C29217714   2.371   5.141   0.125 -0.6058  0.1836 -0.2584
   32MOL   C29317715   2.288   5.227   0.200 -0.1690 -0.2983  0.9741
   32MOL   C29417716   2.212   5.336   0.135 -0.2535 -0.4127  0.6188
   32MOL   O29517717   2.232   5.370   0.018  0.3830 -0.1500  0.1487
   32MOL   C29617718   2.271   5.212   0.342 -0.6643  0.2487 -0.6527
   32MOL   C29717719   2.339   5.105   0.406  0.2904 -0.0287 -0.3557
   32MOL   H29817720   2.284   4.376   0.198 -0.1659  0.6734  0.3141
   32MOL   H29917721   2.284   4.474   0.045  0.8107  1.2778 -0.2760
   32MOL   H30017722   2.436   4.637   0.150  3.4225 -0.6836 -0.2261
   32MOL   H30117723   2.491   4.483   0.161 -1.3839 -0.3552  0.0082
   32MOL   H30217724   2.350   4.626   0.389  1.0142 -0.1616  1.4915
   32MOL   H30317725   2.455   4.477   0.398  0.3322 -1.1859 -1.9471
   32MOL   H30417726   2.590   4.672   0.462  0.5654  0.9155  0.2450
   32MOL   H30517727   2.638   4.632   0.303 -1.3098 -1.2402 -0.5638
   32MOL   H30617728   2.513   4.979   0.130  0.0447  1.3620 -0.4415
   32MOL   H30717729   2.374   5.146   0.018 -0.3214  0.8560 -0.2235
   32MOL   H30817730   2.216   5.282   0.402  0.6905  0.9954 -0.2543
   32MOL   H30917731   2.326   5.090   0.513  0.2635 -0.6745 -0.4460
   32MOL   O31017732   2.135   5.407   0.217 -0.4507 -0.8036 -0.0448
   32MOL   C31117733   2.075   5.528   0.166 -0.1158  0.1534  0.3982
   32MOL   C31217734   2.007   5.628   0.260  0.0033  0.1737  0.0175
   32MOL   C31317735   1.970   5.768   0.191  0.1392  0.7254  0.2149
   32MOL   C31417736   1.923   5.882   0.280 -0.1029  0.5194  0.0562
   32MOL   O31517737   1.795   5.853   0.328 -0.3352 -0.1476 -0.0630
   32MOL   C31617738   1.780   5.807   0.459 -0.0055 -0.0316 -0.4428
   32MOL   O31717739   1.863   5.821   0.547  0.1631  1.0514 -0.1671
   32MOL   C31817740   1.646   5.739   0.476 -0.0945  0.1947  0.4788
   32MOL   C31917741   1.625   5.682   0.600  0.1335 -0.2614 -0.1882
   32MOL   C32017742   1.519   5.591   0.617  0.0297 -0.2463  1.3058
   32MOL   C32117743   1.422   5.570   0.519  0.1390 -0.1527  0.1600
   32MOL   C32217744   1.302   5.482   0.537 -0.5054 -0.4872  0.3696
   32MOL   O32317745   1.284   5.405   0.633 -0.7947 -0.3240 -0.1479
   32MOL   C32417746   1.441   5.647   0.395 -0.3051 -0.1375  0.2441
   32MOL   C32517747   1.554   5.721   0.372  0.0458 -0.1437  0.1657
   32MOL   H32617748   2.146   5.582   0.104  0.6751 -1.3615 -0.0139
   32MOL   H32717749   2.001   5.508   0.089  2.3842 -2.4392 -1.4079
   32MOL   H32817750   2.087   5.652   0.330 -0.7330  2.6516  0.0708
   32MOL   H32917751   1.921   5.589   0.315  0.2619 -0.8508 -0.2848
   32MOL   H33017752   2.059   5.806   0.140  0.3736  2.6027  1.9262
   32MOL   H33117753   1.893   5.745   0.117 -1.0174 -1.0079  1.9059
   32MOL   H33217754   1.992   5.911   0.360  0.4340 -0.7696  0.0664
   32MOL   H33317755   1.901   5.977   0.231 -0.9223  1.2919  1.8608
   32MOL   H33417756   1.700   5.692   0.678  0.8620 -0.2426 -0.8826
   32MOL   H33517757   1.501   5.550   0.715 -0.8378 -3.6643 -0.2209
   32MOL   H33617758   1.366   5.633   0.319 -1.4245 -1.5191  1.5799
   32MOL   H33717759   1.565   5.762   0.272  0.4825 -2.1839 -0.6703
   32MOL   O33817760   1.225   5.476   0.424 -0.1609 -0.0908  0.5637
   32MOL   C33917761   1.105   5.406   0.418  0.1002  0.7832  1.0660
   32MOL   C34017762   1.066   5.346   0.285  0.2920  0.5196  0.4200
   32MOL   C34117763   1.169   5.239   0.233 -0.2087  0.0830  0.1364
   32MOL   C34217764   1.199   5.124   0.330  0.5667 -0.2333  0.3994
   32MOL   O34317765   1.274   5.029   0.268  0.1075 -0.5852  0.0342
   32MOL   C34417766   1.272   4.900   0.313 -0.1633 -0.2225  0.3250
   32MOL   O34517767   1.207   4.862   0.414 -0.5018  0.4829 -0.0662
   32MOL   C34617768   1.354   4.804   0.230  0.7861 -0.3303  0.3039
   32MOL   C34717769   1.461   4.845   0.144  0.0860 -0.1150  0.2092
   32MOL   C34817770   1.534   4.755   0.065 -0.2948 -0.2318  0.3679
   32MOL   C34917771   1.497   4.618   0.066 -0.5141 -0.1656 -0.2452
   32MOL   C35017772   1.578   4.516   0.006 -0.1019 -0.5497 -0.1538
   32MOL   O35117773   1.555   4.400   0.027 -0.0855 -0.5097 -0.0382
   32MOL   C35217774   1.401   4.576   0.163  0.2445  0.0239  0.4470
   32MOL   C35317775   1.329   4.665   0.239  0.4018 -0.5695  0.7530
   32MOL   H35417776   1.106   5.328   0.494 -1.7597 -1.0921 -0.7974
   32MOL   H35517777   1.025   5.468   0.459 -2.9813 -1.3871 -1.4596
   32MOL   H35617778   1.053   5.428   0.214  1.4280  1.1690  0.9488
   32MOL   H35717779   0.970   5.295   0.299 -0.2742  1.7477  1.1269
   32MOL   H35817780   1.139   5.187   0.142 -0.1674 -0.5468  0.4807
   32MOL   H35917781   1.261   5.293   0.213 -0.4240  0.5500  0.3858
   32MOL   H36017782   1.248   5.168   0.417 -0.9923 -1.2152  1.8155
   32MOL   H36117783   1.108   5.079   0.369  0.7897 -1.5979 -0.6141
   32MOL   H36217784   1.483   4.951   0.144 -1.5757  0.2356  0.3059
   32MOL   H36317785   1.611   4.781   8.092  0.0434 -2.6649 -0.1957
   32MOL   H36417786   1.386   4.469   0.168  0.1159  0.1088  2.1549
   32MOL   H36517787   1.248   4.640   0.306  1.3118 -3.4436  0.8460
   32MOL   O36617788   1.663   4.564   8.012 -0.0539  0.4353 -0.1529
   32MOL   C36717789   1.741   4.476   7.938 -0.1234 -0.1874 -0.7082
   32MOL   C36817790   1.679   4.431   7.803  0.9017 -0.4194 -0.0909
   32MOL   C36917791   1.684   4.544   7.695 -0.1094  0.2360  0.0595
   32MOL   C37017792   1.578   4.558   7.596  1.0493  0.2367  0.0902
   32MOL   O37117793   1.461   4.569   7.667  0.4558  0.1589 -0.1323
   32MOL   C37217794   1.339   4.555   7.600 -0.2910  0.1724 -0.3471
   32MOL   O37317795   1.328   4.529   7.476 -0.2364  0.2888  0.1674
   32MOL   C37417796   1.216   4.559   7.687 -0.2185 -0.7204 -0.5511
   32MOL   C37517797   1.086   4.550   7.633  0.2024 -0.3256  0.4633
   32MOL   C37617798   0.968   4.541   7.711  0.3744 -0.3971 -0.4906
   32MOL   C37717799   0.987   4.542   7.850  0.0609 -0.0304 -0.0052
   32MOL   C37817800   0.871   4.538   7.946 -0.4339 -0.0001  0.5743
   32MOL   O37917801   0.878   4.555   8.068 -0.0583  0.0033  0.1131
   32MOL   C38017802   1.116   4.539   7.905 -0.4155  0.6631  0.2622
   32MOL   C38117803   1.232   4.542   7.828  0.1986  0.7040 -0.7075
   32MOL   H38217804   1.840   4.518   7.921 -0.7898  2.0026  0.7193
   32MOL   H38317805   1.768   4.390   8.000 -2.1401 -0.5870 -0.3721
   32MOL   H38417806   1.579   4.399   7.834  1.5581 -2.5957 -0.1761
   32MOL   H38517807   1.746   4.351   7.772  0.1718 -0.7403 -0.8772
   32MOL   H38617808   1.669   4.639   7.747  0.0284  0.1798  0.2018
   32MOL   H38717809   1.781   4.538   7.646  0.9641  0.2924  2.1072
   32MOL   H38817810   1.587   4.646   7.532  3.4334 -0.7785 -1.0331
   32MOL   H38917811   1.579   4.468   7.535 -0.2850 -0.7875  1.5297
   32MOL   H39017812   1.074   4.551   7.525  1.9987  0.5969  0.2667
   32MOL   H39117813   0.871   4.551   7.665  0.5049 -0.8117 -0.8618
   32MOL   H39217814   1.122   4.530   8.012 -0.0089 -3.2488 -0.0313
   32MOL   H39317815   1.333   4.529   7.864  0.2738  2.8801 -0.0785
   32MOL   O39417816   0.763   4.490   7.888 -0.0015  0.1940 -0.1999
   32MOL   C39517817   0.629   4.485   7.957 -0.3293  0.1614  0.3360
   32MOL   C39617818   0.554   4.357   7.919  0.6992  1.0021  0.7306
   32MOL   C39717819   0.405   4.358   7.973 -0.3467 -0.2874 -0.6002
   32MOL   C39817820   0.332   4.232   7.930  0.0642 -0.3181 -0.3669
   32MOL   O39917821   0.204   4.232   7.995  0.2901  0.0574 -0.2366
   32MOL   C40017822   0.125   4.125   7.967 -0.4399 -0.0526  1.3267
   32MOL   O40117823   0.169   4.023   7.914  0.2944  0.7231  0.5126
   32MOL   C40217824   8.079   4.136   8.000 -0.1959 -0.2500  0.2508
   32MOL   C40317825   8.030   4.256   8.061  0.2908  0.0026 -0.6681
   32MOL   C40417826   7.891   4.263   8.076 -0.1624 -0.2308  0.2342
   32MOL   C40517827   7.802   4.165   8.033 -0.6993  0.1219  0.1125
   32MOL   C40617828   7.657   4.188   8.040  0.6307 -0.5932 -0.1393
   32MOL   O40717829   7.603   4.292   8.073 -0.1306 -0.0346 -0.0247
   32MOL   C40817830   7.853   4.044   7.985  0.2708 -0.7376 -0.3170
   32MOL   C40917831   7.993   4.029   7.978 -0.3801 -0.2328 -0.8269
   32MOL   H41017832   0.636   4.492   8.065  0.2275 -1.2380  0.4040
   32MOL   H41117833   0.573   4.573   7.925 -0.1288  0.2878  0.3331
   32MOL   H41217834   0.601   4.264   7.950 -2.4877 -1.0990 -0.4618
   32MOL   H41317835   0.554   4.337   7.812  0.0495 -1.3411  1.1318
   32MOL   H41417836   0.415   4.362   8.082  0.5231  1.6899 -0.7366
   32MOL   H41517837   0.355   4.447   7.936  0.9525  0.9602  0.5856
   32MOL   H41617838   0.305   4.251   7.826 -3.0142  0.0298  0.4430
   32MOL   H41717839   0.382   4.137   7.948  0.9101 -0.1096 -1.5702
   32MOL   H41817840   0.000   4.334   8.090 -0.3943 -0.1077  1.3259
   32MOL   H41917841   7.859   4.351   0.031  1.9152  1.2543 -0.9364
   32MOL   H42017842   7.780   3.965   7.970 -0.3935 -0.1316 -0.3124
   32MOL   H42117843   8.041   3.942   7.936  1.5746  0.3831  0.0577
   32MOL   O42217844   7.583   4.079   8.023  0.2349 -0.0280  0.1030
   32MOL   C42317845   7.442   4.082   8.015  0.0364  0.3491 -0.2855
   32MOL   C42417846   7.390   3.948   8.059 -0.1910 -1.0009  0.1701
   32MOL   C42517847   7.397   3.920   0.110 -0.2201  0.7656  0.2920
   32MOL   C42617848   7.304   4.018   0.184  0.5265  0.5869 -0.3546
   32MOL   O42717849   7.274   3.984   0.317 -0.1358 -0.4259 -0.4109
   32MOL   C42817850   7.167   3.906   0.337 -0.3441  0.3126 -0.5207
   32MOL   O42917851   7.104   3.850   0.248  0.5956 -0.3480 -0.6517
   32MOL   C43017852   7.128   3.894   0.479 -0.0360  0.0679  0.3869
   32MOL   C43117853   7.203   3.945   0.591 -0.1796 -0.3193 -0.2460
   32MOL   C43217854   7.157   3.935   0.720  0.7077  0.6910 -0.2322
   32MOL   C43317855   7.030   3.873   0.745 -0.3998 -0.2927 -0.0780
   32MOL   C43417856   6.978   3.853   0.885  0.0602  0.5161  0.9049
   32MOL   O43517857   6.902   3.767   0.923  0.2355 -0.1169 -0.0737
   32MOL   C43617858   6.959   3.814   0.641  0.9919  0.3232  0.2518
   32MOL   C43717859   7.010   3.822   0.510 -1.0813  0.3695  0.0428
   32MOL   H43817860   7.391   4.165   8.064 -2.0424 -1.6825  1.1814
   32MOL   H43917861   7.411   4.098   7.912 -1.1059  1.3911  0.2055
   32MOL   H44017862   7.451   3.873   8.008  0.2260  0.0557 -0.9029
   32MOL   H44117863   7.286   3.954   8.025 -0.8745  2.0630  2.5432
   32MOL   H44217864   7.358   3.819   0.120 -0.4273  0.8133 -0.0122
   32MOL   H44317865   7.495   3.906   0.155 -0.1593  0.8127  0.1737
   32MOL   H44417866   7.359   4.113   0.184  2.5910 -0.5846 -0.0829
   32MOL   H44517867   7.208   4.027   0.134 -1.8159 -1.0191  3.5954
   32MOL   H44617868   7.300   3.991   0.577 -0.6984  0.8069 -0.2570
   32MOL   H44717869   7.219   3.978   0.797 -0.7259  0.0978  1.3063
   32MOL   H44817870   6.861   3.776   0.667  0.5808  2.2476  1.5303
   32MOL   H44917871   6.962   3.767   0.430  1.1563 -0.5528 -0.6959
   32MOL   O45017872   7.031   3.947   0.960 -0.3345  0.3141 -0.3293
   32MOL   C45117873   7.010   3.943   1.102  0.3617  0.2692  0.2856
   32MOL   C45217874   6.878   4.016   1.115 -0.0940 -0.0922 -0.3246
   32MOL   C45317875   6.846   4.058   1.256 -0.6359  0.4813  0.0442
   32MOL   C45417876   6.715   4.143   1.267 -0.0705  0.3656  0.8719
   32MOL   O45517877   6.699   4.145   1.412 -0.4804 -0.0688 -0.6847
   32MOL   C45617878   6.584   4.190   1.451 -0.4262  0.1192 -0.1057
   32MOL   O45717879   6.503   4.230   1.370  0.8202  0.0213 -0.7977
   32MOL   C45817880   6.570   4.199   1.603  0.1535 -0.5820 -0.4862
   32MOL   C45917881   6.449   4.172   1.670  0.2525 -0.4919 -0.0531
   32MOL   C46017882   6.449   4.155   1.810  0.5104 -0.1380  0.3545
   32MOL   C46117883   6.556   4.189   1.888  0.5224 -0.7792  0.1233
   32MOL   C46217884   6.555   4.181   2.038  0.3251 -0.7230 -0.2496
   32MOL   O46317885   6.450   4.182   2.101 -0.1201 -0.7742 -0.3054
   32MOL   C46417886   6.678   4.227   1.829 -0.0936  0.7023  0.3979
   32MOL   C46517887   6.683   4.225   1.684 -0.0250 -0.0738 -0.2211
   32MOL   H46617888   7.004   3.838   1.131 -0.0253 -0.6228 -2.8132
   32MOL   H46717889   7.100   3.993   1.138  1.7247 -2.0135  0.1566
   32MOL   H46817890   6.804   3.944   1.081 -1.4270  1.1120 -0.0021
   32MOL   H46917891   6.869   4.102   1.049 -0.3242 -0.0719 -0.2654
   32MOL   H47017892   6.842   3.966   1.314  2.7078  0.2699  0.0365
   32MOL   H47117893   6.932   4.116   1.291  0.2095 -1.3848  1.1630
   32MOL   H47217894   6.740   4.244   1.235  0.2265 -0.2146 -0.7620
   32MOL   H47317895   6.628   4.105   1.213 -1.2627  0.0957  2.8963
   32MOL   H47417896   6.361   4.162   1.608 -1.3727  1.3715  1.8364
   32MOL   H47517897   6.351   4.124   1.844  0.4855 -0.1535  0.2690
   32MOL   H47617898   6.765   4.254   1.888  0.4995  0.4492 -0.3464
   32MOL   H47717899   6.775   4.241   1.630 -0.7232 -0.9993 -1.7418
   32MOL   O47817900   6.676   4.154   2.086 -0.4183 -0.0549  0.7156
   32MOL   C47917901   6.690   4.120   2.219 -0.4930  0.0265  0.3057
   32MOL   C48017902   6.727   4.234   2.308 -1.4907  0.2702 -0.1073
   32MOL   C48117903   6.832   4.332   2.243 -0.2272  0.3035  0.0801
   32MOL   C48217904   6.862   4.454   2.333 -0.0550  0.8304  0.5158
   32MOL   O48317905   6.957   4.531   2.261  0.2235  0.4491  0.2276
   32MOL   C48417906   6.967   4.659   2.292  0.4581  0.1084  0.6854
   32MOL   O48517907   6.896   4.721   2.375 -0.0565  0.4296  0.5977
   32MOL   C48617908   7.089   4.729   2.229 -0.8798  0.4994  0.4507
   32MOL   C48717909   7.120   4.861   2.258  0.6436  0.4004 -0.4256
   32MOL   C48817910   7.239   4.921   2.215  0.5640 -0.5159  0.1670
   32MOL   C48917911   7.323   4.846   2.134 -1.4916  0.1159 -0.8550
   32MOL   C49017912   7.454   4.907   2.096 -0.3806  0.4977  0.2319
   32MOL   O49117913   7.488   5.021   2.122  0.4171 -0.0522 -0.1520
   32MOL   C49217914   7.281   4.720   2.082  0.0756  0.2892 -0.0084
   32MOL   C49317915   7.164   4.660   2.134  0.0974 -0.0838  0.0992
   32MOL   H49417916   6.599   4.099   2.274 -2.9359  2.3900 -2.6718
   32MOL   H49517917   6.762   4.038   2.217 -0.7389 -0.1787 -0.3415
   32MOL   H49617918   6.760   4.197   2.405 -0.6988 -1.6042 -1.0804
   32MOL   H49717919   6.633   4.285   2.330 -0.7512  0.2941  3.2233
   32MOL   H49817920   6.922   4.274   2.225 -0.9047 -0.9991  0.7900
   32MOL   H49917921   6.808   4.373   2.145 -0.3512  1.6908  0.6870
   32MOL   H50017922   6.776   4.513   2.363 -0.7748  0.7884 -1.4542
   32MOL   H50117923   6.893   4.422   2.433  0.0941 -0.0593  0.1881
   32MOL   H50217924   7.055   4.916   2.324  0.4365 -2.2859  1.7301
   32MOL   H50317925   7.274   5.019   2.244 -1.2453  0.5881 -1.2982
   32MOL   H50417926   7.338   4.667   2.007  0.7343  0.1355  0.5917
   32MOL   H50517927   7.137   4.564   2.094 -1.9543  0.8820 -0.8990
   32MOL   O50617928   7.535   4.820   2.027 -0.0809 -0.0854 -0.3664
   32MOL   C50717929   7.667   4.865   1.997 -0.3533 -0.3412 -0.7060
   32MOL   C50817930   7.777   4.753   2.004  0.2348  0.3148 -0.3139
   32MOL   C50917931   7.783   4.675   1.867 -0.0537 -0.2255 -0.4123
   32MOL   C51017932   7.656   4.598   1.833  0.0738 -0.3424  0.1031
   32MOL   O51117933   7.612   4.502   1.932 -0.0023 -0.1201 -0.7238
   32MOL   C51217934   7.488   4.448   1.922  0.3018 -0.1790  0.1271
   32MOL   O51317935   7.411   4.472   1.821  0.4420 -0.3037 -0.3391
   32MOL   C51417936   7.442   4.371   2.036  1.1944 -0.6597  0.7677
   32MOL   C51517937   7.324   4.290   2.014  0.3383  0.1403  0.1261
   32MOL   C51617938   7.282   4.209   2.122 -0.5010 -0.1740 -0.1399
   32MOL   C51717939   7.353   4.201   2.244 -0.9766  0.0306  0.3309
   32MOL   C51817940   7.317   4.101   2.352 -0.4834  0.0759  0.9071
   32MOL   O51917941   7.385   4.081   2.450  0.4138  0.3507  0.3693
   32MOL   C52017942   7.463   4.288   2.264  0.5089  0.5584 -0.5329
   32MOL   C52117943   7.504   4.373   2.161  0.0244  0.5221  0.7889
   32MOL   H52217944   7.656   4.919   1.903 -2.4519 -2.4051 -1.6993
   32MOL   H52317945   7.701   4.949   2.059 -0.2296 -1.2135  0.4284
   32MOL   H52417946   7.748   4.687   2.085  1.1125  1.3575  0.8764
   32MOL   H52517947   7.879   4.788   2.022  0.1027  0.2042  0.6237
   32MOL   H52617948   7.810   4.742   1.785 -1.5317 -1.5289 -2.0005
   32MOL   H52717949   7.865   4.604   1.871 -0.9411 -1.3623 -1.8183
   32MOL   H52817950   7.569   4.660   1.812 -0.1809 -0.9400 -0.6319
   32MOL   H52917951   7.672   4.545   1.739  1.8208  1.6002 -0.7307
   32MOL   H53017952   7.271   4.282   1.920  1.7790 -0.1542 -0.6862
   32MOL   H53117953   7.203   4.136   2.115  1.0020 -1.8454  0.0211
   32MOL   H53217954   7.514   4.273   2.358  1.7101 -2.6533 -1.5913
   32MOL   H53317955   7.593   4.435   2.167  1.0721 -0.8501 -0.1132
   32MOL   O53417956   7.196   4.034   2.332 -0.2868 -0.7907  0.3341
   32MOL   C53517957   7.141   3.948   2.435  0.5694  0.4168 -0.0284
   32MOL   C53617958   7.209   3.810   2.437  0.0466 -0.2201 -0.5511
   32MOL   C53717959   7.188   3.721   2.316  0.2877  0.1070  0.1761
   32MOL   C53817960   7.230   3.576   2.348 -0.4278 -0.1363  0.0527
   32MOL   O53917961   7.128   3.512   2.415 -0.0902 -0.0062  0.5361
   32MOL   C54017962   7.135   3.490   2.546 -0.6042  0.5014  0.3982
   32MOL   O54117963   7.236   3.517   2.612 -0.7122  0.5532 -0.4852
   32MOL   C54217964   7.010   3.445   2.607  0.4918 -0.2047  0.6708
   32MOL   C54317965   6.895   3.402   2.534  0.1095 -0.2194 -0.3839
   32MOL   C54417966   6.773   3.376   2.601  0.2752 -0.5029  0.0972
   32MOL   C54517967   6.765   3.373   2.742 -0.4579  0.7412 -0.8040
   32MOL   C54617968   6.643   3.321   2.811  0.3388  0.1846  0.0249
   32MOL   O54717969   6.620   3.343   2.927  0.2556  0.1307  0.5247
   32MOL   C54817970   6.878   3.420   2.811  0.5244 -0.9393  1.1483
   32MOL   C54917971   7.003   3.446   2.751 -0.4949  0.6338  0.6722
   32MOL   H55017972   7.138   3.994   2.534 -0.6349  0.1645  0.0586
   32MOL   H55117973   7.036   3.936   2.410  0.0435  0.0772  2.2245
   32MOL   H55217974   7.164   3.749   2.516  0.0273 -0.5669 -0.8269
   32MOL   H55317975   7.316   3.824   2.448 -0.0136 -0.5427  0.5366
   32MOL   H55417976   7.085   3.723   2.282  1.0636  1.7106 -2.1959
   32MOL   H55517977   7.233   3.774   2.232  2.0342 -1.5019  0.0396
   32MOL   H55617978   7.246   3.553   2.243  0.1155 -0.1189  0.1312
   32MOL   H55717979   7.327   3.578   2.397 -0.4867  0.3550  0.1457
   32MOL   H55817980   6.903   3.412   2.427  1.2283 -0.4174 -0.3247
   32MOL   H55917981   6.678   3.360   2.551  0.6304  1.3978 -1.2206
   32MOL   H56017982   6.872   3.421   2.919 -1.0620  1.1406  1.0801
   32MOL   H56117983   7.086   3.481   2.810  1.3671 -0.8023 -1.0324
   32MOL   H56217984   6.575   3.262   2.750 -1.0729  1.7741  0.0267
   33MOL     O117985   7.878   1.050   3.039 -0.9367 -0.1821 -0.2697
   33MOL     C217986   7.823   1.084   2.912  0.7345  0.0721 -0.5601
   33MOL     C317987   7.731   1.205   2.929 -0.4169 -0.0638 -0.1381
   33MOL     C417988   7.593   1.183   2.983  0.0964  0.1946 -0.6510
   33MOL     C517989   7.515   1.318   3.005  1.0241  0.4880 -0.4104
   33MOL     O617990   7.372   1.283   3.008  0.1480  0.2376  0.1340
   33MOL     C717991   7.282   1.360   3.059  0.0594  0.7319 -0.7365
   33MOL     O817992   7.297   1.446   3.146 -0.7483 -0.2463 -0.0533
   33MOL     C917993   7.142   1.327   3.021 -0.4794  0.0924  0.8088
   33MOL    C1017994   7.044   1.420   3.050 -0.7742  0.1726 -0.5211
   33MOL    C1117995   6.909   1.395   3.013 -0.0211 -0.2151  0.1205
   33MOL    C1217996   6.869   1.280   2.937  0.2012  0.1784  0.8726
   33MOL    C1317997   6.732   1.257   2.871  0.1805 -0.1527 -0.6012
   33MOL    O1417998   6.710   1.186   2.776  0.3517  0.2105  0.5466
   33MOL    C1517999   6.972   1.183   2.916  0.0384 -0.6227  0.2187
   33MOL    C1618000   7.105   1.207   2.950 -0.1608  0.1320 -0.9369
   33MOL    H1718001   7.904   1.122   2.849  0.1661  1.0883 -0.6830
   33MOL    H1818002   7.772   0.996   2.872 -1.5406  0.8905  0.4660
   33MOL    H1918003   7.728   1.250   2.830  2.2054 -0.6470 -0.5447
   33MOL    H2018004   7.778   1.282   2.990 -3.1909  0.4775  1.3972
   33MOL    H2118005   7.552   1.110   2.914  0.1292  0.0069 -0.4744
   33MOL    H2218006   7.606   1.133   3.080  0.1527  2.2777  0.4496
   33MOL    H2318007   7.549   1.358   3.100  0.9670 -0.3567 -0.0376
   33MOL    H2418008   7.537   1.401   2.937 -0.6335  1.9930  0.8495
   33MOL    H2518009   7.067   1.504   3.114 -3.2501 -0.9510  1.9443
   33MOL    H2618010   6.831   1.468   3.031 -0.1665 -0.1450 -0.7836
   33MOL    H2718011   6.952   1.094   2.858 -1.5018 -0.9960  1.2815
   33MOL    H2818012   7.183   1.133   2.938 -2.3617 -2.1695 -1.5224
   33MOL    H2918013   7.968   1.078   3.042 -0.2458 -2.3305 -0.3574
   33MOL    O3018014   6.643   1.334   2.929  0.0706  0.2387  0.2218
   33MOL    C3118015   6.512   1.345   2.878 -0.5137 -0.1786 -0.5791
   33MOL    C3218016   6.504   1.432   2.752 -0.9822 -0.3899  0.2342
   33MOL    C3318017   6.549   1.574   2.760 -0.5837  0.3838  0.5458
   33MOL    C3418018   6.537   1.653   2.627  0.2687  0.5046  0.2806
   33MOL    O3518019   6.400   1.647   2.585 -0.0002  0.0561 -0.4338
   33MOL    C3618020   6.365   1.699   2.462  0.2745  0.5867 -0.4532
   33MOL    O3718021   6.443   1.770   2.396  0.1875 -0.1378 -0.6614
   33MOL    C3818022   6.225   1.658   2.417  0.7699  0.2207 -0.3651
   33MOL    C3918023   6.134   1.591   2.503  0.8143  0.2147  0.2802
   33MOL    C4018024   6.008   1.568   2.448  0.8791  0.2240  0.2141
   33MOL    C4118025   5.969   1.619   2.315 -0.5026  0.0221 -0.0087
   33MOL    C4218026   5.832   1.604   2.262  0.5714  0.2379  0.5496
   33MOL    O4318027   5.780   1.658   2.160  0.3175 -0.1303 -0.0960
   33MOL    C4418028   6.066   1.676   2.235  0.1572  0.6913  0.7996
   33MOL    C4518029   6.195   1.696   2.287  0.3125 -0.0366 -0.2530
   33MOL    H4618030   6.480   1.244   2.852 -0.9903 -0.2710  0.3503
   33MOL    H4718031   6.450   1.373   2.963 -1.6697 -2.0599 -0.7655
   33MOL    H4818032   6.403   1.451   2.716  0.3058 -0.1125 -3.4544
   33MOL    H4918033   6.554   1.380   2.670 -0.3616 -2.4275  1.8666
   33MOL    H5018034   6.495   1.628   2.838  0.2485  1.5545  0.3357
   33MOL    H5118035   6.654   1.577   2.792 -0.2393 -1.8576 -0.3106
   33MOL    H5218036   6.556   1.758   2.648  2.4838 -0.2234  2.1935
   33MOL    H5318037   6.595   1.611   2.545  0.7580 -0.5491  1.1380
   33MOL    H5418038   6.172   1.549   2.595 -1.1738 -0.1093  0.9775
   33MOL    H5518039   5.930   1.529   2.512  0.4089 -0.8951 -1.0187
   33MOL    H5618040   6.047   1.698   2.131 -1.6394 -1.7321  0.5581
   33MOL    H5718041   6.269   1.735   2.219  1.1001  1.0233  1.1779
   33MOL    O5818042   5.760   1.526   2.344 -0.2625 -0.1301 -0.0718
   33MOL    C5918043   5.642   1.476   2.284  0.0394 -0.2767 -0.4514
   33MOL    C6018044   5.551   1.409   2.389 -0.3691 -0.6741  0.3779
   33MOL    C6118045   5.427   1.327   2.339  0.3326  0.2897  0.7342
   33MOL    C6218046   5.323   1.280   2.442  0.1532 -0.2052 -0.2248
   33MOL    O6318047   5.252   1.392   2.488  0.1233  0.6666  0.1233
   33MOL    C6418048   5.131   1.432   2.432 -0.1320 -0.1840 -0.0619
   33MOL    O6518049   5.078   1.370   2.342 -0.3940 -0.0575  0.0964
   33MOL    C6618050   5.070   1.550   2.504  0.2034  0.4291 -0.2116
   33MOL    C6718051   4.970   1.620   2.437 -0.5497  0.0279 -0.0230
   33MOL    C6818052   4.892   1.717   2.503 -0.6382 -0.1788 -0.1539
   33MOL    C6918053   4.915   1.737   2.641 -0.3610 -1.7257 -0.4340
   33MOL    C7018054   4.843   1.833   2.728  0.1766 -0.2977  0.1101
   33MOL    O7118055   4.884   1.868   2.841 -0.3668  0.4387  0.4429
   33MOL    C7218056   5.028   1.680   2.710  0.1844 -0.4092  0.6064
   33MOL    C7318057   5.099   1.577   2.643  0.3364 -0.4163 -0.4000
   33MOL    H7418058   5.583   1.555   2.237 -1.8535 -1.4296 -0.0232
   33MOL    H7518059   5.664   1.400   2.208 -2.7075 -1.3593 -0.1995
   33MOL    H7618060   5.509   1.490   2.448  0.6467 -0.0299  0.2379
   33MOL    H7718061   5.596   1.342   2.462 -0.6630 -3.3563 -1.8156
   33MOL    H7818062   5.360   1.377   2.269 -2.1760 -0.5269  2.4920
   33MOL    H7918063   5.465   1.235   2.297 -0.0924  0.6043 -0.3416
   33MOL    H8018064   5.249   1.221   2.387 -0.2091  1.5981 -1.7334
   33MOL    H8118065   5.355   1.211   2.520  1.0112 -0.1612 -0.5309
   33MOL    H8218066   4.957   1.603   2.331 -1.1065 -0.2215  0.0814
   33MOL    H8318067   4.816   1.771   2.449 -0.0532  0.2552 -0.5490
   33MOL    H8418068   5.062   1.695   2.811 -0.1582 -0.9372  0.8037
   33MOL    H8518069   5.179   1.523   2.692 -0.4050 -0.9776  0.1931
   33MOL    O8618070   4.727   1.867   2.665 -0.2392 -0.4783  0.2594
   33MOL    C8718071   4.625   1.947   2.724 -0.0714 -0.5930  0.7168
   33MOL    C8818072   4.492   1.871   2.759 -0.5111  0.2847 -0.0338
   33MOL    C8918073   4.519   1.750   2.853 -0.3979 -0.0735  0.0055
   33MOL    C9018074   4.394   1.664   2.903 -0.4507  0.3169 -0.0361
   33MOL    O9118075   4.341   1.726   3.015 -0.2983  0.4121 -0.3951
   33MOL    C9218076   4.338   1.666   3.137  0.5285 -0.4896 -0.6371
   33MOL    O9318077   4.379   1.557   3.160  0.4690  0.5411 -0.3557
   33MOL    C9418078   4.272   1.746   3.243 -0.0566  1.0216 -0.8171
   33MOL    C9518079   4.190   1.687   3.348  0.3037 -0.3602  0.2402
   33MOL    C9618080   4.130   1.759   3.451  0.0093 -0.0792 -0.2515
   33MOL    C9718081   4.137   1.898   3.446  0.1853  0.7781 -0.9327
   33MOL    C9818082   4.070   1.967   3.568  0.3793 -0.0941 -0.1439
   33MOL    O9918083   4.010   1.915   3.669  0.2330 -0.0130 -0.0349
   33MOL   C10018084   4.202   1.961   3.338  0.7467 -0.4390 -0.1633
   33MOL   C10118085   4.266   1.886   3.237  0.5736  0.2213  0.2747
   33MOL   H10218086   4.656   2.026   2.793 -1.0174 -0.1386  0.6414
   33MOL   H10318087   4.597   2.025   2.654 -0.5322 -0.1128  1.4184
   33MOL   H10418088   4.441   1.830   2.671 -0.4622 -1.6585  0.8226
   33MOL   H10518089   4.421   1.942   2.801  0.4912  0.7779  0.8458
   33MOL   H10618090   4.581   1.676   2.803 -0.3539 -2.4918  3.3964
   33MOL   H10718091   4.581   1.785   2.935  1.3371 -2.6298 -0.1560
   33MOL   H10818092   4.316   1.664   2.827  0.7290  2.1731 -1.2989
   33MOL   H10918093   4.424   1.561   2.923  0.4761  0.4215 -0.8662
   33MOL   H11018094   4.183   1.579   3.346 -1.3880 -0.2511 -3.0352
   33MOL   H11118095   4.075   1.709   3.530  0.3867  0.7532  0.5460
   33MOL   H11218096   4.197   2.069   3.335  2.5340 -0.3497 -0.4856
   33MOL   H11318097   4.308   1.941   3.154  2.2062  0.2695  1.1142
   33MOL   O11418098   4.059   2.093   3.538  0.0599  0.5057  0.0377
   33MOL   C11518099   4.000   2.185   3.620  0.0807  0.1088  0.4530
   33MOL   C11618100   4.001   2.329   3.563 -0.6166  0.3876  0.4124
   33MOL   C11718101   4.145   2.373   3.526  0.0078 -0.4921 -0.4555
   33MOL   C11818102   4.164   2.523   3.499 -0.4984  0.3643 -0.2049
   33MOL   O11918103   4.117   2.551   3.370 -0.0552  0.5388 -0.0996
   33MOL   C12018104   4.075   2.671   3.334 -0.3988 -0.2526 -0.3124
   33MOL   O12118105   4.059   2.772   3.406  0.2840  0.0634  0.2684
   33MOL   C12218106   4.038   2.680   3.183 -0.6113  0.0129 -0.3353
   33MOL   C12318107   4.059   2.572   3.094 -0.0711  0.1661  0.2363
   33MOL   C12418108   4.037   2.582   2.959 -0.2618  0.2234 -0.2881
   33MOL   C12518109   3.996   2.705   2.909  0.2632 -0.4718 -0.2906
   33MOL   C12618110   3.976   2.726   2.764  0.3158  0.2552 -0.2198
   33MOL   O12718111   3.968   2.840   2.713  0.0128  0.2429 -0.0550
   33MOL   C12818112   3.995   2.818   2.989  0.2817  0.6304 -0.5885
   33MOL   C12918113   4.024   2.807   3.124  0.3692 -0.0466 -0.3897
   33MOL   H13018114   3.899   2.143   3.613  0.1756 -0.2127  0.9912
   33MOL   H13118115   4.030   2.170   3.724  1.1643  0.7587  0.2360
   33MOL   H13218116   3.954   2.402   3.628  0.1522  1.5842 -0.3440
   33MOL   H13318117   3.940   2.336   3.473  0.2317  2.5796 -0.0285
   33MOL   H13418118   4.211   2.341   3.607 -0.3504 -0.9162 -0.3301
   33MOL   H13518119   4.184   2.323   3.438 -1.2078  0.5715 -1.6241
   33MOL   H13618120   4.125   2.588   3.578 -0.1690  1.8891 -1.2715
   33MOL   H13718121   4.273   2.534   3.499 -0.2831 -1.6051  0.2152
   33MOL   H13818122   4.102   2.478   3.128 -2.1816 -0.2540  1.8037
   33MOL   H13918123   4.050   2.498   2.892 -0.8637 -0.6739  0.6918
   33MOL   H14018124   3.972   2.917   2.952 -0.4548  0.6272 -0.1482
   33MOL   H14118125   4.033   2.896   3.184 -2.0835  0.4753 -0.7542
   33MOL   O14218126   3.975   2.617   2.692  0.6599 -0.3168  0.4956
   33MOL   C14318127   3.938   2.613   2.551 -0.4389  0.2709 -0.4201
   33MOL   C14418128   3.894   2.477   2.510 -1.2922  0.6571  0.2920
   33MOL   C14518129   3.828   2.470   2.376 -0.2544  0.0116  0.4898
   33MOL   C14618130   3.919   2.495   2.248  0.7137 -0.4137 -0.5304
   33MOL   O14718131   3.850   2.491   2.121 -0.5557  0.0488 -0.3226
   33MOL   C14818132   3.814   2.376   2.070  0.3550  0.0436  0.2458
   33MOL   O14918133   3.858   2.268   2.115 -0.1125  0.4818 -0.2001
   33MOL   C15018134   3.721   2.383   1.954  0.7502 -0.0913  0.3417
   33MOL   C15118135   3.673   2.258   1.898  0.3285  0.2566 -0.0216
   33MOL   C15218136   3.585   2.249   1.791 -0.2031  0.2382 -0.6615
   33MOL   C15318137   3.540   2.372   1.726  0.2587 -0.9588  0.1744
   33MOL   C15418138   3.452   2.374   1.608 -0.0033  0.1887  0.0197
   33MOL   O15518139   3.366   2.287   1.579 -0.3588  0.0121  0.2788
   33MOL   C15618140   3.582   2.493   1.786  0.2485 -0.9602  0.5402
   33MOL   C15718141   3.674   2.504   1.894 -0.2278  0.7760  0.1096
   33MOL   H15818142   3.843   2.667   2.549 -0.0986  0.9157  0.6528
   33MOL   H15918143   4.013   2.649   2.480  1.4567 -0.0214  1.3831
   33MOL   H16018144   3.844   2.426   2.592 -0.7196 -0.8287 -0.2619
   33MOL   H16118145   3.984   2.417   2.505 -1.6528 -0.0957  2.4680
   33MOL   H16218146   3.778   2.375   2.354  3.4733 -1.8684 -0.1637
   33MOL   H16318147   3.751   2.548   2.380 -1.6667 -1.3182 -0.1714
   33MOL   H16418148   3.962   2.594   2.262  1.5246 -1.0679  1.8493
   33MOL   H16518149   3.999   2.421   2.252  0.3174 -0.7509  3.7414
   33MOL   H16618150   3.709   2.166   1.943  0.3796  0.8042  1.0699
   33MOL   H16718151   3.546   2.158   1.748  1.1318 -1.0808  0.8610
   33MOL   H16818152   3.553   2.584   1.736 -2.2530 -0.9295  1.9379
   33MOL   H16918153   3.714   2.597   1.931  0.0934 -0.0427  1.8867
   33MOL   O17018154   3.458   2.494   1.541  0.2901 -0.0322 -0.1421
   33MOL   C17118155   3.369   2.533   1.436  0.5066 -0.1135  0.3337
   33MOL   C17218156   3.423   2.659   1.361 -0.1092 -0.4578 -0.0518
   33MOL   C17318157   3.409   2.793   1.431  0.1298  0.4854 -0.7455
   33MOL   C17418158   3.462   2.795   1.574  0.9614  0.4405 -0.2491
   33MOL   O17518159   3.430   2.921   1.616 -0.1423  0.6808 -0.4363
   33MOL   C17618160   3.383   2.944   1.735  0.4453 -0.3454 -0.0411
   33MOL   O17718161   3.339   2.854   1.807  0.4454  0.1643 -0.3828
   33MOL   C17818162   3.367   3.085   1.766 -0.1865 -0.0669 -0.2263
   33MOL   C17918163   3.321   3.132   1.892  0.3667 -0.3025 -0.2434
   33MOL   C18018164   3.287   3.271   1.910 -0.2064  0.4864 -0.7329
   33MOL   C18118165   3.327   3.364   1.811  0.6454  0.0147  0.7035
   33MOL   C18218166   3.307   3.513   1.841  0.3277 -0.4829  0.5936
   33MOL   O18318167   3.235   3.552   1.934  0.2935  0.4131 -0.5570
   33MOL   C18418168   3.394   3.319   1.691  0.5576  0.0479  0.4304
   33MOL   C18518169   3.401   3.183   1.664 -0.5955  0.2035  0.8762
   33MOL   H18618170   3.346   2.456   1.362 -0.3146  0.9486 -0.5352
   33MOL   H18718171   3.274   2.567   1.477 -0.2080 -1.1739 -0.3986
   33MOL   H18818172   3.356   2.662   1.275  1.0662  0.3648 -0.9513
   33MOL   H18918173   3.523   2.637   1.321 -0.3450  0.1722 -1.0105
   33MOL   H19018174   3.457   2.867   1.367  2.0934 -0.7127 -0.6931
   33MOL   H19118175   3.303   2.815   1.422 -0.9530 -3.6302  0.6121
   33MOL   H19218176   3.415   2.720   1.638  0.9549 -0.2646 -1.0814
   33MOL   H19318177   3.564   2.758   1.590  0.8439 -0.4891 -1.6369
   33MOL   H19418178   3.297   3.067   1.975  1.6858 -0.2729  0.1612
   33MOL   H19518179   3.254   3.303   2.008 -0.4855 -0.5261 -0.4852
   33MOL   H19618180   3.409   3.384   1.606  1.1998 -0.5585  0.0704
   33MOL   H19718181   3.436   3.160   1.564 -1.3758  0.7215  0.4810
   33MOL   O19818182   3.360   3.591   1.752 -0.0537 -0.2651 -0.5105
   33MOL   C19918183   3.360   3.735   1.756 -0.1615 -0.3583  0.0182
   33MOL   C20018184   3.233   3.800   1.692  0.7004 -0.4277  0.3244
   33MOL   C20118185   3.208   3.764   1.544  0.1323 -0.4280  0.1783
   33MOL   C20218186   3.096   3.845   1.484 -0.5421 -0.8884 -0.2692
   33MOL   O20318187   3.061   3.784   1.358 -0.1327  0.1913  0.0379
   33MOL   C20418188   3.079   3.844   1.244 -0.2199 -0.5609  0.0459
   33MOL   O20518189   3.107   3.967   1.241  0.7420 -0.2337 -0.0871
   33MOL   C20618190   3.063   3.741   1.138  0.3896  0.0846  0.4984
   33MOL   C20718191   3.053   3.782   1.005 -0.2360 -0.7292 -0.1198
   33MOL   C20818192   3.017   3.688   0.901  0.4143  0.1322 -0.1182
   33MOL   C20918193   3.011   3.550   0.936 -0.6366 -0.3051  0.2892
   33MOL   C21018194   3.000   3.458   0.824 -0.7298 -0.3552 -0.5299
   33MOL   O21118195   2.946   3.483   0.719  0.0027 -0.0942  0.0478
   33MOL   C21218196   3.029   3.506   1.070 -0.1150 -0.0376 -0.4200
   33MOL   C21318197   3.041   3.607   1.169 -0.0814 -0.2800  0.6921
   33MOL   H21418198   3.380   3.764   1.859 -0.3620  2.6342 -0.7187
   33MOL   H21518199   3.441   3.766   1.690  0.7277  0.1753  1.3331
   33MOL   H21618200   3.240   3.907   1.707  1.6090 -0.3383 -0.7341
   33MOL   H21718201   3.148   3.780   1.757  2.3267 -1.2356  2.2859
   33MOL   H21818202   3.300   3.769   1.485 -0.9255  0.5271 -1.4319
   33MOL   H21918203   3.185   3.658   1.540  0.1842 -0.4660  0.8871
   33MOL   H22018204   3.008   3.838   1.548  0.1464 -0.5998  0.7304
   33MOL   H22118205   3.131   3.948   1.483 -0.0722 -1.0518 -0.9887
   33MOL   H22218206   3.076   3.883   0.975  1.8603 -1.6593 -1.7535
   33MOL   H22318207   3.001   3.727   0.802 -1.2844  4.4513  1.7393
   33MOL   H22418208   3.012   3.406   1.107 -0.3378 -0.5334 -1.8571
   33MOL   H22518209   3.051   3.570   1.270  1.7999 -1.8210 -0.0357
   33MOL   O22618210   3.070   3.349   0.849  0.6231 -0.2708  0.2092
   33MOL   C22718211   3.090   3.257   0.740 -0.3430 -0.3379  0.7824
   33MOL   C22818212   3.175   3.132   0.788  0.4168  0.0525 -0.4470
   33MOL   C22918213   3.297   3.161   0.873 -0.0055  0.1497 -0.4346
   33MOL   C23018214   3.371   3.032   0.903 -0.1652  0.2876  0.1132
   33MOL   O23118215   3.433   3.000   0.786  0.5566 -0.6406  0.3204
   33MOL   C23218216   3.515   2.900   0.781  0.1161 -0.7851 -0.1400
   33MOL   O23318217   3.543   2.837   0.881 -0.1510  0.0206 -0.5306
   33MOL   C23418218   3.565   2.869   0.644  0.5983  0.5929  0.0463
   33MOL   C23518219   3.656   2.767   0.617  0.0803 -0.0547 -0.5570
   33MOL   C23618220   3.685   2.724   0.481  0.1291  0.7219 -0.3972
   33MOL   C23718221   3.619   2.789   0.379 -0.3851  0.5568  0.4919
   33MOL   C23818222   3.648   2.754   0.239  0.0766  0.0903 -0.0184
   33MOL   O23918223   3.652   2.836   0.145  0.4208  0.3009 -0.0642
   33MOL   C24018224   3.534   2.898   0.405 -0.4846 -0.2276 -0.7424
   33MOL   C24118225   3.503   2.937   0.531  0.3009  0.1535 -0.2291
   33MOL   H24218226   3.002   3.209   0.697 -1.2554  1.6397  0.4187
   33MOL   H24318227   3.132   3.306   0.653 -4.0091  0.3321 -0.6991
   33MOL   H24418228   3.210   3.085   0.696 -1.7768 -1.6094 -0.4700
   33MOL   H24518229   3.104   3.066   0.837 -0.8208  1.6175 -0.0935
   33MOL   H24618230   3.367   3.236   0.836 -0.5333  0.7869 -0.1356
   33MOL   H24718231   3.267   3.200   0.970  3.8091 -0.0546  0.9248
   33MOL   H24818232   3.445   3.048   0.982  0.7312  0.1067 -0.6812
   33MOL   H24918233   3.304   2.949   0.927  0.9588 -1.0181 -1.1287
   33MOL   H25018234   3.687   2.704   0.699 -2.0215  1.4020  1.3929
   33MOL   H25118235   3.753   2.645   0.454  0.7934  1.3304 -0.4998
   33MOL   H25218236   3.496   2.958   0.324 -1.8473 -0.7442 -0.4906
   33MOL   H25318237   3.448   3.029   0.544  1.9250  0.7975  2.5050
   33MOL   O25418238   3.664   2.619   0.227  0.3626  0.3159 -0.0775
   33MOL   C25518239   3.686   2.564   0.104 -0.2148  0.1614  0.5968
   33MOL   C25618240   3.626   2.423   0.097  0.3163 -0.1516  0.0013
   33MOL   C25718241   3.689   2.315   0.189  0.3239  0.6016  0.4905
   33MOL   C25818242   3.599   2.192   0.208  0.0166 -1.0815  0.9942
   33MOL   O25918243   3.687   2.076   0.222 -0.9575  0.2246  0.2090
   33MOL   C26018244   3.648   1.957   0.258 -0.0329 -0.4006  0.0629
   33MOL   O26118245   3.531   1.923   0.250  1.2305 -0.0030 -0.1941
   33MOL   C26218246   3.752   1.865   0.308 -0.4275 -0.1037 -0.3453
   33MOL   C26318247   3.712   1.737   0.347 -0.7109  0.1150 -0.0454
   33MOL   C26418248   3.799   1.651   0.410 -0.1357 -0.5824  0.4638
   33MOL   C26518249   3.933   1.691   0.425  0.1369 -0.5411 -0.1429
   33MOL   C26618250   4.039   1.587   0.471 -0.7912 -0.1952 -0.1333
   33MOL   O26718251   4.157   1.609   0.487  0.0146  0.3394 -0.3270
   33MOL   C26818252   3.979   1.816   0.389  0.0120  1.1828  0.5630
   33MOL   C26918253   3.885   1.905   0.332  0.2327 -0.1570 -0.1343
   33MOL   H27018254   3.638   2.625   0.027 -0.1769 -0.0676  0.3911
   33MOL   H27118255   3.793   2.566   0.083 -0.1057 -1.1418  0.9844
   33MOL   H27218256   3.640   2.390   8.093  2.4337  0.8681 -0.0404
   33MOL   H27318257   3.517   2.422   0.099  0.2574  1.0607 -2.3133
   33MOL   H27418258   3.793   2.295   0.162 -0.1168 -1.7548  0.4906
   33MOL   H27518259   3.708   2.361   0.286  2.3813 -2.0988  1.4421
   33MOL   H27618260   3.524   2.196   0.287 -0.0040 -1.9515  1.0299
   33MOL   H27718261   3.556   2.179   0.109  0.7176  1.4733  0.3255
   33MOL   H27818262   3.613   1.699   0.331  0.3123 -2.2374 -1.0570
   33MOL   H27918263   3.759   1.557   0.446  0.9028 -1.2810 -0.1882
   33MOL   H28018264   4.083   1.842   0.395  1.2567 -3.4110  0.6110
   33MOL   H28118265   3.924   1.998   0.294 -0.7199 -0.2453 -1.3794
   33MOL   O28218266   3.989   1.454   0.503  0.6877  0.2524 -0.3975
   33MOL   C28318267   4.076   1.348   0.543 -0.4000 -0.0086  0.0014
   33MOL   C28418268   4.000   1.216   0.543 -0.1239  0.2424 -0.1832
   33MOL   C28518269   4.081   1.099   0.597 -0.3181 -0.4834  0.0433
   33MOL   C28618270   4.017   0.954   0.587  0.1216 -0.5776  0.2346
   33MOL   O28718271   3.997   0.938   0.453 -0.4669  0.4336 -0.1276
   33MOL   C28818272   4.085   0.872   0.372 -0.2888 -0.0801 -0.1302
   33MOL   O28918273   4.188   0.817   0.411  0.6631 -0.3460  0.4260
   33MOL   C29018274   4.039   0.886   0.234 -0.2259  0.3954  0.0741
   33MOL   C29118275   3.953   0.988   0.187 -0.3951  0.3835 -0.1894
   33MOL   C29218276   3.918   1.004   0.051 -0.3456 -0.2542 -0.3756
   33MOL   C29318277   3.960   0.906   8.060  0.4243 -0.5641  0.3811
   33MOL   C29418278   3.926   0.920   7.914 -0.3955  0.4179  0.5954
   33MOL   O29518279   3.885   1.024   7.864  0.2883  0.2671 -0.4109
   33MOL   C29618280   4.045   0.794   0.006  0.5840 -0.0549 -0.6032
   33MOL   C29718281   4.082   0.781   0.143 -0.3066 -0.7826 -0.6505
   33MOL   H29818282   4.159   1.336   0.474 -0.5424 -0.1082 -0.1545
   33MOL   H29918283   4.109   1.350   0.647  0.6869  0.1913 -0.3391
   33MOL   H30018284   3.971   1.191   0.441  3.0856 -0.4102 -0.9876
   33MOL   H30118285   3.906   1.224   0.598  0.8694 -0.0002  1.6034
   33MOL   H30218286   4.178   1.093   0.548 -0.4958 -1.1776 -0.2260
   33MOL   H30318287   4.095   1.106   0.705  1.4155  0.3302 -0.2195
   33MOL   H30418288   4.073   0.868   0.624 -1.0841 -1.2757  0.4423
   33MOL   H30518289   3.922   0.959   0.640  0.2671 -1.0621  0.5537
   33MOL   H30618290   3.910   1.063   0.252 -1.2120 -1.6717  1.7239
   33MOL   H30718291   3.862   1.088   0.014 -0.6312 -0.0209  0.5618
   33MOL   H30818292   4.096   0.719   8.046  0.6550 -0.2120 -0.3403
   33MOL   H30918293   4.156   0.713   0.183 -0.8556 -0.0596  1.6987
   33MOL   O31018294   3.952   0.808   7.854 -0.4799  0.1832 -0.4521
   33MOL   C31118295   3.965   0.803   7.713 -0.1624 -0.3009 -0.7318
   33MOL   C31218296   3.973   0.660   7.660 -0.2761  0.7862  0.3636
   33MOL   C31318297   4.110   0.592   7.697 -0.4200 -0.3551 -0.2340
   33MOL   C31418298   4.111   0.449   7.643 -0.4147 -0.0971  0.1498
   33MOL   O31518299   4.088   0.446   7.502 -0.1026  0.4106  0.1040
   33MOL   C31618300   4.051   0.322   7.453  0.4369  0.3744 -0.7654
   33MOL   O31718301   4.041   0.222   7.523  0.8752  0.2226 -0.1852
   33MOL   C31818302   4.031   0.317   7.308 -0.5744  0.3389 -0.1574
   33MOL   C31918303   3.991   0.199   7.243  0.4789  0.2873 -0.1348
   33MOL   C32018304   3.982   0.194   7.103 -0.6830  0.4233  0.2289
   33MOL   C32118305   4.008   0.309   7.028  0.5412  0.2116 -0.8260
   33MOL   C32218306   3.992   0.310   6.880  0.4404  0.4046  0.5757
   33MOL   O32318307   3.983   0.408   6.815  0.1539 -0.2343 -0.3616
   33MOL   C32418308   4.045   0.430   7.089 -0.0535 -0.2040  0.2755
   33MOL   C32518309   4.050   0.431   7.226 -0.0923  0.0007 -0.0722
   33MOL   H32618310   3.880   0.861   7.677 -1.7410 -1.5399  0.9030
   33MOL   H32718311   4.051   0.857   7.675  0.8813 -0.8207  0.8398
   33MOL   H32818312   3.957   0.675   7.553 -1.7136  0.2321  0.4944
   33MOL   H32918313   3.900   0.598   7.710 -2.2219  3.0507  0.4003
   33MOL   H33018314   4.191   0.650   7.653 -0.6447 -1.3672 -2.0611
   33MOL   H33118315   4.129   0.599   7.804  1.8287 -1.6952 -0.5062
   33MOL   H33218316   4.206   0.407   7.674 -0.2050 -1.1831 -1.8421
   33MOL   H33318317   4.029   0.392   7.686 -0.7329  0.3356  0.1188
   33MOL   H33418318   3.957   0.112   7.297  2.0410  0.1788  0.6840
   33MOL   H33518319   3.954   0.103   7.052 -1.8385  0.9243 -0.0482
   33MOL   H33618320   4.066   0.512   7.022 -0.4078 -0.7635 -0.5350
   33MOL   H33718321   4.073   0.525   7.276 -2.7328  1.4031 -1.4125
   33MOL   O33818322   3.998   0.191   6.825 -0.3585 -0.7872 -0.5665
   33MOL   C33918323   3.998   0.165   6.683  0.3314  0.2718  0.4504
   33MOL   C34018324   4.042   0.023   6.649 -0.2104 -0.3867 -0.9235
   33MOL   C34118325   3.956   8.017   6.729 -0.1460  0.7073  0.4634
   33MOL   C34218326   3.996   7.874   6.692  0.4825 -0.3292  0.0124
   33MOL   O34318327   3.909   7.785   6.759 -0.3257  0.6891  0.4076
   33MOL   C34418328   3.943   7.656   6.770 -0.6057  0.0139  0.2728
   33MOL   O34518329   4.035   7.607   6.705  0.1888  0.3413 -0.1124
   33MOL   C34618330   3.889   7.596   6.895 -0.4411  0.3698  0.2105
   33MOL   C34718331   3.753   7.598   6.918  0.0488 -0.4755 -0.0918
   33MOL   C34818332   3.702   7.548   7.038 -0.1510  0.3018 -1.0415
   33MOL   C34918333   3.789   7.493   7.139 -0.5071 -0.2768  0.0034
   33MOL   C35018334   3.729   7.442   7.263 -0.4342  0.0189  0.0809
   33MOL   O35118335   3.614   7.457   7.298 -0.0929  0.0838  0.3059
   33MOL   C35218336   3.932   7.496   7.111 -0.6015  0.0695  0.5983
   33MOL   C35318337   3.981   7.543   6.989 -0.0595  0.0176 -0.0019
   33MOL   H35418338   3.900   0.182   6.637  0.2741 -1.2263 -0.0014
   33MOL   H35518339   4.067   0.241   6.647  2.0356 -1.5398 -0.1079
   33MOL   H35618340   4.147   0.008   6.674 -0.1008 -0.1335 -1.2279
   33MOL   H35718341   4.042   0.007   6.541  1.1834  0.9766 -1.1400
   33MOL   H35818342   3.976   8.041   6.834 -0.5418 -3.7841  1.6670
   33MOL   H35918343   3.851   8.029   6.705  0.4417 -1.1750 -3.2696
   33MOL   H36018344   3.981   7.851   6.587  0.7769  0.8062 -0.2798
   33MOL   H36118345   4.100   7.851   6.718  0.0889 -2.0949  0.1192
   33MOL   H36218346   3.679   7.622   6.842  0.6824 -0.0196 -0.5700
   33MOL   H36318347   3.594   7.545   7.047 -0.1904  0.4315 -1.4346
   33MOL   H36418348   4.006   7.468   7.184  0.6167  0.3400 -0.5213
   33MOL   H36518349   4.084   7.536   6.958  0.2679  1.7006  0.6763
   33MOL   O36618350   3.821   7.378   7.339  0.4433 -0.0608 -0.4755
   33MOL   C36718351   3.793   7.358   7.478 -0.2565  0.6032 -0.3159
   33MOL   C36818352   3.716   7.228   7.502 -0.4759  0.6908 -0.6392
   33MOL   C36918353   3.697   7.208   7.650  0.3746  0.5091 -0.1568
   33MOL   C37018354   3.620   7.085   7.701  0.8440 -0.0692 -0.1456
   33MOL   O37118355   3.479   7.114   7.669 -0.2916  0.3164  0.2558
   33MOL   C37218356   3.386   7.176   7.744 -0.4184 -0.6148  0.1217
   33MOL   O37318357   3.406   7.206   7.862  0.8136 -0.1095 -1.1265
   33MOL   C37418358   3.256   7.202   7.675 -0.5905 -0.2188 -0.4700
   33MOL   C37518359   3.139   7.225   7.749  0.2028 -0.3776 -0.3112
   33MOL   C37618360   3.021   7.263   7.683 -0.1258 -0.3276 -0.9243
   33MOL   C37718361   3.015   7.275   7.541 -0.0254  0.2484  0.0694
   33MOL   C37818362   2.894   7.322   7.467  0.2443  0.1802 -0.6928
   33MOL   O37918363   2.879   7.332   7.340  0.6484  0.3586 -0.5782
   33MOL   C38018364   3.137   7.250   7.471  0.8203  0.9133 -1.0218
   33MOL   C38118365   3.256   7.215   7.533  0.0148  1.2141 -0.3870
   33MOL   H38218366   3.888   7.336   7.528 -0.5391 -0.8910 -0.3945
   33MOL   H38318367   3.746   7.439   7.533  0.3874  0.4362  0.4931
   33MOL   H38418368   3.782   7.148   7.468 -1.5559 -0.3876 -0.2594
   33MOL   H38518369   3.621   7.238   7.451 -0.9187  2.2636  0.4630
   33MOL   H38618370   3.792   7.205   7.702  1.2581 -1.7150 -1.8008
   33MOL   H38718371   3.647   7.295   7.693 -0.6917  0.7355 -1.7960
   33MOL   H38818372   3.637   6.987   7.658 -1.7775 -0.6747  0.0875
   33MOL   H38918373   3.643   7.079   7.807  1.7584 -3.3325 -0.4808
   33MOL   H39018374   3.146   7.224   7.857 -1.7838  3.7519 -0.0479
   33MOL   H39118375   2.935   7.287   7.744 -0.6324 -0.5412 -1.5521
   33MOL   H39218376   3.135   7.269   7.364 -3.9792  0.5042 -1.1455
   33MOL   H39318377   3.337   7.188   7.467 -0.6871  0.9278 -1.1370
   33MOL   O39418378   2.789   7.350   7.552  0.0894  0.3288 -0.2489
   33MOL   C39518379   2.661   7.393   7.493 -0.1080  0.3934 -0.9691
   33MOL   C39618380   2.546   7.338   7.573  0.4267 -0.4583 -0.1420
   33MOL   C39718381   2.409   7.369   7.512  0.3408 -0.1062 -0.0378
   33MOL   C39818382   2.377   7.518   7.504 -0.2928  0.5681 -0.4167
   33MOL   O39918383   2.389   7.572   7.638  0.0895  0.4804 -0.2321
   33MOL   C40018384   2.287   7.657   7.686  0.0739  0.4938  0.2257
   33MOL   O40118385   2.195   7.700   7.623 -0.6489 -0.3601  0.2481
   33MOL   C40218386   2.289   7.676   7.833 -0.0426  0.0496  0.2362
   33MOL   C40318387   2.407   7.659   7.912  0.0838 -0.3727  0.2138
   33MOL   C40418388   2.408   7.687   8.048  0.0837  0.4926  0.4654
   33MOL   C40518389   2.292   7.727   0.013  0.5721 -0.7000 -0.1641
   33MOL   C40618390   2.303   7.766   0.158 -0.3425  0.4516  0.4795
   33MOL   O40718391   2.410   7.772   0.218  0.5029 -0.0269  0.1642
   33MOL   C40818392   2.172   7.742   8.032  0.0637 -0.0065  0.3710
   33MOL   C40918393   2.167   7.710   7.895 -0.0550 -0.0628 -0.6268
   33MOL   H41018394   2.659   7.502   7.501  3.3574  0.5135 -0.7340
   33MOL   H41118395   2.656   7.367   7.387 -3.1148 -1.8720 -0.3126
   33MOL   H41218396   2.539   7.372   7.676  0.1983  1.8919 -0.9064
   33MOL   H41318397   2.551   7.230   7.587 -0.7831 -0.2152  2.4167
   33MOL   H41418398   2.415   7.320   7.415  1.2840 -1.3890  0.6624
   33MOL   H41518399   2.331   7.316   7.566  1.0864 -2.9138 -1.6082
   33MOL   H41618400   2.441   7.570   7.433  0.1390  0.5505 -0.0505
   33MOL   H41718401   2.272   7.514   7.475 -1.2031  0.1723  2.7107
   33MOL   H41818402   2.501   7.625   7.874  0.4294 -0.0084  0.7296
   33MOL   H41918403   2.497   7.675   0.009  2.0983  1.4337 -2.2546
   33MOL   H42018404   2.082   7.782   8.078 -0.6017 -1.4231  0.3145
   33MOL   H42118405   2.073   7.722   7.844 -1.3064  0.3031  1.6942
   33MOL   O42218406   2.184   7.769   0.217  0.8597  0.0677  0.2496
   33MOL   C42318407   2.169   7.793   0.353 -0.3513 -0.7383 -0.4363
   33MOL   C42418408   2.101   7.938   0.378 -0.0236  0.4714  0.2842
   33MOL   C42518409   2.191   8.062   0.366 -0.8849  0.4429 -0.5351
   33MOL   C42618410   2.263   8.097   0.501 -0.7410  0.2091 -0.0646
   33MOL   O42718411   2.358   7.996   0.542 -0.1234  0.2387 -0.7582
   33MOL   C42818412   2.424   8.005   0.657 -0.1141  0.5132 -0.1158
   33MOL   O42918413   2.392   8.086   0.746  0.1176 -0.2035  0.3730
   33MOL   C43018414   2.542   7.913   0.654 -0.0834 -0.3132 -0.5267
   33MOL   C43118415   2.577   7.830   0.545  0.4470  0.4964 -0.4852
   33MOL   C43218416   2.696   7.753   0.542  0.2284 -0.0407  0.8640
   33MOL   C43318417   2.776   7.760   0.655  0.1550  0.4735  0.3897
   33MOL   C43418418   2.913   7.700   0.658  0.0159  0.2159 -0.3890
   33MOL   O43518419   2.988   7.715   0.759 -0.0813 -0.2704  0.5355
   33MOL   C43618420   2.742   7.834   0.769  0.5729 -0.2809 -0.0431
   33MOL   C43718421   2.627   7.918   0.768  0.4595  0.0592  0.1741
   33MOL   H43818422   2.096   7.717   0.378 -1.3207  0.0335 -0.8692
   33MOL   H43918423   2.265   7.783   0.403 -1.4053 -3.3010  1.1803
   33MOL   H44018424   2.036   7.929   0.465  0.3902 -1.4715  0.4017
   33MOL   H44118425   2.028   7.948   0.297 -0.5130 -2.2252  0.3599
   33MOL   H44218426   2.266   8.038   0.291  0.5188  1.3913  0.5296
   33MOL   H44318427   2.144   0.052   0.325 -1.2586 -0.6140 -2.4435
   33MOL   H44418428   2.324   0.088   0.489 -1.9283  0.7736 -2.0458
   33MOL   H44518429   2.194   0.010   0.585 -0.9219  1.5403 -0.3849
   33MOL   H44618430   2.516   7.836   0.456  1.6299 -1.1787 -1.4640
   33MOL   H44718431   2.733   7.702   0.454 -0.5715  1.0696 -0.1414
   33MOL   H44818432   2.807   7.843   0.855  0.1884 -1.2294  0.3653
   33MOL   H44918433   2.601   7.980   0.853 -1.1911  1.5230 -1.3430
   33MOL   O45018434   2.952   7.636   0.551  0.0539  0.5406 -0.0537
   33MOL   C45118435   3.086   7.600   0.521  0.4564  0.2826  0.1389
   33MOL   C45218436   3.093   7.502   0.408  0.2817 -0.6534  1.2056
   33MOL   C45318437   3.062   7.366   0.467 -0.6726  1.0862 -0.1015
   33MOL   C45418438   3.077   7.262   0.351 -0.0130  0.3309 -0.1750
   33MOL   O45518439   3.201   7.255   0.295 -0.4130 -0.9768  0.1338
   33MOL   C45618440   3.229   7.168   0.198 -0.6020 -0.3115 -0.1001
   33MOL   O45718441   3.133   7.103   0.150 -0.1068  0.2033 -0.0821
   33MOL   C45818442   3.369   7.154   0.155  0.0151  0.2157 -0.5166
   33MOL   C45918443   3.471   7.249   0.182 -0.5341 -0.1888  0.2070
   33MOL   C46018444   3.598   7.229   0.129  0.0460 -0.9042 -0.9436
   33MOL   C46118445   3.628   7.124   0.037  0.5669 -0.3097  0.1279
   33MOL   C46218446   3.765   7.107   8.080  0.4900  0.2103 -0.3194
   33MOL   O46318447   3.799   7.004   8.017  0.3351  0.0770  0.4654
   33MOL   C46418448   3.536   7.019   0.026  0.1901 -0.4038  0.8379
   33MOL   C46518449   3.405   7.034   0.077 -0.3597 -0.2659 -0.8486
   33MOL   H46618450   3.131   7.696   0.496 -1.1067  0.8371 -0.5997
   33MOL   H46718451   3.139   7.563   0.609  0.1654 -0.5197 -0.0223
   33MOL   H46818452   3.193   7.507   0.365 -0.2829 -0.2822 -0.0842
   33MOL   H46918453   3.019   7.546   0.341  2.8180  0.7892 -0.7250
   33MOL   H47018454   3.134   7.347   0.545  0.0756  1.7459 -0.6232
   33MOL   H47118455   2.966   7.369   0.519 -0.7680  2.6122 -0.3374
   33MOL   H47218456   3.041   7.166   0.388  0.8717  0.0907  0.0808
   33MOL   H47318457   2.997   7.291   0.283 -0.0984 -1.3092 -0.8040
   33MOL   H47418458   3.466   7.331   0.251 -0.8165  0.1703 -0.2382
   33MOL   H47518459   3.675   7.301   0.151 -0.6034  0.0711 -1.8685
   33MOL   H47618460   3.553   6.926   8.072 -1.5164 -0.0953 -0.3156
   33MOL   H47718461   3.332   6.962   0.043 -1.4028  1.5600 -2.6008
   33MOL   O47818462   3.845   7.216   0.009  0.8238  0.5642 -0.4503
   33MOL   C47918463   3.976   7.212   8.068  0.2148 -0.6656 -0.6335
   33MOL   C48018464   4.070   7.100   0.037  0.6615  0.7577 -0.0044
   33MOL   C48118465   4.111   7.137   0.181  0.0800  0.9213 -0.2906
   33MOL   C48218466   3.995   7.155   0.279  0.7224 -0.1182  0.7938
   33MOL   O48318467   4.047   7.173   0.412  0.3597 -0.3578 -0.4676
   33MOL   C48418468   3.987   7.265   0.495  0.1676 -0.0129  0.1206
   33MOL   O48518469   3.876   7.302   0.465  0.3048 -0.2087  0.1706
   33MOL   C48618470   4.052   7.296   0.630  0.5502  0.3344  0.6141
   33MOL   C48718471   3.991   7.395   0.710  0.3230 -0.1241 -0.2029
   33MOL   C48818472   4.039   7.415   0.845  0.0483 -0.1259  0.2444
   33MOL   C48918473   4.146   7.345   0.901  0.0990 -0.0687 -0.2738
   33MOL   C49018474   4.181   7.383   1.041  0.4762  0.7286  0.2755
   33MOL   O49118475   4.188   7.500   1.081  0.3198 -0.7552  0.2325
   33MOL   C49218476   4.206   7.243   0.817  0.2864  0.2203 -0.1960
   33MOL   C49318477   4.163   7.227   0.684 -0.4910  0.1284  0.6201
   33MOL   H49418478   3.975   7.211   7.959  0.3412  2.9220 -0.7212
   33MOL   H49518479   4.014   7.310   8.095  3.4235 -1.9677 -0.2916
   33MOL   H49618480   4.160   7.088   8.075  0.5683 -2.4851  0.4311
   33MOL   H49718481   4.027   7.000   0.043 -2.1674  1.9409  0.3088
   33MOL   H49818482   4.176   7.060   0.220 -1.1145 -0.2310 -0.5363
   33MOL   H49918483   4.183   7.219   0.175 -0.2619  1.2660  0.2933
   33MOL   H50018484   3.945   7.244   0.240 -0.5807 -0.8365  0.8013
   33MOL   H50118485   3.927   7.070   0.278  0.8440 -0.2298  2.0566
   33MOL   H50218486   3.906   7.456   0.683  0.1697 -0.0674  0.4112
   33MOL   H50318487   3.982   7.485   0.904  2.7085 -0.5249  3.4071
   33MOL   H50418488   4.293   7.193   0.858 -0.2344 -0.7543 -0.2547
   33MOL   H50518489   4.217   7.160   0.619  0.1001  1.1785  0.0122
   33MOL   O50618490   4.209   7.271   1.119  0.4411 -0.2337 -0.1396
   33MOL   C50718491   4.258   7.290   1.250 -0.0483  0.1626 -0.3338
   33MOL   C50818492   4.357   7.174   1.260  0.6856  0.2774 -0.0112
   33MOL   C50918493   4.486   7.212   1.179  0.3242  0.1807  0.1879
   33MOL   C51018494   4.596   7.288   1.261  0.3911  0.4042 -0.2988
   33MOL   O51118495   4.720   7.253   1.193 -0.3189 -0.3527 -0.0353
   33MOL   C51218496   4.825   7.330   1.222  0.3064  0.0172  0.1349
   33MOL   O51318497   4.820   7.427   1.299 -0.3551  0.4491 -0.1298
   33MOL   C51418498   4.944   7.295   1.144 -0.0100  0.3761  0.0928
   33MOL   C51518499   5.039   7.385   1.110  0.6447  0.1315 -0.1428
   33MOL   C51618500   5.153   7.354   1.043  0.2561 -0.0074 -0.3376
   33MOL   C51718501   5.177   7.216   1.015  0.0030  0.3228 -0.1576
   33MOL   C51818502   5.309   7.169   0.955  0.5975 -0.4730  0.0975
   33MOL   O51918503   5.380   7.247   0.894 -0.3909 -0.0003  0.1289
   33MOL   C52018504   5.077   7.119   1.052 -0.2549 -0.0809 -0.0477
   33MOL   C52118505   4.957   7.157   1.115  0.1368  0.1051  0.6540
   33MOL   H52218506   4.288   7.391   1.278  2.4284 -0.9371  1.0737
   33MOL   H52318507   4.172   7.274   1.316 -1.4133 -1.0751 -2.3550
   33MOL   H52418508   4.325   7.078   1.220  1.9551  0.7713 -2.2817
   33MOL   H52518509   4.393   7.149   1.360  0.3821 -0.5512 -0.1061
   33MOL   H52618510   4.526   7.114   1.154  0.1362  0.2028 -0.2110
   33MOL   H52718511   4.457   7.258   1.085 -0.9123 -1.2495 -0.1624
   33MOL   H52818512   4.582   7.396   1.258 -2.1002  0.2431  2.5034
   33MOL   H52918513   4.601   7.249   1.363 -2.3320 -1.9847 -1.0153
   33MOL   H53018514   5.031   7.490   1.134  1.3106  0.2933 -0.5736
   33MOL   H53118515   5.229   7.428   1.022  0.2248  0.9068  2.5804
   33MOL   H53218516   5.090   7.015   1.025 -0.2188  0.0933 -0.6925
   33MOL   H53318517   4.880   7.087   1.144  0.3570 -0.3265  0.2187
   33MOL   O53418518   5.334   7.042   0.978 -0.1386  0.0253  0.2309
   33MOL   C53518519   5.449   6.979   0.938 -0.1025 -0.0901 -0.0528
   33MOL   C53618520   5.559   6.990   1.051 -0.1082 -0.2365 -0.1525
   33MOL   C53718521   5.704   6.950   1.011 -0.3817  0.2203  1.2083
   33MOL   C53818522   5.729   6.988   0.860  0.0925  0.1116  0.3738
   33MOL   O53918523   5.722   7.128   0.856 -0.2611  0.0078 -0.2944
   33MOL   C54018524   5.835   7.201   0.854  0.4505 -0.4203  0.6376
   33MOL   O54118525   5.941   7.163   0.904  0.0422  0.0053  0.7652
   33MOL   C54218526   5.821   7.333   0.790 -0.9735 -0.2488  0.0804
   33MOL   C54318527   5.939   7.411   0.766  0.5369 -0.1837  0.6882
   33MOL   C54418528   5.936   7.536   0.704 -0.5056  0.2893 -0.1776
   33MOL   C54518529   5.812   7.588   0.680  0.8973 -0.1536 -0.3506
   33MOL   C54618530   5.815   7.725   0.622 -0.1757 -0.2243 -0.0935
   33MOL   O54718531   5.716   7.796   0.616  0.1588 -0.0569 -0.5269
   33MOL   C54818532   5.694   7.521   0.714 -0.2091 -0.2426 -0.1090
   33MOL   C54918533   5.696   7.392   0.764  0.0071 -0.5539  0.6405
   33MOL   H55018534   5.430   6.878   0.902  0.6756  0.1663 -1.2029
   33MOL   H55118535   5.491   7.030   0.851 -1.0565  2.0866  0.7079
   33MOL   H55218536   5.527   6.945   1.145 -0.7468 -0.6005 -0.5344
   33MOL   H55318537   5.563   7.095   1.078  0.3925  0.2073 -1.8624
   33MOL   H55418538   5.771   7.010   1.072  2.3461  0.7002 -2.1021
   33MOL   H55518539   5.713   6.844   1.035 -1.8956  0.0644  1.1219
   33MOL   H55618540   5.828   6.959   0.827  0.1082  0.6128 -0.0296
   33MOL   H55718541   5.647   6.954   0.796  0.4760  1.5271 -0.9087
   33MOL   H55818542   6.041   7.378   0.778  1.1660  0.9554 -1.4008
   33MOL   H55918543   6.027   7.590   0.683 -2.8487  4.0890 -0.9414
   33MOL   H56018544   5.600   7.559   0.676 -0.8057 -2.3978 -0.8710
   33MOL   H56118545   5.607   7.333   0.777 -0.9400  0.1279 -2.4630
   33MOL   H56218546   5.915   7.768   0.615  0.5085 -1.2676  2.5399
   34MOL     O118547   3.324   0.478   6.324  0.3262  0.5624  0.0407
   34MOL     C218548   3.398   0.567   6.247 -1.2604 -0.1639 -0.2116
   34MOL     C318549   3.494   0.647   6.339 -0.3559 -0.0564 -0.0522
   34MOL     C418550   3.415   0.723   6.444  0.3069 -0.7417  0.4089
   34MOL     C518551   3.370   0.870   6.412 -0.4737 -0.7841  0.3996
   34MOL     O618552   3.280   0.875   6.306 -0.0407 -0.0493 -0.1186
   34MOL     C718553   3.239   0.996   6.256 -0.1475  0.3275  0.8338
   34MOL     O818554   3.277   1.102   6.300 -0.5824 -0.2115  0.3278
   34MOL     C918555   3.159   0.986   6.136  0.0933 -0.1226  0.2321
   34MOL    C1018556   3.158   1.091   6.039 -0.1482 -0.3189 -0.0999
   34MOL    C1118557   3.089   1.068   5.922  0.3394 -0.7588  0.1176
   34MOL    C1218558   3.022   0.948   5.892  0.8912 -0.2045  0.3923
   34MOL    C1318559   2.952   0.940   5.761  0.8403 -1.2455  0.0949
   34MOL    O1418560   2.957   1.031   5.684 -0.1028 -0.4767  0.4919
   34MOL    C1518561   3.018   0.847   5.991 -0.7534  0.2676 -0.5609
   34MOL    C1618562   3.087   0.867   6.110 -0.6978  0.2982 -0.3328
   34MOL    H1718563   3.468   0.513   6.183 -0.6689 -1.0525  1.1483
   34MOL    H1818564   3.338   0.623   6.176  0.4502  0.3041 -1.3025
   34MOL    H1918565   3.562   0.697   6.270  0.1601 -1.8427 -0.8557
   34MOL    H2018566   3.565   0.585   6.395  1.8623  0.9054 -1.7482
   34MOL    H2118567   3.327   0.666   6.475  0.9296 -1.5239  0.7600
   34MOL    H2218568   3.480   0.732   6.531 -0.5611  3.7145  0.7116
   34MOL    H2318569   3.342   0.932   6.498 -1.0463  0.6257 -0.7789
   34MOL    H2418570   3.460   0.917   6.372 -2.0422  2.7187  0.8333
   34MOL    H2518571   3.221   1.175   6.064 -1.3284  0.0070  1.8824
   34MOL    H2618572   3.104   1.147   5.850 -0.3245 -1.7507 -1.1213
   34MOL    H2718573   2.953   0.762   5.973 -1.4057  0.3575  1.3136
   34MOL    H2818574   3.072   0.801   6.194  2.3722 -1.7527 -1.3053
   34MOL    H2918575   3.282   0.539   6.383 -0.5484 -0.2305  0.2401
   34MOL    O3018576   2.886   0.819   5.740 -0.2737  0.2234  0.4306
   34MOL    C3118577   2.845   0.793   5.606  0.2569 -0.4411  0.4064
   34MOL    C3218578   2.755   0.674   5.625  0.4654  1.0011  0.4314
   34MOL    C3318579   2.819   0.547   5.672  0.0344 -0.4615 -0.6383
   34MOL    C3418580   2.701   0.450   5.692 -0.3664  0.4665  0.1307
   34MOL    O3518581   2.758   0.330   5.658  0.2696 -0.0257 -0.4371
   34MOL    C3618582   2.670   0.225   5.641 -0.6920 -0.2639 -0.2875
   34MOL    O3718583   2.549   0.239   5.654 -0.2217  0.0098 -0.1427
   34MOL    C3818584   2.740   0.105   5.605 -0.2902  0.5429  0.9648
   34MOL    C3918585   2.673   8.093   5.546  0.6519 -0.2091  0.1995
   34MOL    C4018586   2.738   7.969   5.522 -0.2753 -0.0411 -0.6321
   34MOL    C4118587   2.869   7.951   5.566  0.3665  0.2746  0.1587
   34MOL    C4218588   2.938   7.828   5.527  0.5545 -0.0893  0.1042
   34MOL    O4318589   2.891   7.747   5.445 -0.3464 -0.1790 -0.2159
   34MOL    C4418590   2.939   8.064   5.616 -0.1786 -0.5630 -1.0129
   34MOL    C4518591   2.876   0.093   5.626  0.1770  0.6555  0.5534
   34MOL    H4618592   2.798   0.883   5.567 -0.0225 -0.7851 -0.0477
   34MOL    H4718593   2.927   0.782   5.535 -2.0233  0.9642 -2.5744
   34MOL    H4818594   2.715   0.659   5.525 -0.8374 -0.8703  1.2140
   34MOL    H4918595   2.667   0.705   5.681 -0.4904 -1.2595  0.2268
   34MOL    H5018596   2.887   0.516   5.592  1.3253  0.6037  0.0306
   34MOL    H5118597   2.880   0.549   5.762 -1.2704  2.2803  0.2251
   34MOL    H5218598   2.674   0.456   5.797 -2.3366 -3.6928  0.0012
   34MOL    H5318599   2.620   0.478   5.624 -0.4711  0.3982  0.2250
   34MOL    H5418600   2.568   8.097   5.519  1.2768  0.0487 -2.3115
   34MOL    H5518601   2.681   7.888   5.479 -1.3062 -0.6851  1.8896
   34MOL    H5618602   3.042   8.063   5.645 -0.1473 -0.1418 -1.1074
   34MOL    H5718603   2.930   0.172   5.676  0.7915 -0.5410  1.7857
   34MOL    O5818604   3.051   7.811   5.588 -0.5428 -0.0354 -0.2693
   34MOL    C5918605   3.128   7.693   5.568  0.7728 -0.2526 -0.0361
   34MOL    C6018606   3.244   7.699   5.661 -0.0809  0.0706 -0.2059
   34MOL    C6118607   3.347   7.590   5.653  0.3221 -0.0035 -0.3521
   34MOL    C6218608   3.298   7.459   5.720 -0.2167  0.2022  0.0098
   34MOL    O6318609   3.314   7.456   5.865 -0.3160 -0.4572  0.1739
   34MOL    C6418610   3.358   7.341   5.929  0.1812  0.5058  0.6860
   34MOL    O6518611   3.383   7.234   5.869 -0.7241  0.1243 -0.1235
   34MOL    C6618612   3.388   7.360   6.073  0.3824 -1.2555 -0.0684
   34MOL    C6718613   3.368   7.483   6.133 -0.6860  0.3820  0.0549
   34MOL    C6818614   3.384   7.507   6.269  0.5000 -0.1044 -0.0329
   34MOL    C6918615   3.448   7.402   6.342  0.4233 -0.1310  0.1506
   34MOL    C7018616   3.472   7.415   6.487  0.8661  0.6471 -0.0421
   34MOL    O7118617   3.446   7.518   6.551  0.2357  0.2201 -1.0788
   34MOL    C7218618   3.472   7.271   6.280 -0.1134  0.1200  0.1039
   34MOL    C7318619   3.441   7.254   6.145  0.8857 -0.4306  0.6103
   34MOL    H7418620   3.064   7.608   5.594 -0.2003  1.1545  2.2686
   34MOL    H7518621   3.166   7.695   5.466  2.3943  0.3459  0.5629
   34MOL    H7618622   3.210   7.714   5.763  1.2073 -0.2184  0.2820
   34MOL    H7718623   3.304   7.784   5.628  0.8705 -0.3933  0.3031
   34MOL    H7818624   3.354   7.566   5.547  1.3891 -2.1983  0.1715
   34MOL    H7918625   3.446   7.617   5.691 -0.7124 -0.5532  2.8928
   34MOL    H8018626   3.194   7.449   5.692 -0.0902  2.7217 -1.4976
   34MOL    H8118627   3.358   7.383   5.669  0.5480  3.7877 -4.8116
   34MOL    H8218628   3.347   7.578   6.085  1.0053  1.0919  0.6538
   34MOL    H8318629   3.351   7.598   6.318 -1.1979 -1.5092  1.5119
   34MOL    H8418630   3.510   7.182   6.328  1.1530 -0.2465 -1.5416
   34MOL    H8518631   3.447   7.157   6.098 -2.2971 -1.1197  1.5202
   34MOL    O8618632   3.524   7.302   6.539  0.2661  0.1588  0.1221
   34MOL    C8718633   3.571   7.301   6.666  0.1256 -0.2249 -0.7927
   34MOL    C8818634   3.713   7.355   6.681  0.2700  0.3449  0.0161
   34MOL    C8918635   3.812   7.271   6.589 -0.4893 -0.9240  0.2397
   34MOL    C9018636   3.959   7.294   6.617 -0.4403  0.9106  0.0315
   34MOL    O9118637   4.001   7.251   6.749 -0.1376 -0.0895 -0.1992
   34MOL    C9218638   4.131   7.261   6.792 -0.0215  0.4270 -0.2780
   34MOL    O9318639   4.221   7.285   6.714 -0.0412  0.2804 -0.1823
   34MOL    C9418640   4.154   7.246   6.938 -0.0651  0.1244 -0.1036
   34MOL    C9518641   4.063   7.187   7.026 -0.0019  0.4135  0.1782
   34MOL    C9618642   4.086   7.168   7.164  0.1404  0.3958  0.5657
   34MOL    C9718643   4.211   7.211   7.208 -0.7541 -0.4098  0.4159
   34MOL    C9818644   4.246   7.195   7.353 -0.0631  0.0516 -0.3944
   34MOL    O9918645   4.184   7.110   7.426 -0.5018  0.4492 -0.0150
   34MOL   C10018646   4.308   7.278   7.124  0.1056 -0.4266 -0.1081
   34MOL   C10118647   4.281   7.280   6.985  0.4254  0.5148  0.8703
   34MOL   H10218648   3.504   7.353   6.734 -0.6301 -2.2969  0.0751
   34MOL   H10318649   3.569   7.198   6.703 -0.8753 -0.4976 -1.5782
   34MOL   H10418650   3.736   7.350   6.787  0.4952  0.7693 -0.0116
   34MOL   H10518651   3.710   7.459   6.649 -0.0229  0.2121 -0.3990
   34MOL   H10618652   3.795   7.163   6.597  1.8587 -1.5435 -2.5104
   34MOL   H10718653   3.783   7.286   6.485 -0.1043  1.6642  0.4883
   34MOL   H10818654   4.022   7.237   6.549  0.2831  1.1172  0.5212
   34MOL   H10918655   3.984   7.400   6.621 -1.2285  1.1869 -1.8265
   34MOL   H11018656   3.965   7.167   6.983 -0.5138 -0.1944  1.5864
   34MOL   H11118657   4.016   7.125   7.233 -0.1818  3.5169  2.2630
   34MOL   H11218658   4.399   7.316   7.166 -0.5582  0.9848  0.0733
   34MOL   H11318659   4.358   7.318   6.921  0.7700 -0.2190  0.8401
   34MOL   O11418660   4.333   7.287   7.404  0.2301  0.4699 -0.3086
   34MOL   C11518661   4.364   7.279   7.540  0.1708 -0.0777 -0.8019
   34MOL   C11618662   4.476   7.180   7.577  0.2827 -0.3927 -0.1882
   34MOL   C11718663   4.603   7.198   7.491 -0.1718 -0.6030 -0.1847
   34MOL   C11818664   4.732   7.129   7.534 -0.2143 -0.0673  0.5131
   34MOL   O11918665   4.778   7.187   7.650  0.0446 -0.5047 -0.5867
   34MOL   C12018666   4.800   7.112   7.761  0.3178 -0.3506  0.1916
   34MOL   O12118667   4.775   6.994   7.762  0.1569  0.6795  0.2266
   34MOL   C12218668   4.865   7.186   7.872 -0.0495 -0.0623 -0.2468
   34MOL   C12318669   4.922   7.318   7.858 -0.5197 -0.7019  0.2762
   34MOL   C12418670   4.977   7.389   7.968 -0.0379  0.4316  0.0574
   34MOL   C12518671   4.994   7.320   8.086 -0.0310 -0.5682  0.4879
   34MOL   C12618672   5.072   7.385   0.103 -0.1149  0.4982 -0.0677
   34MOL   O12718673   5.123   7.495   0.109 -0.8309 -0.0275 -0.0991
   34MOL   C12818674   4.946   7.190   0.001  0.4270  0.5180  0.2133
   34MOL   C12918675   4.874   7.127   7.994 -0.0803  0.5682  0.6564
   34MOL   H13018676   4.392   7.378   7.576 -0.0574  1.1226 -3.7748
   34MOL   H13118677   4.276   7.255   7.600  0.0805  0.8444 -0.5631
   34MOL   H13218678   4.435   7.080   7.583  0.4127 -0.5625 -1.7574
   34MOL   H13318679   4.514   7.206   7.676 -0.3749  2.0317 -0.5272
   34MOL   H13418680   4.586   7.168   7.387 -2.1919 -0.3003  0.0498
   34MOL   H13518681   4.629   7.304   7.489  1.2260 -0.9357 -0.6662
   34MOL   H13618682   4.690   7.031   7.554  0.9294 -0.6938 -0.1323
   34MOL   H13718683   4.818   7.124   7.467  1.3831 -0.3258  2.5252
   34MOL   H13818684   4.931   7.358   7.758  0.7296 -1.3491  0.1197
   34MOL   H13918685   5.003   7.493   7.958 -1.6049  0.6759 -1.8287
   34MOL   H14018686   4.954   7.124   0.086 -0.4774 -1.6496 -1.3218
   34MOL   H14118687   4.840   7.026   8.007  0.8607 -0.3354 -3.2073
   34MOL   O14218688   5.091   7.291   0.206 -0.1572 -0.3696 -0.5601
   34MOL   C14318689   5.190   7.314   0.303 -0.7660  0.0154 -0.2381
   34MOL   C14418690   5.182   7.206   0.408  0.7989  0.2329  0.7055
   34MOL   C14518691   5.291   7.206   0.516  0.4689  0.6704  0.2696
   34MOL   C14618692   5.265   7.099   0.622 -0.4780  0.0886  0.1176
   34MOL   O14718693   5.278   6.976   0.558  1.0084  0.4798  0.6908
   34MOL   C14818694   5.235   6.862   0.617 -0.4231 -0.0955 -0.1246
   34MOL   O14918695   5.199   6.857   0.740  0.3872  0.5149 -0.3739
   34MOL   C15018696   5.219   6.742   0.534  1.0202 -0.5722  0.4343
   34MOL   C15118697   5.180   6.623   0.590  0.0504  0.3348  0.0114
   34MOL   C15218698   5.152   6.506   0.516  0.7400 -0.7518 -1.1552
   34MOL   C15318699   5.167   6.511   0.377  0.7758 -0.2394 -0.5969
   34MOL   C15418700   5.135   6.396   0.292  0.7611  0.5429  0.3382
   34MOL   O15518701   5.133   6.392   0.167 -0.6544 -0.2866 -0.2927
   34MOL   C15618702   5.199   6.633   0.319 -0.2156 -0.0400  0.0059
   34MOL   C15718703   5.237   6.742   0.398  0.6589 -0.2213  0.5065
   34MOL   H15818704   5.286   7.303   0.253 -0.6332 -0.4272  0.1078
   34MOL   H15918705   5.184   7.411   0.353  2.1306 -0.4213  1.0264
   34MOL   H16018706   5.170   7.111   0.355  1.1956  0.8053 -0.4367
   34MOL   H16118707   5.082   7.223   0.449  1.8030  2.0591  2.4566
   34MOL   H16218708   5.390   7.201   0.470 -0.2530  1.7597 -1.4458
   34MOL   H16318709   5.284   7.298   0.572 -0.5772  0.5994  0.2646
   34MOL   H16418710   5.338   7.108   0.703 -2.7464  2.0688  1.9897
   34MOL   H16518711   5.173   7.119   0.675 -0.5826  0.0333 -0.0419
   34MOL   H16618712   5.160   6.622   0.696 -0.9121 -1.5029 -0.1737
   34MOL   H16718713   5.130   6.415   0.570 -2.1026  0.2998 -0.4629
   34MOL   H16818714   5.201   6.633   0.211 -1.5900 -0.7236 -0.0216
   34MOL   H16918715   5.277   6.820   0.335  0.3092 -1.5278 -1.3706
   34MOL   O17018716   5.087   6.287   0.366 -0.3459  0.2551 -0.3148
   34MOL   C17118717   5.033   6.170   0.309  0.3432 -0.1659  0.0579
   34MOL   C17218718   4.927   6.115   0.416 -0.1166  0.0660  0.2413
   34MOL   C17318719   4.814   6.215   0.438  0.3580 -0.2488  0.0867
   34MOL   C17418720   4.691   6.155   0.502  0.4555 -0.5427 -0.0561
   34MOL   O17518721   4.720   6.102   0.618  0.3773  0.0933 -0.3924
   34MOL   C17618722   4.626   6.073   0.706 -0.5109  0.1313 -0.2526
   34MOL   O17718723   4.506   6.093   0.686  0.1684 -0.0058  0.5021
   34MOL   C17818724   4.683   6.011   0.826 -0.5430 -0.1552  0.8164
   34MOL   C17918725   4.826   5.978   0.839  0.0046 -0.2925  0.1355
   34MOL   C18018726   4.873   5.922   0.962  0.0391  0.5306 -0.0834
   34MOL   C18118727   4.780   5.883   1.065  0.4639  0.4479  0.5701
   34MOL   C18218728   4.822   5.803   1.179 -0.9434  0.4714 -0.0387
   34MOL   O18318729   4.942   5.773   1.193  0.3121  0.4668  0.0522
   34MOL   C18418730   4.640   5.904   1.046  0.2414  0.2106 -0.1889
   34MOL   C18518731   4.596   5.972   0.928 -1.1599  0.4615 -0.2331
   34MOL   H18618732   4.973   6.206   0.226 -3.5892 -1.1356  2.3425
   34MOL   H18718733   5.098   6.095   0.264  0.6120 -0.5173  1.0159
   34MOL   H18818734   4.970   6.098   0.514 -1.1956 -0.9577  0.5453
   34MOL   H18918735   4.888   6.016   0.396 -2.9630  1.4852 -1.5268
   34MOL   H19018736   4.846   6.293   0.507 -0.7617 -0.5986  1.0204
   34MOL   H19118737   4.790   6.282   0.355  2.0385  1.7233  1.1576
   34MOL   H19218738   4.630   6.245   0.516  2.0189  0.6373 -0.6788
   34MOL   H19318739   4.636   6.087   0.437  2.8920 -0.5588 -2.1947
   34MOL   H19418740   4.890   6.005   0.757 -0.5197  1.2899  0.2190
   34MOL   H19518741   4.977   5.895   0.972  0.1440 -1.0647 -4.2079
   34MOL   H19618742   4.572   5.871   1.123 -0.6640  2.5304  0.0437
   34MOL   H19718743   4.492   5.999   0.918 -0.3180  3.1055 -2.3637
   34MOL   O19818744   4.732   5.777   1.276  0.1198  0.3265 -0.1942
   34MOL   C19918745   4.761   5.695   1.380  0.3282 -0.3285  0.1124
   34MOL   C20018746   4.631   5.613   1.428 -0.3933 -0.1235 -0.2334
   34MOL   C20118747   4.597   5.485   1.346 -0.2117 -1.0881  0.0580
   34MOL   C20218748   4.442   5.461   1.339  0.6082 -0.3130  0.0745
   34MOL   O20318749   4.376   5.565   1.270  0.0122 -0.4517 -0.2943
   34MOL   C20418750   4.379   5.561   1.137 -1.0844  0.5110 -0.2123
   34MOL   O20518751   4.430   5.468   1.076 -0.2461  0.5216 -0.2493
   34MOL   C20618752   4.325   5.683   1.070 -0.2111 -0.4672  0.3092
   34MOL   C20718753   4.330   5.690   0.929 -0.1614  0.0146 -0.2798
   34MOL   C20818754   4.293   5.815   0.870  0.0796  0.4515 -0.0634
   34MOL   C20918755   4.250   5.921   0.947 -0.6146  0.1151 -0.4357
   34MOL   C21018756   4.214   6.053   0.885 -0.1255 -0.0209  0.0188
   34MOL   O21118757   4.221   6.151   0.950 -0.6150  0.2050  0.0538
   34MOL   C21218758   4.237   5.904   1.081  0.4248 -0.7677  0.1492
   34MOL   C21318759   4.271   5.788   1.142 -1.0568  0.2139 -0.3034
   34MOL   H21418760   4.845   5.632   1.355 -1.1732 -2.5405  0.5110
   34MOL   H21518761   4.787   5.763   1.462  1.6598  0.7114 -1.1490
   34MOL   H21618762   4.541   5.675   1.425  1.1139  2.1289 -0.3386
   34MOL   H21718763   4.646   5.576   1.529  2.4812 -0.4168 -0.7346
   34MOL   H21818764   4.636   5.519   1.250  0.5269  2.1296  1.4479
   34MOL   H21918765   4.648   5.396   1.384 -1.0973 -2.1067 -1.0759
   34MOL   H22018766   4.431   5.359   1.300  1.4328 -0.9597  1.4947
   34MOL   H22118767   4.405   5.463   1.441 -0.3290 -0.0825 -0.2690
   34MOL   H22218768   4.369   5.607   0.871 -0.5625 -0.7701  0.5598
   34MOL   H22318769   4.300   5.821   0.762  0.9716 -0.1853 -0.0459
   34MOL   H22418770   4.202   5.980   1.148  0.8405  0.7188 -1.2981
   34MOL   H22518771   4.269   5.781   1.250  2.9034  0.2151 -0.1604
   34MOL   O22618772   4.202   6.050   0.747 -0.4330  0.2437  0.4460
   34MOL   C22718773   4.199   6.168   0.678 -0.1914 -0.1380  0.3437
   34MOL   C22818774   4.183   6.137   0.530 -0.2862  0.4784 -0.3666
   34MOL   C22918775   4.047   6.073   0.506  0.9048  0.2791  0.0267
   34MOL   C23018776   3.994   6.029   0.368  0.3701  0.4060 -0.6662
   34MOL   O23118777   4.036   6.124   0.279  0.1475  0.0312  0.5687
   34MOL   C23218778   3.986   6.118   0.156 -0.1006 -0.1376  0.1574
   34MOL   O23318779   3.889   6.046   0.121  0.5384  0.7218  0.2642
   34MOL   C23418780   4.055   6.207   0.059 -1.0476  0.1667  0.4552
   34MOL   C23518781   3.989   6.230   8.032 -0.1248 -0.2207  0.1915
   34MOL   C23618782   4.045   6.321   7.943 -0.1523  0.2585 -0.3111
   34MOL   C23718783   4.169   6.384   7.966 -0.4128 -0.6583  0.8239
   34MOL   C23818784   4.210   6.475   7.860 -0.2689 -0.1595 -1.0148
   34MOL   O23918785   4.140   6.513   7.769 -0.0610  0.4637  0.3644
   34MOL   C24018786   4.240   6.360   8.083  0.3142 -0.1138  0.0606
   34MOL   C24118787   4.181   6.271   0.082  0.2198 -0.7200  0.0954
   34MOL   H24218788   4.120   6.237   0.705 -0.9520 -0.3538 -1.2656
   34MOL   H24318789   4.297   6.214   0.694  1.4894 -2.6927 -2.1248
   34MOL   H24418790   4.260   6.072   0.490 -0.5139  0.1542 -0.2864
   34MOL   H24518791   4.187   6.233   0.479 -3.8404  1.9191  1.8756
   34MOL   H24618792   4.036   5.983   0.566  0.0528 -0.8773 -1.8019
   34MOL   H24718793   3.972   6.145   0.539  0.3494 -1.1927  2.0931
   34MOL   H24818794   4.029   5.929   0.343 -0.4891 -0.0013 -0.2731
   34MOL   H24918795   3.885   6.022   0.358  0.4738  0.7176 -2.1142
   34MOL   H25018796   3.901   6.175   8.003 -1.4133  1.9992 -0.2149
   34MOL   H25118797   3.990   6.329   7.850 -1.3560 -2.1669  0.1581
   34MOL   H25218798   4.338   6.394   0.013 -1.3703  3.2863  2.0810
   34MOL   H25318799   4.217   6.242   0.179 -0.1070 -0.6858  0.2283
   34MOL   O25418800   4.338   6.516   7.872  0.6220 -0.4008 -0.0669
   34MOL   C25518801   4.405   6.578   7.758  0.7841 -0.3066 -0.2859
   34MOL   C25618802   4.542   6.631   7.802  0.5445  0.1722 -0.7362
   34MOL   C25718803   4.617   6.692   7.690  0.0126  0.2278 -0.1423
   34MOL   C25818804   4.686   6.592   7.599 -0.2681  0.9118  0.0944
   34MOL   O25918805   4.723   6.655   7.481 -0.8007 -0.2652 -0.1025
   34MOL   C26018806   4.771   6.590   7.383  0.2746  0.6233 -0.2078
   34MOL   O26118807   4.768   6.468   7.373 -0.2883  0.0947  0.3682
   34MOL   C26218808   4.781   6.674   7.264  0.0299  0.3368  0.2902
   34MOL   C26318809   4.803   6.613   7.140  0.1958 -0.0582 -0.7171
   34MOL   C26418810   4.791   6.687   7.023 -0.1499  0.5436  0.2794
   34MOL   C26518811   4.770   6.824   7.025 -0.3862  0.0194  0.0367
   34MOL   C26618812   4.772   6.898   6.895  0.3356 -0.1510  0.7179
   34MOL   O26718813   4.772   7.021   6.889 -0.6770  0.0279  0.2213
   34MOL   C26818814   4.756   6.889   7.148 -0.1215 -0.3751  0.8276
   34MOL   C26918815   4.763   6.814   7.266 -0.1829 -0.3687  0.1942
   34MOL   H27018816   4.418   6.515   7.670  0.9237  0.6058 -0.9271
   34MOL   H27118817   4.351   6.667   7.727  1.1706 -0.3849 -1.1944
   34MOL   H27218818   4.596   6.546   7.842  0.7746  0.3485 -0.6683
   34MOL   H27318819   4.534   6.714   7.873  0.0890  0.0543 -0.6439
   34MOL   H27418820   4.550   6.754   7.629 -2.7204 -3.4197 -1.0301
   34MOL   H27518821   4.705   6.745   7.727  0.6554 -1.7923  1.2581
   34MOL   H27618822   4.771   6.549   7.650  0.9074  1.1848 -1.5812
   34MOL   H27718823   4.619   6.509   7.575 -1.9678  2.5760 -1.0551
   34MOL   H27818824   4.805   6.505   7.137  0.3460 -0.0675 -0.3039
   34MOL   H27918825   4.807   6.638   6.928 -0.0175  1.5517 -0.2315
   34MOL   H28018826   4.724   6.992   7.154 -1.0859 -0.5433 -1.0563
   34MOL   H28118827   4.764   6.862   7.363  2.6700  1.6537 -0.7594
   34MOL   O28218828   4.739   6.821   6.780  0.4437 -0.1471 -0.3907
   34MOL   C28318829   4.733   6.878   6.650  0.3913 -0.0863  0.7561
   34MOL   C28418830   4.584   6.920   6.618 -1.0104 -0.0377  0.3258
   34MOL   C28518831   4.583   7.002   6.485 -0.8261 -0.3305 -0.0049
   34MOL   C28618832   4.622   6.917   6.362  0.7323  0.5282 -0.0772
   34MOL   O28718833   4.514   6.831   6.329  0.4322 -0.3371  0.5150
   34MOL   C28818834   4.511   6.761   6.216  0.5217 -0.4598  0.1569
   34MOL   O28918835   4.598   6.755   6.134  0.2766 -0.1857 -0.0672
   34MOL   C29018836   4.378   6.681   6.208 -0.0665 -0.0059  1.2105
   34MOL   C29118837   4.280   6.694   6.307 -0.1217  0.2092 -0.6318
   34MOL   C29218838   4.149   6.647   6.284  0.5019  0.4539 -0.1835
   34MOL   C29318839   4.115   6.571   6.173  0.3546 -0.5026  0.2293
   34MOL   C29418840   3.981   6.520   6.152  0.5515 -0.3349 -0.5112
   34MOL   O29518841   3.900   6.494   6.243  0.5494 -0.4132  0.3651
   34MOL   C29618842   4.222   6.542   6.075  0.2886  0.2392 -0.0747
   34MOL   C29718843   4.352   6.599   6.094 -0.7340  0.3213 -0.7525
   34MOL   H29818844   4.800   6.964   6.638 -0.4436  0.3807 -0.7180
   34MOL   H29918845   4.771   6.808   6.576 -0.7697  0.3095 -0.2302
   34MOL   H30018846   4.545   6.978   6.701  0.1381 -0.5597  1.2502
   34MOL   H30118847   4.523   6.830   6.606  1.7346 -1.9309  0.1630
   34MOL   H30218848   4.482   7.037   6.465 -0.6010 -0.2422 -0.9902
   34MOL   H30318849   4.650   7.087   6.496 -0.0605 -1.0157  0.7112
   34MOL   H30418850   4.632   6.977   6.272 -4.4524  0.7374 -0.7028
   34MOL   H30518851   4.716   6.862   6.367  1.3202  1.4780 -0.5888
   34MOL   H30618852   4.310   6.757   6.390 -0.1144 -1.3767  0.5951
   34MOL   H30718853   4.070   6.669   6.354  1.6906  0.3285  1.2211
   34MOL   H30818854   4.202   6.490   5.983  2.5252 -1.1304  0.1679
   34MOL   H30918855   4.423   6.601   6.013 -1.0208  0.5644 -0.9997
   34MOL   O31018856   3.948   6.523   6.026  0.2136 -0.0111  0.8162
   34MOL   C31118857   3.812   6.509   5.984  0.1448  0.3426  0.1491
   34MOL   C31218858   3.800   6.481   5.831  0.6828 -0.1423  0.6115
   34MOL   C31318859   3.669   6.424   5.768  0.4640 -0.0372  0.4173
   34MOL   C31418860   3.549   6.505   5.803 -0.2397 -0.3521 -0.0291
   34MOL   O31518861   3.503   6.454   5.933  0.1743  0.7879 -0.5449
   34MOL   C31618862   3.385   6.498   5.985 -0.5972 -0.1456  0.5590
   34MOL   O31718863   3.296   6.544   5.917 -0.2377  0.0318 -0.5249
   34MOL   C31818864   3.382   6.493   6.133 -0.2171  0.3435 -0.0245
   34MOL   C31918865   3.497   6.494   6.211  0.0278 -0.1045  0.2190
   34MOL   C32018866   3.490   6.499   6.353  0.6645 -0.1014  0.4845
   34MOL   C32118867   3.365   6.496   6.416 -0.2824  0.1518 -0.3581
   34MOL   C32218868   3.362   6.498   6.562 -0.1990 -0.5578 -0.5483
   34MOL   O32318869   3.443   6.441   6.628 -0.1060 -0.3785  0.2910
   34MOL   C32418870   3.249   6.492   6.334  0.3921 -0.2804  0.1839
   34MOL   C32518871   3.258   6.495   6.194  0.8587  0.8724  0.4995
   34MOL   H32618872   3.748   6.433   6.030  0.5906 -0.9566 -1.3151
   34MOL   H32718873   3.755   6.598   6.008  0.5219  0.1252  1.8898
   34MOL   H32818874   3.872   6.402   5.809 -1.4903 -1.6719 -1.4554
   34MOL   H32918875   3.805   6.568   5.766 -1.4691 -0.2621  0.2335
   34MOL   H33018876   3.683   6.417   5.660 -0.2744  1.2493  0.2198
   34MOL   H33118877   3.661   6.323   5.808 -0.6261  0.8309  2.4844
   34MOL   H33218878   3.577   6.610   5.800  0.5991 -0.5663  0.1278
   34MOL   H33318879   3.468   6.497   5.730 -2.4591  0.2836  2.2888
   34MOL   H33418880   3.594   6.500   6.166 -2.1958  0.4386 -4.7956
   34MOL   H33518881   3.580   6.495   6.413 -1.0954  1.6835  3.3433
   34MOL   H33618882   3.152   6.489   6.381 -0.0256 -0.3144 -0.6660
   34MOL   H33718883   3.164   6.501   6.140 -0.4236 -1.8739  2.2832
   34MOL   O33818884   3.258   6.565   6.609 -0.1807 -0.1971 -0.3150
   34MOL   C33918885   3.238   6.596   6.744 -0.2082 -0.0003 -0.2363
   34MOL   C34018886   3.299   6.735   6.760  0.2769 -0.2554 -0.7117
   34MOL   C34118887   3.285   6.809   6.893 -0.2125 -0.3123 -1.4101
   34MOL   C34218888   3.318   6.721   7.017 -0.4489 -0.3314  0.0989
   34MOL   O34318889   3.457   6.680   7.018  0.1636  0.3918  0.0798
   34MOL   C34418890   3.500   6.579   7.103  0.2762  0.6548 -0.4759
   34MOL   O34518891   3.431   6.527   7.194 -0.4902 -0.1839 -0.0027
   34MOL   C34618892   3.643   6.547   7.071 -0.3652  0.7914 -0.2555
   34MOL   C34718893   3.717   6.602   6.960  0.7445 -0.0904 -0.0821
   34MOL   C34818894   3.841   6.552   6.923  0.0742 -0.3768 -0.4616
   34MOL   C34918895   3.902   6.450   6.991 -0.0775  0.5424 -0.3855
   34MOL   C35018896   4.029   6.391   6.947 -0.2369 -0.2934  0.1274
   34MOL   O35118897   4.094   6.316   7.016  0.4446  0.1062  0.8003
   34MOL   C35218898   3.839   6.399   7.107  0.0985 -0.3620 -0.2367
   34MOL   C35318899   3.713   6.447   7.150 -0.3520 -0.1632  0.7647
   34MOL   H35418900   3.131   6.589   6.765 -0.4186 -0.9219 -1.6027
   34MOL   H35518901   3.287   6.522   6.807  0.5839  1.0786  0.4236
   34MOL   H35618902   3.254   6.798   6.684 -0.3950  0.5822  0.3734
   34MOL   H35718903   3.406   6.731   6.743  0.5381  2.9316  0.0088
   34MOL   H35818904   3.348   6.898   6.898  0.7091 -1.0661  0.9631
   34MOL   H35918905   3.180   6.839   6.893  0.0196  0.5129 -1.6648
   34MOL   H36018906   3.294   6.778   7.106  3.9406 -1.8371  2.3885
   34MOL   H36118907   3.250   6.636   7.021  3.2020 -3.2749  3.7594
   34MOL   H36218908   3.656   6.681   6.917 -0.0062  0.1930  1.4343
   34MOL   H36318909   3.899   6.597   6.844 -0.5357 -1.2967 -1.4412
   34MOL   H36418910   3.883   6.325   7.172  1.7077  0.6469 -0.1501
   34MOL   H36518911   3.655   6.395   7.225 -0.6128  1.4532  1.7313
   34MOL   O36618912   4.061   6.426   6.820  0.5603  0.4221  0.3993
   34MOL   C36718913   4.173   6.376   6.757  0.3111 -0.0298  0.3989
   34MOL   C36818914   4.157   6.376   6.604 -0.2797  0.2314  0.4470
   34MOL   C36918915   4.281   6.329   6.528 -0.0375 -0.2953 -0.0030
   34MOL   C37018916   4.251   6.303   6.379  0.1632  0.3791 -0.0071
   34MOL   O37118917   4.174   6.182   6.358 -0.2526  0.3416  0.5788
   34MOL   C37218918   4.216   6.060   6.392 -0.9351 -0.1253  0.0670
   34MOL   O37318919   4.334   6.039   6.413 -0.1960 -0.1310 -0.1772
   34MOL   C37418920   4.110   5.949   6.405 -0.2368 -0.6447  0.4877
   34MOL   C37518921   3.968   5.978   6.390  0.0891 -0.3194 -1.0823
   34MOL   C37618922   3.872   5.878   6.395 -0.2283 -1.1761  0.7014
   34MOL   C37718923   3.909   5.741   6.392  0.3489 -0.5845  0.4071
   34MOL   C37818924   3.806   5.636   6.372  0.1129  0.5545  0.2536
   34MOL   O37918925   3.691   5.663   6.331 -0.1364  0.6034 -0.5930
   34MOL   C38018926   4.041   5.708   6.429 -0.1338  0.0788 -0.5905
   34MOL   C38118927   4.145   5.810   6.420  0.2246  0.6381  0.5304
   34MOL   H38218928   4.254   6.443   6.783  1.5740 -0.3420 -2.6697
   34MOL   H38318929   4.197   6.274   6.788 -0.6601 -0.4208 -0.1019
   34MOL   H38418930   4.136   6.478   6.570 -2.1375 -0.7929 -1.6496
   34MOL   H38518931   4.079   6.312   6.563  0.1290 -0.3089  0.5104
   34MOL   H38618932   4.362   6.398   6.555 -0.8079  1.0462 -1.0411
   34MOL   H38718933   4.318   6.239   6.577 -0.4051 -0.2515  0.3576
   34MOL   H38818934   4.195   6.384   6.333  0.3240  0.3336 -0.2824
   34MOL   H38918935   4.340   6.294   6.316 -0.3875 -1.7541 -0.5215
   34MOL   H39018936   3.938   6.081   6.388  0.2201 -0.2274  0.8173
   34MOL   H39118937   3.769   5.912   6.396  0.5488  1.2606  1.2117
   34MOL   H39218938   4.072   5.608   6.458 -0.9337 -0.3980 -1.3503
   34MOL   H39318939   4.248   5.783   6.439  0.4544  0.3112 -1.0618
   34MOL   O39418940   3.853   5.513   6.401 -0.6647  0.1642  0.0169
   34MOL   C39518941   3.766   5.395   6.389  0.4545 -0.4195 -0.1993
   34MOL   C39618942   3.859   5.271   6.382  0.0431 -0.1276 -0.2127
   34MOL   C39718943   3.967   5.292   6.276 -0.1359 -0.1410 -0.1251
   34MOL   C39818944   4.060   5.171   6.261 -0.2965 -0.4364 -1.0126
   34MOL   O39918945   4.131   5.136   6.374  0.3809 -0.3134 -0.7865
   34MOL   C40018946   4.177   5.017   6.389 -0.1915  0.0559 -0.1652
   34MOL   O40118947   4.186   4.931   6.299 -0.9847  0.0412  0.0594
   34MOL   C40218948   4.210   4.986   6.529  0.0952  0.6328 -0.3467
   34MOL   C40318949   4.233   4.853   6.566  0.3234  0.0103  0.0389
   34MOL   C40418950   4.263   4.820   6.696  0.2643  0.4676 -0.2139
   34MOL   C40518951   4.262   4.919   6.796 -0.2964  0.3765  0.2122
   34MOL   C40618952   4.292   4.893   6.940  0.3929  0.8874 -0.0494
   34MOL   O40718953   4.286   4.977   7.029 -0.4015 -0.3592  0.4459
   34MOL   C40818954   4.226   5.055   6.766  0.3633  0.4149 -0.2038
   34MOL   C40918955   4.211   5.089   6.628  0.3186  0.0885  0.5001
   34MOL   H41018956   3.691   5.397   6.468 -0.0322 -1.1222 -0.6400
   34MOL   H41118957   3.713   5.389   6.294 -0.5173  1.8612  0.1406
   34MOL   H41218958   3.808   5.176   6.365 -0.4614  0.2547 -0.8422
   34MOL   H41318959   3.893   5.253   6.484 -1.3248  1.0210  0.4585
   34MOL   H41418960   3.925   5.308   6.177 -0.4128 -3.0060 -0.5137
   34MOL   H41518961   4.026   5.382   6.294  0.0976 -0.0191 -1.4666
   34MOL   H41618962   4.003   5.084   6.228 -0.2600 -0.6190 -0.5971
   34MOL   H41718963   4.130   5.211   6.188  0.1910  0.7622  0.0852
   34MOL   H41818964   4.235   4.773   6.493  2.2072  0.0839 -0.0371
   34MOL   H41918965   4.297   4.720   6.714 -0.4779  0.3007  0.3002
   34MOL   H42018966   4.222   5.132   6.842  0.8586 -0.0016  0.2510
   34MOL   H42118967   4.183   5.188   6.594 -0.7988  0.1502  1.5707
   34MOL   O42218968   4.327   4.766   6.954 -0.2527  0.2250 -0.1733
   34MOL   C42318969   4.394   4.733   7.071 -0.1263 -0.3554  0.6070
   34MOL   C42418970   4.442   4.585   7.088  0.3034  0.4496  0.0798
   34MOL   C42518971   4.517   4.537   6.964  0.4047  0.2663  0.3269
   34MOL   C42618972   4.651   4.596   6.934  0.0687  0.6282  0.0067
   34MOL   O42718973   4.617   4.704   6.842 -0.1214 -0.5449 -1.1453
   34MOL   C42818974   4.658   4.709   6.716  0.2860 -0.3239 -0.4050
   34MOL   O42918975   4.725   4.627   6.656 -0.0671 -0.4420 -0.5348
   34MOL   C43018976   4.626   4.844   6.659  0.5104 -0.5976 -0.0913
   34MOL   C43118977   4.600   4.961   6.738 -0.6620 -0.3793 -0.3615
   34MOL   C43218978   4.578   5.085   6.676 -0.7445  0.8551 -0.1302
   34MOL   C43318979   4.586   5.107   6.535 -0.1139  0.4674  0.0729
   34MOL   C43418980   4.580   5.249   6.482  0.5877 -0.7912 -0.4945
   34MOL   O43518981   4.580   5.353   6.555  0.2634 -0.3160  0.0661
   34MOL   C43618982   4.619   4.991   6.462 -0.6888 -0.1906  0.0337
   34MOL   C43718983   4.630   4.867   6.523 -0.5602  0.1003 -0.6877
   34MOL   H43818984   4.485   4.794   7.083 -0.1340 -0.4724  1.2578
   34MOL   H43918985   4.329   4.754   7.156  0.4792  2.0039  0.5406
   34MOL   H44018986   4.354   4.522   7.102 -1.5246  2.2918 -2.5869
   34MOL   H44118987   4.507   4.579   7.175 -0.2286  1.0205  0.5141
   34MOL   H44218988   4.534   4.430   6.970 -0.1375  0.1547 -0.1096
   34MOL   H44318989   4.449   4.557   6.881  0.8277  1.1107  0.1757
   34MOL   H44418990   4.698   4.632   7.025 -2.1725  2.0517  0.6295
   34MOL   H44518991   4.714   4.522   6.885 -1.1193 -0.2895 -0.1445
   34MOL   H44618992   4.604   4.951   6.846 -1.1873 -1.0576 -0.3984
   34MOL   H44718993   4.558   5.169   6.741 -0.6765 -0.2206  1.3022
   34MOL   H44818994   4.644   4.998   6.357  1.4373  0.2270  0.5420
   34MOL   H44918995   4.650   4.790   6.450 -1.0595  0.0418 -0.7622
   34MOL   O45018996   4.575   5.250   6.348  0.0583  0.1450 -0.0651
   34MOL   C45118997   4.585   5.373   6.276  0.1627 -0.1733 -0.4004
   34MOL   C45218998   4.478   5.352   6.165  0.0890  0.1365  0.3426
   34MOL   C45318999   4.332   5.365   6.189  0.4323 -0.1864 -0.3756
   34MOL   C45419000   4.291   5.510   6.229 -0.0449  0.1985  0.0928
   34MOL   O45519001   4.267   5.586   6.110  0.6377 -0.1012 -0.3860
   34MOL   C45619002   4.130   5.610   6.072 -0.0458  0.3261  0.0477
   34MOL   O45719003   4.032   5.570   6.135  0.2547 -0.6473  0.1238
   34MOL   C45819004   4.117   5.681   5.947 -0.3403 -0.7663  0.3541
   34MOL   C45919005   4.225   5.754   5.896  0.2157  0.2133 -0.0673
   34MOL   C46019006   4.219   5.812   5.768  0.0507 -0.3870  0.1774
   34MOL   C46119007   4.086   5.819   5.701 -0.4508 -0.3044  0.1920
   34MOL   C46219008   4.082   5.881   5.563 -0.7502  0.8314 -0.1392
   34MOL   O46319009   4.181   5.910   5.496 -0.7877  0.3817  0.0336
   34MOL   C46419010   3.976   5.748   5.762 -0.0001  0.1191 -0.3000
   34MOL   C46519011   3.990   5.690   5.884 -0.4407 -0.0686 -0.6140
   34MOL   H46619012   4.559   5.462   6.335 -1.3070 -1.2144  0.5682
   34MOL   H46719013   4.688   5.392   6.245  0.9646  1.2835  2.9053
   34MOL   H46819014   4.504   5.261   6.109  3.8924  1.2131  0.1747
   34MOL   H46919015   4.502   5.428   6.091  0.3351  0.0513  0.3342
   34MOL   H47019016   4.274   5.331   6.104  0.4705 -0.2161 -0.3899
   34MOL   H47119017   4.321   5.292   6.269 -0.3633  0.5333  0.1912
   34MOL   H47219018   4.206   5.507   6.298 -1.0970  0.9960 -1.1425
   34MOL   H47319019   4.363   5.571   6.284 -0.0669 -0.0726  0.4241
   34MOL   H47419020   4.318   5.762   5.952 -1.5275 -2.3494  3.3856
   34MOL   H47519021   4.307   5.860   5.728  0.5953  0.3094  2.1481
   34MOL   H47619022   3.880   5.735   5.714  0.7758 -3.3489 -1.0526
   34MOL   H47719023   3.907   5.640   5.932  1.2437 -2.8019 -0.4769
   34MOL   O47819024   3.954   5.910   5.539 -0.4699  0.7438 -0.5693
   34MOL   C47919025   3.919   5.972   5.422  0.3665  0.2606  0.9305
   34MOL   C48019026   3.760   5.964   5.423  0.5227  0.2836 -0.5660
   34MOL   C48119027   3.703   5.821   5.415 -0.4244  0.0656 -0.9250
   34MOL   C48219028   3.554   5.815   5.453 -0.6731  0.2837  0.2442
   34MOL   O48319029   3.546   5.795   5.597 -0.0879  0.3833 -0.7801
   34MOL   C48419030   3.431   5.778   5.647 -0.0831 -0.7516  0.3264
   34MOL   O48519031   3.330   5.798   5.587 -0.2187 -0.0350  0.0929
   34MOL   C48619032   3.439   5.729   5.786  0.1686  0.3378 -0.1351
   34MOL   C48719033   3.559   5.693   5.851  0.2588  0.4775  0.5352
   34MOL   C48819034   3.557   5.630   5.973  0.4144  0.0838 -0.0130
   34MOL   C48919035   3.431   5.612   6.045  0.2136 -0.2213  0.2661
   34MOL   C49019036   3.414   5.531   6.178 -0.7707 -0.1352 -0.0428
   34MOL   O49119037   3.504   5.454   6.217 -0.2343  0.1722  0.2862
   34MOL   C49219038   3.318   5.655   5.979 -0.4241  0.0864 -0.1432
   34MOL   C49319039   3.319   5.711   5.854 -1.3481 -0.0634 -0.5164
   34MOL   H49419040   3.956   6.075   5.428 -0.6616  0.7117  0.0225
   34MOL   H49519041   3.960   5.921   5.335 -0.9205  0.2668  0.3028
   34MOL   H49619042   3.727   6.038   5.350 -0.6286 -0.6414 -0.9913
   34MOL   H49719043   3.726   6.012   5.515  0.4215  1.7980 -1.3827
   34MOL   H49819044   3.714   5.788   5.312 -0.5208 -1.6472 -0.3954
   34MOL   H49919045   3.759   5.742   5.465  1.3006  1.1904 -1.0218
   34MOL   H50019046   3.488   5.894   5.418 -1.9285 -1.1231 -0.6630
   34MOL   H50119047   3.516   5.727   5.400  0.2589  0.2076 -0.3027
   34MOL   H50219048   3.656   5.698   5.804  0.1876 -1.7259  0.0884
   34MOL   H50319049   3.655   5.606   6.013  0.2614  0.5131  0.6280
   34MOL   H50419050   3.215   5.652   6.012 -0.9826  1.0698 -1.7875
   34MOL   H50519051   3.227   5.730   5.801 -2.0391 -1.6159  0.0969
   34MOL   O50619052   3.297   5.551   6.244 -0.1658  0.4246  0.3279
   34MOL   C50719053   3.279   5.512   6.382  1.0606  0.7477 -0.2625
   34MOL   C50819054   3.135   5.458   6.410 -0.3157 -0.1416  0.1023
   34MOL   C50919055   3.035   5.571   6.418  1.0158 -0.5101  0.5091
   34MOL   C51019056   2.898   5.512   6.440  0.1260  0.1150  0.3868
   34MOL   O51119057   2.840   5.461   6.325  0.5299  0.0280 -0.2315
   34MOL   C51219058   2.704   5.446   6.313  0.1112  0.4787  0.8616
   34MOL   O51319059   2.618   5.492   6.396 -0.3356 -0.4688  0.3474
   34MOL   C51419060   2.676   5.375   6.179  0.6226  0.1317  0.1722
   34MOL   C51519061   2.781   5.327   6.091 -0.5795  0.9699  0.5401
   34MOL   C51619062   2.746   5.245   5.982  0.1116  0.2236  0.0397
   34MOL   C51719063   2.611   5.220   5.950 -0.4469 -0.3162 -0.0432
   34MOL   C51819064   2.594   5.136   5.828  0.0531  0.5556 -0.2830
   34MOL   O51919065   2.483   5.125   5.776  0.4666 -0.4209  0.2128
   34MOL   C52019066   2.510   5.271   6.034  0.0782  0.3004  0.5539
   34MOL   C52119067   2.544   5.354   6.144  0.6493 -0.5384  0.0778
   34MOL   H52219068   3.342   5.426   6.403  0.7200  0.4295 -0.5345
   34MOL   H52319069   3.308   5.596   6.445  1.8578 -0.9510  1.6904
   34MOL   H52419070   3.126   5.384   6.490 -1.8184 -1.7323 -1.4819
   34MOL   H52519071   3.115   5.406   6.316 -1.2731  0.3935  0.0024
   34MOL   H52619072   3.059   5.633   6.504 -2.3817 -0.2838  1.3635
   34MOL   H52719073   3.039   5.626   6.324  1.5578  2.0234  1.9700
   34MOL   H52819074   2.904   5.429   6.511 -0.4589 -0.5850 -0.3670
   34MOL   H52919075   2.839   5.582   6.499  2.6208  2.0279  0.7062
   34MOL   H53019076   2.887   5.349   6.101  0.1520 -1.9015 -0.6347
   34MOL   H53119077   2.830   5.208   5.924  0.3447 -0.8366  1.0402
   34MOL   H53219078   2.404   5.261   6.016  0.1256  3.2323 -1.7669
   34MOL   H53319079   2.461   5.395   6.199  0.8441  0.8093 -0.5977
   34MOL   O53419080   2.708   5.078   5.776 -0.8349  0.0687 -0.0350
   34MOL   C53519081   2.695   4.995   5.661  1.0299 -0.6580  0.4178
   34MOL   C53619082   2.797   4.875   5.661  0.5151 -0.2030 -0.0411
   34MOL   C53719083   2.738   4.760   5.741 -0.4847 -0.3997  0.0746
   34MOL   C53819084   2.842   4.649   5.754 -0.1942  0.6313  0.1474
   34MOL   O53919085   2.852   4.576   5.633  0.6388  0.1614  1.0984
   34MOL   C54019086   2.963   4.548   5.558 -0.4225 -0.4000 -0.0286
   34MOL   O54119087   3.070   4.595   5.589  0.1297 -0.8350 -0.2656
   34MOL   C54219088   2.948   4.443   5.453  0.1339 -0.0926  0.1332
   34MOL   C54319089   3.052   4.438   5.366  1.2546 -0.2859  0.5741
   34MOL   C54419090   3.049   4.341   5.262  0.0351 -0.8157 -0.4047
   34MOL   C54519091   2.947   4.242   5.256 -0.1152 -0.4578  0.0035
   34MOL   C54619092   2.946   4.136   5.154  0.5800  0.0450 -0.1021
   34MOL   O54719093   2.851   4.070   5.138 -0.0503 -0.0972 -0.5255
   34MOL   C54819094   2.835   4.247   5.342  0.0606  0.1069 -0.6804
   34MOL   C54919095   2.838   4.355   5.443  0.2439 -0.1922 -0.2634
   34MOL   H55019096   2.589   4.973   5.650  0.8851  0.9417 -1.8571
   34MOL   H55119097   2.725   5.065   5.583 -1.5663  1.0074  0.8236
   34MOL   H55219098   2.890   4.918   5.699  0.3873  1.2860 -1.3670
   34MOL   H55319099   2.824   4.844   5.560 -1.5436  1.6185 -1.1795
   34MOL   H55419100   2.718   4.782   5.846  0.8659  2.4837 -0.2157
   34MOL   H55519101   2.648   4.714   5.701  0.1902 -0.3986 -1.5151
   34MOL   H55619102   2.935   4.696   5.783 -0.3529 -0.0596  1.8660
   34MOL   H55719103   2.811   4.581   5.834 -2.0968 -1.1259 -1.9952
   34MOL   H55819104   3.135   4.507   5.370  1.5350 -0.5479 -0.6136
   34MOL   H55919105   3.124   4.333   5.185 -1.5821  1.9701 -2.3172
   34MOL   H56019106   2.759   4.171   5.339  0.2277 -0.1565  1.0930
   34MOL   H56119107   2.758   4.367   5.514  0.3482  1.6090 -0.4339
   34MOL   H56219108   3.034   4.110   5.094  2.1696  2.3217  1.1662
   35MOL     O119109   7.769   5.296   0.429  0.0715  0.2652  0.1808
   35MOL     C219110   7.818   5.169   0.425  0.7242 -0.6196  0.0228
   35MOL     C319111   7.704   5.079   0.390  0.3326 -0.5216 -1.0409
   35MOL     C419112   7.757   4.943   0.352 -0.4841  0.7325  0.7529
   35MOL     C519113   7.650   4.856   0.286 -0.1885  0.8791  0.4050
   35MOL     O619114   7.541   4.842   0.373 -0.0627 -0.0900 -0.6435
   35MOL     C719115   7.426   4.778   0.338 -0.1223  0.1793 -0.3692
   35MOL     O819116   7.392   4.740   0.229  0.0154 -0.5296  0.0814
   35MOL     C919117   7.352   4.746   0.462  0.6768 -0.4023  0.3726
   35MOL    C1019118   7.374   4.820   0.578  0.3165  0.0244 -0.3204
   35MOL    C1119119   7.279   4.816   0.674 -0.5940  0.2425 -0.5031
   35MOL    C1219120   7.165   4.738   0.664  0.3612 -0.2957 -0.0169
   35MOL    C1319121   7.052   4.746   0.761 -0.6492 -0.3402  0.1739
   35MOL    O1419122   6.939   4.712   0.726 -0.4810  1.1006  0.4755
   35MOL    C1519123   7.156   4.648   0.565 -0.5636  0.1783  0.1004
   35MOL    C1619124   7.244   4.654   0.456  0.6312 -0.6981 -0.5687
   35MOL    H1719125   7.894   5.165   0.347  0.8560  1.6353  0.0204
   35MOL    H1819126   7.865   5.144   0.520  0.6140  0.4115  0.3522
   35MOL    H1919127   7.639   5.123   0.314 -1.8436 -0.5487  0.7563
   35MOL    H2019128   7.641   5.068   0.477 -1.2250  1.7722 -1.8436
   35MOL    H2119129   7.830   4.953   0.272  0.3742 -1.0244  1.2958
   35MOL    H2219130   7.810   4.896   0.435  0.8373 -1.8667 -1.4768
   35MOL    H2319131   7.617   4.903   0.193  0.1790 -1.0280 -0.7359
   35MOL    H2419132   7.683   4.755   0.260 -2.8823 -0.0627  0.4896
   35MOL    H2519133   7.459   4.885   0.586  1.3616 -1.2506 -0.9591
   35MOL    H2619134   7.297   4.873   0.764 -1.4521 -0.9177  0.4089
   35MOL    H2719135   7.072   4.581   0.552 -1.0804  0.5451  1.4786
   35MOL    H2819136   7.219   4.597   0.368 -3.4263  0.7750 -0.4952
   35MOL    H2919137   7.719   5.307   0.509 -2.6846 -1.5241 -1.2139
   35MOL    O3019138   7.082   4.807   0.879  0.2409  0.2003  0.2999
   35MOL    C3119139   6.985   4.818   0.983 -0.9889  0.5176  0.6952
   35MOL    C3219140   7.017   4.712   1.091 -0.1675 -0.1458 -0.0348
   35MOL    C3319141   6.898   4.694   1.187 -0.4238 -0.1008 -0.1561
   35MOL    C3419142   6.874   4.819   1.252  0.0536 -0.3224  0.4860
   35MOL    O3519143   6.984   4.871   1.310 -0.2870  0.7662 -0.2137
   35MOL    C3619144   6.973   4.989   1.367  0.1091 -0.2799 -0.2043
   35MOL    O3719145   6.885   5.069   1.348  0.0626 -0.1075 -0.1119
   35MOL    C3819146   7.083   5.016   1.468 -0.2459  0.0141  0.0239
   35MOL    C3919147   7.078   5.135   1.544  0.0693 -0.0545 -0.2313
   35MOL    C4019148   7.176   5.166   1.641  0.4067 -0.6236 -0.5591
   35MOL    C4119149   7.286   5.085   1.654 -0.2571  0.2536  0.0373
   35MOL    C4219150   7.402   5.114   1.750 -0.1901 -0.2922  0.4472
   35MOL    O4319151   7.494   5.034   1.774  0.1036  0.0274  0.1832
   35MOL    C4419152   7.291   4.967   1.583  0.4453  0.2778 -0.1357
   35MOL    C4519153   7.191   4.930   1.496  0.0069  0.1007  0.3693
   35MOL    H4619154   6.997   4.916   1.029 -1.7563  0.4720  0.9953
   35MOL    H4719155   6.882   4.812   0.949 -0.8194 -0.3768  0.3337
   35MOL    H4819156   7.107   4.744   1.143 -1.3343 -0.3495  2.1750
   35MOL    H4919157   7.042   4.618   1.042 -0.3922 -0.2786  0.1048
   35MOL    H5019158   6.808   4.654   1.138  0.5816 -0.2697 -1.9125
   35MOL    H5119159   6.931   4.624   1.263 -2.1529 -1.6448 -0.7603
   35MOL    H5219160   6.824   4.883   1.180 -1.0170 -0.2314  1.2920
   35MOL    H5319161   6.800   4.796   1.329 -0.9985  1.2450 -0.0322
   35MOL    H5419162   6.991   5.199   1.536 -1.3582 -1.5119  2.8365
   35MOL    H5519163   7.184   5.257   1.699 -1.0337 -1.4384  0.9781
   35MOL    H5619164   7.377   4.902   1.591 -0.6417 -0.9961  1.6722
   35MOL    H5719165   7.201   4.839   1.438  1.3882  2.3521 -3.0752
   35MOL    O5819166   7.392   5.236   1.811  0.2896 -0.1064  0.4441
   35MOL    C5919167   7.471   5.288   1.914 -0.1341 -0.2563  0.0820
   35MOL    C6019168   7.564   5.408   1.868 -0.2179 -0.4576  1.0294
   35MOL    C6119169   7.683   5.372   1.772  0.2943 -0.3211 -0.5596
   35MOL    C6219170   7.774   5.262   1.810 -0.6118 -0.3475 -0.3368
   35MOL    O6319171   7.878   5.249   1.709 -0.0838  0.2412  0.0276
   35MOL    C6419172   7.985   5.164   1.728 -0.6966 -0.3724  0.0646
   35MOL    O6519173   7.995   5.091   1.820 -0.0903 -0.0931  0.4911
   35MOL    C6619174   8.074   5.158   1.600 -0.1659  0.3325 -0.6186
   35MOL    C6719175   8.048   5.233   1.482  0.1501 -0.4811 -0.7442
   35MOL    C6819176   0.029   5.217   1.366  0.2034 -0.1559 -0.2869
   35MOL    C6919177   0.138   5.131   1.369  0.1737  0.2484  0.2753
   35MOL    C7019178   0.229   5.129   1.251  0.6191 -0.5465  0.6185
   35MOL    O7119179   0.205   5.204   1.154 -0.1433  0.5959 -0.4565
   35MOL    C7219180   0.164   5.051   1.485 -0.1184 -0.4613  0.1568
   35MOL    C7319181   0.082   5.068   1.598 -0.1236  0.3053 -0.1959
   35MOL    H7419182   7.416   5.323   2.001  0.1545 -2.7840  1.3027
   35MOL    H7519183   7.534   5.211   1.959  0.2044 -1.0987 -1.7773
   35MOL    H7619184   7.609   5.441   1.962  0.8722  0.9551  0.0270
   35MOL    H7719185   7.515   5.494   1.821  0.3076 -0.0344  1.2448
   35MOL    H7819186   7.647   5.353   1.671 -2.2013 -3.8221  0.8966
   35MOL    H7919187   7.750   5.458   1.774  1.4011 -1.1747 -0.1585
   35MOL    H8019188   7.826   5.280   1.904 -0.9546  0.9953 -0.3903
   35MOL    H8119189   7.726   5.166   1.829  1.7372 -1.2646  1.2488
   35MOL    H8219190   7.956   5.289   1.473  0.1444 -0.6162 -1.5923
   35MOL    H8319191   0.009   5.266   1.272 -0.3875 -2.3411 -1.3147
   35MOL    H8419192   0.253   4.991   1.493  1.1409  1.6014  2.2749
   35MOL    H8519193   0.092   5.005   1.684 -0.2233  1.9459  1.0402
   35MOL    O8619194   0.332   5.049   1.266 -0.1162  0.0528 -0.5090
   35MOL    C8719195   0.433   5.046   1.166 -0.7456 -0.5008  0.3402
   35MOL    C8819196   0.422   4.914   1.074 -0.1502 -0.2391 -0.2380
   35MOL    C8919197   0.504   4.930   0.949 -0.1838 -0.4322 -0.1201
   35MOL    C9019198   0.438   4.867   0.825  0.0894 -0.0152  0.8836
   35MOL    O9119199   0.509   4.893   0.701 -0.3014  0.0716  0.0984
   35MOL    C9219200   0.449   4.943   0.592 -0.3415 -0.5163  0.1445
   35MOL    O9319201   0.327   4.936   0.584 -0.6013  0.4476 -0.4960
   35MOL    C9419202   0.543   4.997   0.492  0.2513 -0.7290 -0.4995
   35MOL    C9519203   0.480   5.052   0.379  0.3190  0.2170 -0.0579
   35MOL    C9619204   0.561   5.086   0.268 -0.7695 -0.3956  0.0610
   35MOL    C9719205   0.703   5.077   0.270  0.1855 -0.3306  0.1931
   35MOL    C9819206   0.783   5.118   0.151  0.3309 -0.3792  0.7293
   35MOL    O9919207   0.892   5.069   0.131  0.0137 -0.1391 -0.2344
   35MOL   C10019208   0.763   5.025   0.387 -0.1147  0.0365  0.5402
   35MOL   C10119209   0.683   4.987   0.499 -0.5126 -0.1166  0.1032
   35MOL   H10219210   0.426   5.139   1.111  0.5488  0.3729  1.6142
   35MOL   H10319211   0.530   5.043   1.216 -0.2518 -1.2516 -0.6354
   35MOL   H10419212   0.319   4.915   1.039  0.2538  1.5901 -1.4481
   35MOL   H10519213   0.452   4.832   1.139 -0.1819  0.5117  0.7475
   35MOL   H10619214   0.501   5.035   0.920  1.9240 -0.3551 -0.1125
   35MOL   H10719215   0.609   4.908   0.964  0.5412  3.1373  0.2828
   35MOL   H10819216   0.430   4.760   0.843  0.2611 -0.1327  0.2805
   35MOL   H10919217   0.334   4.899   0.820  0.5581  1.2517 -2.6231
   35MOL   H11019218   0.372   5.056   0.375  0.3075 -0.1717 -0.2521
   35MOL   H11119219   0.511   5.130   0.183 -0.8210 -1.4441 -0.4601
   35MOL   H11219220   0.869   5.005   0.399  0.0621  0.4358 -0.3651
   35MOL   H11319221   0.723   4.933   0.583  0.8318 -0.4305 -0.7112
   35MOL   O11419222   0.717   5.204   0.072  0.1925  0.4303  0.3375
   35MOL   C11519223   0.770   5.218   8.032  0.2455 -0.8014 -0.0666
   35MOL   C11619224   0.746   5.366   8.000 -0.3992 -0.7163  0.3314
   35MOL   C11719225   0.815   5.407   7.866  0.1313  0.2572  0.6614
   35MOL   C11819226   0.761   5.324   7.754 -0.1142 -0.1691  0.6696
   35MOL   O11919227   0.622   5.323   7.762 -0.3898  0.4812  0.2363
   35MOL   C12019228   0.557   5.236   7.684  0.4727  0.3519 -0.2422
   35MOL   O12119229   0.608   5.159   7.609  0.2436  0.0609 -0.0811
   35MOL   C12219230   0.413   5.240   7.715  0.5362 -0.3075 -0.2156
   35MOL   C12319231   0.318   5.204   7.618 -0.5787 -0.3028 -0.0606
   35MOL   C12419232   0.184   5.226   7.636 -0.7784  0.7635  0.4420
   35MOL   C12519233   0.136   5.266   7.765  0.4513  0.4835  0.2913
   35MOL   C12619234   8.084   5.272   7.780 -0.1423  0.1480 -0.1581
   35MOL   O12719235   8.005   5.295   7.684  0.1936 -0.0323 -0.1823
   35MOL   C12819236   0.230   5.291   7.865  0.3872 -0.3363 -0.2756
   35MOL   C12919237   0.367   5.285   7.843  0.3796 -0.1335 -0.4501
   35MOL   H13019238   0.873   5.182   8.026 -0.7337 -3.7053 -0.4075
   35MOL   H13119239   0.709   5.156   7.965  1.6801  0.4500 -2.6308
   35MOL   H13219240   0.790   5.434   8.073  1.3980 -0.3660 -1.0463
   35MOL   H13319241   0.638   5.379   7.999 -0.2339  0.7325  0.9450
   35MOL   H13419242   0.783   5.509   7.843 -3.1056 -0.0302  3.5244
   35MOL   H13519243   0.924   5.418   7.863 -0.1450  2.8554 -3.2804
   35MOL   H13619244   0.807   5.349   7.658 -0.6443  0.8070  0.6615
   35MOL   H13719245   0.807   5.226   7.766  1.7066  0.6664  0.8181
   35MOL   H13819246   0.357   5.163   7.526 -1.6027 -1.2134 -0.1047
   35MOL   H13919247   0.115   5.208   7.556  0.0547 -3.8809  0.6442
   35MOL   H14019248   0.191   5.321   7.962 -0.8954 -1.7692 -0.3239
   35MOL   H14119249   0.438   5.313   7.919 -1.0217  0.8146  0.5449
   35MOL   O14219250   8.044   5.240   7.904 -0.2451 -0.0096  0.1931
   35MOL   C14319251   7.900   5.229   7.935  0.0187 -0.1780 -0.2092
   35MOL   C14419252   7.883   5.204   8.085 -0.3752  0.3287 -0.0131
   35MOL   C14519253   7.737   5.174   0.038 -0.4701 -0.0309  0.5803
   35MOL   C14619254   7.650   5.293   0.088 -0.1987  0.1828  0.4669
   35MOL   O14719255   7.582   5.372   8.078  0.1221  0.0107  0.1049
   35MOL   C14819256   7.452   5.417   0.010 -0.3922 -0.0658  0.3624
   35MOL   O14919257   7.395   5.414   0.118 -0.0042 -0.9193 -0.2313
   35MOL   C15019258   7.381   5.474   7.985  0.4303  0.2531  0.3622
   35MOL   C15119259   7.248   5.517   7.989  0.6098  0.3442  0.0702
   35MOL   C15219260   7.186   5.547   7.870  0.0931 -0.2459  0.3258
   35MOL   C15319261   7.250   5.541   7.745  0.6179  0.0012  0.4893
   35MOL   C15419262   7.170   5.581   7.624 -0.0695 -0.2623  0.2151
   35MOL   O15519263   7.053   5.632   7.628 -0.8710  0.3381 -0.5634
   35MOL   C15619264   7.388   5.513   7.743 -0.5643  0.1235 -0.1606
   35MOL   C15719265   7.453   5.478   7.864  0.3192  0.4523  0.0495
   35MOL   H15819266   7.838   5.308   7.892 -2.8407 -1.0428  2.1565
   35MOL   H15919267   7.871   5.137   7.885  1.4804 -0.8896  0.2356
   35MOL   H16019268   7.923   5.291   0.040  3.5520 -1.6688  0.4901
   35MOL   H16119269   7.949   5.119   0.003 -2.3650 -1.6825 -2.1126
   35MOL   H16219270   7.674   5.131   8.058 -0.4774  0.4619  0.3133
   35MOL   H16319271   7.751   5.101   0.117  1.4376 -1.9722 -1.4693
   35MOL   H16419272   7.572   5.264   0.159 -1.2055  1.2594 -0.1654
   35MOL   H16519273   7.718   5.361   0.139 -1.0584  0.9970  0.5640
   35MOL   H16619274   7.191   5.496   8.079 -0.2458 -1.3881 -0.8586
   35MOL   H16719275   7.082   5.578   7.868  0.6835  1.8097 -0.0118
   35MOL   H16819276   7.454   5.516   7.658  0.4731 -1.4051  0.5707
   35MOL   H16919277   7.559   5.455   7.863  0.4196  0.8166  1.0607
   35MOL   O17019278   7.238   5.553   7.519  0.5091 -0.0570 -0.2720
   35MOL   C17119279   7.180   5.560   7.387 -0.5178  0.3545  0.0120
   35MOL   C17219280   7.287   5.554   7.279 -0.6841 -0.2089 -0.0496
   35MOL   C17319281   7.324   5.406   7.247 -0.4855  0.4120  0.2615
   35MOL   C17419282   7.453   5.400   7.165 -0.1244  0.1631 -0.1364
   35MOL   O17519283   7.432   5.466   7.045  0.0827  0.4024 -0.0659
   35MOL   C17619284   7.485   5.422   6.929 -0.0845 -0.1842  0.5925
   35MOL   O17719285   7.544   5.312   6.918 -0.5337 -0.0728 -0.0790
   35MOL   C17819286   7.479   5.510   6.814  0.3224 -0.5769  0.3404
   35MOL   C17919287   7.541   5.480   6.688  0.6626 -0.1290  0.8037
   35MOL   C18019288   7.517   5.564   6.582 -0.2309 -1.3567  0.1229
   35MOL   C18119289   7.451   5.686   6.593 -0.2135 -0.2382  0.0469
   35MOL   C18219290   7.431   5.774   6.479  0.4886 -0.7010  0.4360
   35MOL   O18319291   7.380   5.886   6.486  0.5742  0.9197 -0.2967
   35MOL   C18419292   7.403   5.725   6.725 -0.4832  0.8551  0.1440
   35MOL   C18519293   7.410   5.636   6.832  0.6354  0.1966 -0.1948
   35MOL   H18619294   7.108   5.480   7.372  2.1070 -1.8251 -1.3234
   35MOL   H18719295   7.116   5.649   7.383  0.5756  1.0620 -3.5983
   35MOL   H18819296   7.367   5.610   7.326 -0.5589 -0.2264 -0.2436
   35MOL   H18919297   7.247   5.610   7.194 -1.9111  0.0330  0.6685
   35MOL   H19019298   7.337   5.354   7.342 -0.5255  2.5060  1.4511
   35MOL   H19119299   7.239   5.370   7.189  0.1202 -1.0840  0.2961
   35MOL   H19219300   7.543   5.432   7.217 -0.6989 -0.6203  1.3933
   35MOL   H19319301   7.477   5.297   7.137  1.1690  0.6590 -0.9125
   35MOL   H19419302   7.611   5.398   6.676 -0.5970 -0.8854 -1.8473
   35MOL   H19519303   7.572   5.545   6.491 -1.1568 -1.3683 -0.4404
   35MOL   H19619304   7.340   5.812   6.734 -0.9786  0.4054  1.1214
   35MOL   H19719305   7.364   5.658   6.928  2.5505  0.5084  0.6798
   35MOL   O19819306   7.491   5.734   6.364 -0.0391 -0.2603 -1.1826
   35MOL   C19919307   7.523   5.829   6.266  0.2359 -0.1459  0.6488
   35MOL   C20019308   7.638   5.755   6.188  0.4747 -0.1668 -0.0445
   35MOL   C20119309   7.686   5.847   6.080  0.4317  0.6227 -0.6731
   35MOL   C20219310   7.795   5.774   5.990 -0.2050  0.3081  0.2461
   35MOL   O20319311   7.874   5.875   5.931  0.1339  0.2398 -0.1002
   35MOL   C20419312   7.992   5.913   5.973  0.1166 -0.4104 -0.0015
   35MOL   O20519313   8.046   5.856   6.072 -0.1355 -0.0971 -0.4733
   35MOL   C20619314   8.071   6.011   5.883  0.0228  0.4835  0.3785
   35MOL   C20719315   8.032   6.042   5.754  0.0138 -1.0466  0.4021
   35MOL   C20819316   0.001   6.134   5.673 -0.2359 -0.6472  0.1666
   35MOL   C20919317   0.119   6.194   5.720  0.2369 -0.5036 -0.1560
   35MOL   C21019318   0.200   6.284   5.639  0.1802  0.3525  0.0105
   35MOL   O21119319   0.164   6.334   5.531 -0.2291  0.6166  0.3561
   35MOL   C21219320   0.160   6.168   5.855  0.5185  0.0437  0.2298
   35MOL   C21319321   0.091   6.072   5.929 -0.3116  0.1158 -0.8009
   35MOL   H21419322   7.428   5.846   6.215  1.2283  1.3201 -0.7570
   35MOL   H21519323   7.563   5.923   6.302 -0.0315  0.1065  0.2868
   35MOL   H21619324   7.600   5.669   6.134 -3.0356  0.8562  0.6697
   35MOL   H21719325   7.712   5.711   6.256  1.4507  1.3393 -0.1192
   35MOL   H21819326   7.599   5.885   6.027 -0.2882  0.1144  0.1379
   35MOL   H21919327   7.710   5.940   6.132  0.6198  0.6842 -0.8655
   35MOL   H22019328   7.857   5.714   6.057  0.4722 -2.3766 -2.7099
   35MOL   H22119329   7.761   5.705   5.914 -1.0090  0.1977  0.7052
   35MOL   H22219330   7.937   6.007   5.715 -0.7311  0.0798  1.2192
   35MOL   H22319331   8.059   6.143   5.573  0.3929 -0.9345 -0.1183
   35MOL   H22419332   0.237   6.229   5.898  0.7396 -0.4961  0.6096
   35MOL   H22519333   0.108   6.054   6.034 -1.5179 -3.3696 -1.1145
   35MOL   O22619334   0.322   6.302   5.694 -0.1335  0.0031 -0.1529
   35MOL   C22719335   0.423   6.390   5.636 -0.1716  0.0341 -1.0011
   35MOL   C22819336   0.515   6.450   5.747 -0.5071  0.0714 -0.0907
   35MOL   C22919337   0.601   6.357   5.832  0.3190 -0.3306  0.4740
   35MOL   C23019338   0.689   6.255   5.752  0.4030  0.5997 -0.5404
   35MOL   O23119339   0.791   6.327   5.697  0.3624 -0.7147  0.4053
   35MOL   C23219340   0.875   6.265   5.611  0.0604  0.4609 -0.2486
   35MOL   O23319341   0.891   6.142   5.595 -0.2008 -0.3155 -0.1314
   35MOL   C23419342   0.971   6.362   5.564 -0.0765 -0.1075  0.4751
   35MOL   C23519343   0.947   6.505   5.573  0.2872 -0.0010 -0.0581
   35MOL   C23619344   1.052   6.592   5.523 -0.0173 -0.1803  0.7965
   35MOL   C23719345   1.175   6.544   5.473  0.1610  0.6141 -0.0977
   35MOL   C23819346   1.280   6.632   5.414  0.5974 -0.3665  0.4875
   35MOL   O23919347   1.267   6.754   5.417 -0.1220 -0.2421  0.2539
   35MOL   C24019348   1.196   6.406   5.468 -0.4323  0.4038 -0.4503
   35MOL   C24119349   1.095   6.318   5.514 -0.4220 -0.6773 -0.2717
   35MOL   H24219350   0.485   6.325   5.573  0.3105 -0.6100  0.1225
   35MOL   H24319351   0.372   6.466   5.577 -1.0519 -0.3025 -0.6838
   35MOL   H24419352   0.447   6.507   5.809  0.4038  1.6540 -0.5058
   35MOL   H24519353   0.585   6.515   5.694  0.4601 -1.1125 -0.2722
   35MOL   H24619354   0.650   6.416   5.909 -0.6461  2.8486 -1.2616
   35MOL   H24719355   0.533   6.293   5.889 -1.2508  1.9076  1.1806
   35MOL   H24819356   0.728   6.179   5.819  2.8606  1.2649 -1.1738
   35MOL   H24919357   0.644   6.198   5.670 -0.3088 -0.7424  0.7677
   35MOL   H25019358   0.860   6.553   5.612  0.4721  2.2099 -2.2496
   35MOL   H25119359   1.035   6.699   5.518  1.0349 -0.0656 -0.8392
   35MOL   H25219360   1.283   6.360   5.423 -2.1103 -2.0026 -1.3296
   35MOL   H25319361   1.113   6.211   5.507 -1.2250 -0.8533  0.2365
   35MOL   O25419362   1.382   6.569   5.358 -0.4769  0.4299 -0.4630
   35MOL   C25519363   1.483   6.639   5.285  0.3798 -0.0470 -0.5193
   35MOL   C25619364   1.450   6.651   5.139  0.9776 -0.2457 -0.6679
   35MOL   C25719365   1.368   6.770   5.093 -0.0161  0.0345 -0.3709
   35MOL   C25819366   1.282   6.729   4.972 -0.2957 -0.3381  0.4518
   35MOL   O25919367   1.161   6.670   5.025 -0.0338  0.2983 -0.0896
   35MOL   C26019368   1.049   6.712   4.981  0.2082 -0.0143  0.6551
   35MOL   O26119369   1.036   6.790   4.884  0.2260  0.0964  0.5916
   35MOL   C26219370   0.937   6.657   5.064  0.6292 -0.2607 -0.6942
   35MOL   C26319371   0.802   6.676   5.020 -0.1837 -0.5613 -0.3274
   35MOL   C26419372   0.692   6.614   5.080  0.2579 -0.7191 -0.7140
   35MOL   C26519373   0.713   6.538   5.194  0.0183  0.2443 -0.1544
   35MOL   C26619374   0.601   6.473   5.273 -0.8204  0.7989  0.1989
   35MOL   O26719375   0.617   6.437   5.396  0.2445  0.0439  0.6444
   35MOL   C26819376   0.846   6.515   5.244  0.2138 -0.6431  0.1200
   35MOL   C26919377   0.961   6.581   5.183 -0.0949 -0.1309  0.6467
   35MOL   H27019378   1.507   6.738   5.323 -0.9820  0.8059 -1.8113
   35MOL   H27119379   1.569   6.574   5.302 -0.0025 -0.5128 -0.3463
   35MOL   H27219380   1.399   6.565   5.097  0.2014 -0.9288  1.6663
   35MOL   H27319381   1.539   6.649   5.076  0.5540 -0.8633 -1.2501
   35MOL   H27419382   1.314   6.820   5.173 -0.2905  1.8639 -1.6519
   35MOL   H27519383   1.436   6.845   5.052 -2.3668  2.0712 -0.7103
   35MOL   H27619384   1.264   6.821   4.915 -0.7742  0.2962  1.5888
   35MOL   H27719385   1.331   6.659   4.905  0.5225 -0.3113  1.0216
   35MOL   H27819386   0.785   6.710   4.919  1.5426  0.7843 -0.1902
   35MOL   H27919387   0.594   6.630   5.038 -0.1647  3.1868  1.5183
   35MOL   H28019388   0.866   6.457   5.332 -2.3144 -0.2977  0.9624
   35MOL   H28119389   1.060   6.571   5.225  0.0644 -0.4063  0.2081
   35MOL   O28219390   0.482   6.446   5.207 -0.4725 -0.1730  0.1916
   35MOL   C28319391   0.389   6.370   5.276 -0.4017 -0.0201 -0.5076
   35MOL   C28419392   0.265   6.321   5.198  0.5018 -0.4620 -0.2752
   35MOL   C28519393   0.309   6.214   5.096 -0.0365  0.1750 -0.0348
   35MOL   C28619394   0.195   6.156   5.013 -0.2716  0.2783 -0.4086
   35MOL   O28719395   0.109   6.256   4.963 -0.3334 -0.0474 -0.2343
   35MOL   C28819396   8.098   6.224   4.893 -0.2736  0.0971  0.3407
   35MOL   O28919397   8.069   6.106   4.854  0.0995 -0.1797 -0.0762
   35MOL   C29019398   8.013   6.342   4.858  0.0994  1.2275  0.6076
   35MOL   C29119399   8.026   6.466   4.921 -0.2159 -0.4368  0.1282
   35MOL   C29219400   7.940   6.576   4.891 -0.0427 -0.3336  0.5495
   35MOL   C29319401   7.834   6.556   4.797  0.3681  0.6924  0.1835
   35MOL   C29419402   7.739   6.662   4.760 -0.2069  0.1996 -0.4007
   35MOL   O29519403   7.637   6.644   4.697  0.4041 -0.0697 -0.5285
   35MOL   C29619404   7.823   6.431   4.735  0.2648 -0.4340 -0.1292
   35MOL   C29719405   7.907   6.324   4.767  0.1735 -0.6287 -0.1712
   35MOL   H29819406   0.435   6.280   5.316 -1.1335  0.4893  1.5471
   35MOL   H29919407   0.352   6.412   5.370  0.8313 -0.2892  0.1032
   35MOL   H30019408   0.208   6.401   5.149 -0.0575 -0.7078 -0.0313
   35MOL   H30119409   0.192   6.289   5.272  0.2869  0.8811  0.1132
   35MOL   H30219410   0.377   6.255   5.022 -0.9263  1.9235  0.0846
   35MOL   H30319411   0.370   6.136   5.141 -1.4382  0.2616  2.0954
   35MOL   H30419412   0.230   6.092   4.932 -0.6796 -0.0201 -0.3503
   35MOL   H30519413   0.144   6.093   5.085  0.8622 -0.3525 -0.1379
   35MOL   H30619414   0.002   6.469   4.999 -1.5851 -0.2003  1.4463
   35MOL   H30719415   7.955   6.663   4.954 -4.0916 -0.4595  1.8505
   35MOL   H30819416   7.738   6.414   4.671  0.1823  0.8462 -0.3667
   35MOL   H30919417   7.889   6.238   4.704 -0.4186  0.4894 -1.5379
   35MOL   O31019418   7.777   6.782   4.822 -0.8047  0.0490  0.6052
   35MOL   C31119419   7.701   6.901   4.795 -0.3128  0.0692 -0.1738
   35MOL   C31219420   7.693   6.961   4.935 -0.2673  0.5723  0.3554
   35MOL   C31319421   7.821   7.025   4.986 -0.3636 -0.6334  0.3275
   35MOL   C31419422   7.818   7.033   5.141 -0.1056 -1.0526  0.3365
   35MOL   O31519423   7.935   7.106   5.193  0.3460 -0.4130 -0.3864
   35MOL   C31619424   7.918   7.244   5.217 -0.0126  0.6804 -0.4722
   35MOL   O31719425   7.809   7.299   5.216  0.2872  0.3650 -0.4040
   35MOL   C31819426   8.042   7.315   5.255 -0.3079 -0.1150  0.6953
   35MOL   C31919427   0.066   7.240   5.273  0.2066 -0.0350 -0.2642
   35MOL   C32019428   0.192   7.302   5.297 -0.0575  0.0554  0.5620
   35MOL   C32119429   0.195   7.444   5.310 -0.1531  0.4745  0.4485
   35MOL   C32219430   0.324   7.517   5.331  0.0385  0.1477  0.0443
   35MOL   O32319431   0.434   7.471   5.307 -0.1363 -0.4519  0.3347
   35MOL   C32419432   0.071   7.519   5.299  0.2392 -0.7107  0.2104
   35MOL   C32519433   8.048   7.456   5.271  0.0959 -0.1426  0.2890
   35MOL   H32619434   7.760   6.969   4.733  0.4796 -1.0814 -0.7035
   35MOL   H32719435   7.603   6.885   4.750 -1.0033  0.1624  1.2764
   35MOL   H32819436   7.652   6.884   5.001  0.0859 -1.0681 -1.2986
   35MOL   H32919437   7.623   7.045   4.938  1.2691  1.8295  2.0686
   35MOL   H33019438   7.911   6.969   4.959  0.1975  0.6713 -0.5604
   35MOL   H33119439   7.825   7.128   4.949  1.3741  0.2160  2.7051
   35MOL   H33219440   7.728   7.083   5.174  1.0854  0.9120  0.6670
   35MOL   H33319441   7.803   6.933   5.184 -0.2897 -0.6742  1.1685
   35MOL   H33419442   0.067   7.133   5.257  0.6242 -0.2695  1.2272
   35MOL   H33519443   0.285   7.250   5.314  1.5895  3.0663  1.1554
   35MOL   H33619444   0.071   7.627   5.312  1.1488 -0.5769 -0.8898
   35MOL   H33719445   7.955   7.511   5.262 -0.2053 -0.4337  1.5421
   35MOL   O33819446   0.310   7.643   5.376 -0.0940  0.3427 -0.1006
   35MOL   C33919447   0.425   7.732   5.387  0.2441 -0.7202  0.3465
   35MOL   C34019448   0.490   7.763   5.248  0.8943  0.1478 -0.2539
   35MOL   C34119449   0.597   7.870   5.264 -0.5576 -0.3328  0.2419
   35MOL   C34219450   0.685   7.870   5.139  0.5732 -0.4258  0.2398
   35MOL   O34319451   0.607   7.954   5.052 -0.3003  0.1930 -0.2527
   35MOL   C34419452   0.634   7.944   4.924 -0.0654  0.7387  0.0289
   35MOL   O34519453   0.720   7.861   4.872  0.0609 -0.7494  0.6386
   35MOL   C34619454   0.545   8.033   4.839  0.6974 -0.1092 -0.4922
   35MOL   C34719455   0.576   8.058   4.702  0.9431 -0.1286  1.0536
   35MOL   C34819456   0.497   0.040   4.620 -0.3810  0.3205  0.5805
   35MOL   C34919457   0.384   0.107   4.669 -0.2646 -0.0753  0.0836
   35MOL   C35019458   0.293   0.183   4.582  0.7579  0.1068 -0.8053
   35MOL   O35119459   0.189   0.244   4.612 -0.1723 -0.4598 -0.3174
   35MOL   C35219460   0.347   0.078   4.805  1.0158 -0.6156  0.5282
   35MOL   C35319461   0.428   8.098   4.895 -0.0893 -0.2649 -0.0805
   35MOL   H35419462   0.394   7.819   5.445  0.8245 -0.7183  0.6503
   35MOL   H35519463   0.499   7.685   5.451  0.3692  0.4871  1.1106
   35MOL   H35619464   0.407   7.781   5.181  0.0671  1.5641  1.1168
   35MOL   H35719465   0.540   7.668   5.225  1.9150  0.7252 -0.4209
   35MOL   H35819466   0.549   7.966   5.284  0.1408 -0.4196  2.4992
   35MOL   H35919467   0.646   7.830   5.352 -1.1084 -0.7984  0.3370
   35MOL   H36019468   0.783   7.916   5.155  1.1943 -1.2492 -1.0378
   35MOL   H36119469   0.709   7.773   5.094  0.8290  0.2427 -1.0948
   35MOL   H36219470   0.659   7.998   4.668  1.1920  0.1830  1.1227
   35MOL   H36319471   0.521   0.048   4.515  0.9071  1.8428  0.9588
   35MOL   H36419472   0.257   0.123   4.845 -0.1784 -0.4216 -2.2773
   35MOL   H36519473   0.396   8.080   4.997  0.0675  0.9459  0.1829
   35MOL   O36619474   0.320   0.162   4.455  0.3857  0.0106 -0.5813
   35MOL   C36719475   0.239   0.218   4.355 -0.4749  1.1576 -0.5016
   35MOL   C36819476   0.322   0.289   4.243  0.0099 -0.8461 -0.3066
   35MOL   C36919477   0.354   0.433   4.288  0.2244  0.1968 -0.3625
   35MOL   C37019478   0.225   0.523   4.285  0.4641  0.0802 -0.4616
   35MOL   O37119479   0.153   0.534   4.165 -0.2036  0.9766  0.3389
   35MOL   C37219480   0.036   0.480   4.164  0.1822 -0.2772  0.0080
   35MOL   O37319481   8.083   0.426   4.263 -0.4470 -0.6269  0.6144
   35MOL   C37419482   8.072   0.490   4.028 -0.4435 -0.4751  0.1684
   35MOL   C37519483   7.937   0.447   4.003  0.3218 -0.5215 -0.1271
   35MOL   C37619484   7.868   0.483   3.890 -0.4598 -0.4511  1.2319
   35MOL   C37719485   7.941   0.530   3.775 -0.2131 -0.6450  0.5354
   35MOL   C37819486   7.874   0.577   3.652  0.0172  0.2197  0.4664
   35MOL   O37919487   7.936   0.612   3.548 -0.1255  0.5349  0.1080
   35MOL   C38019488   8.079   0.553   3.791 -0.1420 -0.1087 -0.4919
   35MOL   C38119489   0.044   0.532   3.912 -0.9307  0.4087 -0.0002
   35MOL   H38219490   0.191   0.132   4.308  0.2156  1.7814 -2.4212
   35MOL   H38319491   0.152   0.277   4.382 -1.7813 -0.7814 -0.3927
   35MOL   H38419492   0.260   0.303   4.155  0.2018  0.7332 -0.2137
   35MOL   H38519493   0.413   0.232   4.224  1.0168  0.3102  0.8639
   35MOL   H38619494   0.395   0.436   4.389 -0.1557  0.5221 -0.2207
   35MOL   H38719495   0.425   0.478   4.219  0.2356 -0.1404 -0.5734
   35MOL   H38819496   0.174   0.474   4.369  0.5506  1.1878  0.2516
   35MOL   H38919497   0.248   0.619   4.330  2.1275 -1.5842  2.4456
   35MOL   H39019498   7.878   0.400   4.081 -1.2310 -1.0887 -1.6149
   35MOL   H39119499   7.762   0.467   3.883 -0.4176 -0.0012 -1.0548
   35MOL   H39219500   0.036   0.579   3.702 -0.0120  0.8897 -0.1185
   35MOL   H39319501   0.152   0.539   3.919 -0.9243  0.3912 -0.0780
   35MOL   O39419502   7.738   0.603   3.670 -0.1033 -0.1861 -0.1626
   35MOL   C39519503   7.661   0.653   3.557 -0.3803  0.4292 -0.2600
   35MOL   C39619504   7.510   0.617   3.576  0.1451 -0.4570  0.0216
   35MOL   C39719505   7.437   0.658   3.446 -0.1585  0.0895 -1.0665
   35MOL   C39819506   7.288   0.606   3.440 -0.8718 -0.4308  0.4278
   35MOL   O39919507   7.291   0.462   3.432  0.1342  0.6521  0.0316
   35MOL   C40019508   7.212   0.396   3.346 -0.5812 -0.5675  0.4151
   35MOL   O40119509   7.104   0.439   3.314 -0.4286 -0.4554  0.2843
   35MOL   C40219510   7.276   0.274   3.291 -0.3583 -0.1174  0.2545
   35MOL   C40319511   7.211   0.212   3.189 -0.1765  0.0968 -0.2342
   35MOL   C40419512   7.262   0.096   3.122 -0.3918 -0.2582  0.1220
   35MOL   C40519513   7.392   0.053   3.164 -0.2345 -0.7394  0.4519
   35MOL   C40619514   7.440   8.025   3.096  0.0565 -0.0398 -0.7674
   35MOL   O40719515   7.367   7.955   3.031  0.5275  0.7224 -0.3240
   35MOL   C40819516   7.458   0.114   3.268 -0.5520  0.7209 -0.0035
   35MOL   C40919517   7.406   0.227   3.332 -0.3540  0.1557  0.3767
   35MOL   H41019518   7.689   0.758   3.541 -2.0183  0.5161 -2.8571
   35MOL   H41119519   7.699   0.598   3.471  1.1362 -1.9472  1.8644
   35MOL   H41219520   7.472   0.669   3.665  0.5407 -0.4488  0.1903
   35MOL   H41319521   7.500   0.509   3.582 -0.7079 -0.5468 -2.4831
   35MOL   H41419522   7.428   0.766   3.438  3.3250  0.5552  0.2991
   35MOL   H41519523   7.494   0.636   3.356  1.9171  0.2166  0.1939
   35MOL   H41619524   7.227   0.630   3.527  1.1930 -0.6074  1.9619
   35MOL   H41719525   7.248   0.648   3.347  0.2416 -3.2669 -1.4005
   35MOL   H41819526   7.129   0.271   3.151  1.4755  1.4893 -1.7256
   35MOL   H41919527   7.205   0.055   3.040 -0.3263 -0.4189  0.1576
   35MOL   H42019528   7.556   0.086   3.306 -0.3026 -1.1120 -1.9080
   35MOL   H42119529   7.471   0.278   3.400  2.1428 -2.0593 -0.2487
   35MOL   O42219530   7.571   8.018   3.112 -0.0336  0.2328 -0.2439
   35MOL   C42319531   7.661   7.920   3.053  0.3901 -0.1818  0.3441
   35MOL   C42419532   7.798   7.977   3.076 -0.6275 -0.1448 -0.2540
   35MOL   C42519533   7.919   7.886   3.044 -0.0569 -0.2745 -0.2801
   35MOL   C42619534   8.034   7.944   2.965 -0.7925  0.2670  0.2807
   35MOL   O42719535   7.994   7.954   2.824  0.2400  0.6647 -0.4598
   35MOL   C42819536   8.035   8.042   2.741  0.0597 -0.1253 -0.1664
   35MOL   O42919537   0.007   0.044   2.776  0.0244  0.1019  0.0411
   35MOL   C43019538   8.000   8.011   2.601 -0.8979 -1.3737 -0.2034
   35MOL   C43119539   7.913   7.903   2.568  0.1480 -0.2292 -0.6479
   35MOL   C43219540   7.891   7.877   2.432 -0.2338 -0.4691 -0.3993
   35MOL   C43319541   7.953   7.952   2.329  0.6921  0.0347 -0.2066
   35MOL   C43419542   7.923   7.912   2.192 -0.7368 -0.7846 -0.6800
   35MOL   O43519543   7.843   7.828   2.145 -0.0503  0.2426 -0.5399
   35MOL   C43619544   8.034   8.064   2.363 -0.0614 -0.0357 -0.2717
   35MOL   C43719545   8.063   8.091   2.501 -0.0092  0.3969  0.6933
   35MOL   H43819546   7.639   7.831   3.112 -1.3427  0.3809  0.5833
   35MOL   H43919547   7.636   7.912   2.947  0.6810 -1.4480  0.3652
   35MOL   H44019548   7.805   8.003   3.181  2.1251  0.8097 -0.6342
   35MOL   H44119549   7.802   8.072   3.022 -0.3488  1.1917  2.0466
   35MOL   H44219550   7.969   7.859   3.137  0.6128 -0.4932 -0.6985
   35MOL   H44319551   7.884   7.791   3.002 -0.5368  0.5857 -1.8623
   35MOL   H44419552   8.070   8.034   3.014  0.1334 -0.1928  0.4584
   35MOL   H44519553   0.020   7.875   2.961 -0.0004  1.1982  0.8869
   35MOL   H44619554   7.866   7.843   2.645  1.0466  0.9125  0.8197
   35MOL   H44719555   7.819   7.802   2.404 -1.7839  0.0819  2.0218
   35MOL   H44819556   8.074   0.035   2.290  1.5719 -2.9422 -2.2636
   35MOL   H44919557   0.031   0.070   2.536 -1.0458  1.9998 -0.7509
   35MOL   O45019558   7.980   7.992   2.105 -0.0692  0.0233 -0.3660
   35MOL   C45119559   7.957   7.980   1.966 -0.0537  0.1080 -0.1522
   35MOL   C45219560   8.038   8.087   1.896  0.5429  0.8677  0.2845
   35MOL   C45319561   7.988   0.012   1.750  0.1497 -0.1770  0.0720
   35MOL   C45419562   8.086   0.073   1.648  0.0513  0.4241  0.1058
   35MOL   O45519563   8.028   0.071   1.518  0.2125 -0.6982  0.0595
   35MOL   C45619564   8.048   8.070   1.429  0.3725  0.1143 -0.6880
   35MOL   O45719565   8.098   7.964   1.453  0.1779  0.2181  0.7688
   35MOL   C45819566   7.996   8.092   1.298 -0.0305 -0.2936  0.0813
   35MOL   C45919567   7.955   0.127   1.265  0.0063 -0.5477 -0.0151
   35MOL   C46019568   7.896   0.161   1.141  0.0684 -0.2173 -0.7437
   35MOL   C46119569   7.871   0.058   1.054 -0.0412  0.1660 -0.1323
   35MOL   C46219570   7.810   0.094   0.924 -0.6090 -0.9730  0.8719
   35MOL   O46319571   7.743   0.199   0.903 -0.4819  0.1269  0.3537
   35MOL   C46419572   7.908   8.022   1.084  0.6121  0.2620 -0.7828
   35MOL   C46519573   7.967   7.988   1.207  0.6124  0.1707 -0.1841
   35MOL   H46619574   7.976   7.879   1.928 -2.7282  0.0604 -1.4874
   35MOL   H46719575   7.851   7.996   1.949  0.2275  1.7275 -0.4661
   35MOL   H46819576   0.043   8.055   1.881  0.1665 -0.6223  0.7994
   35MOL   H46919577   8.045   0.087   1.942  0.8692  1.8213 -1.7597
   35MOL   H47019578   7.969   8.016   1.699 -0.4472 -0.7201  1.2819
   35MOL   H47119579   7.895   0.069   1.752  0.1832 -0.1112 -0.3450
   35MOL   H47219580   0.020   0.175   1.667 -0.2680  0.6935 -0.7689
   35MOL   H47319581   0.072   0.004   1.654  0.2283  0.7275  1.2611
   35MOL   H47419582   7.977   0.211   1.329 -1.8573  0.8106 -1.1305
   35MOL   H47519583   7.888   0.265   1.114 -0.3702  0.2098  0.9325
   35MOL   H47619584   7.888   7.949   1.007  0.4567 -0.0982 -0.3979
   35MOL   H47719585   7.998   7.888   1.233  0.4579  0.6220  1.7975
   35MOL   O47819586   7.820   8.095   0.825 -0.0449 -0.0951 -0.3958
   35MOL   C47919587   7.762   0.017   0.695 -0.1205  0.8857  0.0410
   35MOL   C48019588   7.804   8.001   0.605 -0.3168 -1.0267  0.6364
   35MOL   C48119589   7.710   7.993   0.481  0.4586 -0.0856 -0.0542
   35MOL   C48219590   7.746   7.902   0.364 -0.2155 -0.5220  0.4996
   35MOL   O48319591   7.743   7.765   0.398 -0.7252  0.6023 -0.5904
   35MOL   C48419592   7.762   7.662   0.306 -0.0652 -0.4093  0.4911
   35MOL   O48519593   7.778   7.690   0.186  0.2464  0.5040  0.1104
   35MOL   C48619594   7.781   7.527   0.369  0.1025  1.2252  0.0843
   35MOL   C48719595   7.750   7.409   0.299 -0.6889  0.1413  0.2590
   35MOL   C48819596   7.773   7.275   0.353  0.0637  0.3894 -0.2647
   35MOL   C48919597   7.838   7.270   0.478  0.0174 -0.1316  0.2409
   35MOL   C49019598   7.878   7.138   0.541 -0.1108 -0.3579 -0.1377
   35MOL   O49119599   7.874   7.025   0.492  0.0114  0.3106  0.0456
   35MOL   C49219600   7.878   7.392   0.550  0.2902  0.0477 -0.4614
   35MOL   C49319601   7.841   7.518   0.500  0.5344 -0.3922 -0.0437
   35MOL   H49419602   7.654   0.007   0.703 -0.2095  0.8850 -1.1078
   35MOL   H49519603   7.780   0.118   0.660 -2.1357  0.2294 -3.0814
   35MOL   H49619604   7.815   7.908   0.661 -1.2508 -1.2858  0.4049
   35MOL   H49719605   7.906   8.018   0.569 -1.0499  0.1673 -0.9081
   35MOL   H49819606   7.611   7.956   0.505  0.8384  0.6938  2.9825
   35MOL   H49919607   7.700   8.091   0.435 -1.9057  0.5424  1.7080
   35MOL   H50019608   7.673   7.918   0.285  0.5876  1.4960  0.1230
   35MOL   H50119609   7.843   7.930   0.322  0.0375 -2.5272 -0.2887
   35MOL   H50219610   7.729   7.423   0.194 -1.4863  0.6917  0.4842
   35MOL   H50319611   7.749   7.194   0.285  0.1865 -0.5558  0.8130
   35MOL   H50419612   7.938   7.395   0.639 -1.6280  0.3661  0.8410
   35MOL   H50519613   7.878   7.603   0.555  0.7661  0.6289 -1.7383
   35MOL   O50619614   7.946   7.152   0.662  0.1781  0.5742  0.0159
   35MOL   C50719615   8.015   7.036   0.706 -0.3079 -0.4670  0.0969
   35MOL   C50819616   0.003   7.085   0.826 -0.2359 -0.6637 -0.1761
   35MOL   C50919617   0.048   6.970   0.925 -0.7412  0.0838  0.3763
   35MOL   C51019618   0.149   7.023   1.023 -0.3401  0.2686 -0.2161
   35MOL   O51119619   0.238   6.920   1.070  0.2573 -0.9289 -0.1272
   35MOL   C51219620   0.342   6.949   1.153  0.5654  0.2623  0.7911
   35MOL   O51319621   0.346   7.056   1.208  0.0344 -0.2399  0.3713
   35MOL   C51419622   0.449   6.850   1.148 -0.6963  0.2451 -0.4465
   35MOL   C51519623   0.466   6.751   1.052 -0.8580 -0.2098  0.3105
   35MOL   C51619624   0.577   6.660   1.056  0.0923  0.2339 -0.4004
   35MOL   C51719625   0.662   6.672   1.165 -0.9000  0.4364 -0.8872
   35MOL   C51819626   0.780   6.580   1.178  0.4017  0.7367  0.4188
   35MOL   O51919627   0.834   6.523   1.079  0.4294 -0.1396  0.3781
   35MOL   C52019628   0.650   6.775   1.261 -0.5623  0.1142 -0.3696
   35MOL   C52119629   0.548   6.865   1.249  0.7002 -0.3411 -0.1391
   35MOL   H52219630   7.952   6.957   0.747 -0.2774  0.0368  1.1235
   35MOL   H52319631   8.076   7.001   0.623 -1.7177  0.7202 -1.4932
   35MOL   H52419632   8.040   7.158   0.879  1.5667  0.7362  0.0443
   35MOL   H52519633   0.083   7.144   0.779  0.6561 -0.4187  1.5975
   35MOL   H52619634   8.060   6.932   0.979 -0.6155  1.2542  1.4386
   35MOL   H52719635   0.085   6.880   0.876 -4.5313 -2.1780  1.4859
   35MOL   H52819636   0.213   7.101   0.980  1.9124 -0.5697  1.5170
   35MOL   H52919637   0.095   7.063   1.108 -0.4055 -2.4614  1.0779
   35MOL   H53019638   0.408   6.736   0.963 -1.4701 -1.8809  0.9728
   35MOL   H53119639   0.593   6.587   0.978 -0.1629  1.3439 -1.4969
   35MOL   H53219640   0.724   6.780   1.340  1.2300 -0.3126 -1.9839
   35MOL   H53319641   0.533   6.945   1.321 -1.0718 -1.4771  0.7925
   35MOL   O53419642   0.841   6.583   1.298 -0.2317  0.8243 -0.3778
   35MOL   C53519643   0.961   6.511   1.317 -1.4179  0.1787  0.8143
   35MOL   C53619644   1.081   6.596   1.281  0.5678  0.5478 -0.5836
   35MOL   C53719645   1.074   6.744   1.320  1.1175 -0.3200 -0.2511
   35MOL   C53819646   1.196   6.833   1.273  0.2566  0.0966  0.0455
   35MOL   O53919647   1.313   6.785   1.337 -0.0983 -0.6391  0.0776
   35MOL   C54019648   1.417   6.866   1.363 -0.4253  0.1879 -0.0079
   35MOL   O54119649   1.435   6.972   1.298 -0.2998  0.3195  0.0137
   35MOL   C54219650   1.500   6.826   1.484 -0.8004 -0.4127 -0.2452
   35MOL   C54319651   1.605   6.909   1.517 -0.0914 -0.4608 -0.0674
   35MOL   C54419652   1.684   6.882   1.631  0.1490 -1.2381  1.2074
   35MOL   C54519653   1.670   6.761   1.695 -0.0096  0.2200  0.1127
   35MOL   C54619654   1.762   6.737   1.807 -0.1174  0.3959  0.0030
   35MOL   O54719655   1.781   6.619   1.841 -0.5185 -0.2121 -0.2013
   35MOL   C54819656   1.563   6.680   1.665 -0.1012  0.2459 -0.0483
   35MOL   C54919657   1.465   6.711   1.560 -0.5895  0.3052  0.3657
   35MOL   H55019658   0.973   6.461   1.413 -2.1815 -2.3295 -0.3549
   35MOL   H55119659   0.972   6.427   1.248 -2.3285  1.6423 -1.1741
   35MOL   H55219660   1.101   6.595   1.174 -0.0697  1.3997 -0.7225
   35MOL   H55319661   1.168   6.559   1.334 -0.9267 -0.8582  0.9404
   35MOL   H55419662   0.991   6.788   1.264 -0.8256  0.9152  3.4624
   35MOL   H55519663   1.061   6.761   1.427  1.1204 -0.0915 -0.2882
   35MOL   H55619664   1.215   6.809   1.169  2.6669  0.3165  0.4206
   35MOL   H55719665   1.170   6.938   1.280  0.8148  0.2418 -0.0696
   35MOL   H55819666   1.625   7.000   1.462 -2.9753 -1.0634 -2.2308
   35MOL   H55919667   1.768   6.946   1.650 -1.6553  0.7801  2.6302
   35MOL   H56019668   1.543   6.590   1.721 -0.7739  0.1793 -0.3884
   35MOL   H56119669   1.375   6.655   1.540  0.0392 -0.8450  0.7494
   35MOL   H56219670   1.806   6.825   1.853  1.0030 -1.4538  2.5550
   36MOL     O119671   0.233   7.644   6.637 -0.2019  0.5482 -0.6381
   36MOL     C219672   0.264   7.701   6.509 -0.2876  0.5568  0.0056
   36MOL     C319673   0.138   7.753   6.446 -0.1935 -0.0164 -0.0456
   36MOL     C419674   0.053   7.637   6.381  0.0878 -0.5441  0.1993
   36MOL     C519675   8.035   7.697   6.297 -0.8588  0.7223  0.0654
   36MOL     O619676   7.950   7.599   6.239  0.0399 -0.1712  0.1287
   36MOL     C719677   7.827   7.633   6.196  0.3615 -0.2774 -0.3020
   36MOL     O819678   7.779   7.748   6.213 -0.2075 -0.7412  0.4848
   36MOL     C919679   7.762   7.523   6.119  0.4558 -0.2530 -0.6897
   36MOL    C1019680   7.625   7.532   6.082 -0.7228 -0.0990  0.3165
   36MOL    C1119681   7.562   7.444   6.001  0.0204  0.3762 -0.4603
   36MOL    C1219682   7.638   7.326   5.966  0.6716  0.0164 -0.5509
   36MOL    C1319683   7.574   7.229   5.878  0.3815  0.2705  0.2235
   36MOL    O1419684   7.639   7.135   5.827  0.5405 -0.1296  0.2224
   36MOL    C1519685   7.770   7.304   6.020  0.0811 -0.3868 -0.8405
   36MOL    C1619686   7.832   7.401   6.089  0.3157  0.6725  0.3910
   36MOL    H1719687   0.312   7.797   6.529 -0.3848  0.4786  0.6113
   36MOL    H1819688   0.328   7.638   6.447 -0.2615  0.0682  0.5270
   36MOL    H1919689   0.159   7.824   6.366 -0.7423 -0.7927 -0.9073
   36MOL    H2019690   0.083   7.807   6.523 -0.4305  2.8055 -2.1089
   36MOL    H2119691   0.110   7.579   6.308 -0.8778 -0.0628 -0.9528
   36MOL    H2219692   0.011   7.575   6.461 -0.6965 -0.2313  0.0310
   36MOL    H2319693   7.978   7.768   6.357 -1.2888 -0.5563  1.1827
   36MOL    H2419694   8.067   7.764   6.216 -2.1495  1.4033  0.1013
   36MOL    H2519695   7.563   7.612   6.118 -2.4566 -1.3512  0.1845
   36MOL    H2619696   7.457   7.461   5.987 -0.0248  0.9650  0.5729
   36MOL    H2719697   7.822   7.211   6.005  1.0433  0.1388 -0.8024
   36MOL    H2819698   7.934   7.391   6.122  0.7671  1.8532 -0.6174
   36MOL    H2919699   0.304   7.596   6.676 -1.3345 -0.0263  0.7367
   36MOL    O3019700   7.438   7.240   5.878  0.0362 -0.1245 -0.3566
   36MOL    C3119701   7.352   7.158   5.798  0.0199 -0.7774 -0.2626
   36MOL    C3219702   7.310   7.231   5.667  0.0021  0.3869  0.7643
   36MOL    C3319703   7.201   7.338   5.692 -0.4565  0.5409  0.1780
   36MOL    C3419704   7.252   7.463   5.748 -0.0268 -0.5972  0.2024
   36MOL    O3519705   7.307   7.547   5.645  0.4933  0.2861  0.2017
   36MOL    C3619706   7.442   7.550   5.647 -0.1024 -0.0038 -0.3491
   36MOL    O3719707   7.512   7.493   5.729 -0.1475 -0.1557  0.5094
   36MOL    C3819708   7.501   7.606   5.525 -0.2256  0.2225  0.3162
   36MOL    C3919709   7.621   7.555   5.469 -0.1613  0.4025  0.3259
   36MOL    C4019710   7.672   7.597   5.348 -0.7337  0.4602  0.0153
   36MOL    C4119711   7.607   7.701   5.282  0.5224 -0.1699 -0.0784
   36MOL    C4219712   7.641   7.745   5.142  0.0622  0.7363 -0.0626
   36MOL    O4319713   7.577   7.832   5.083 -0.1665  0.1541 -0.3329
   36MOL    C4419714   7.501   7.772   5.340  0.1924 -0.2067  0.4432
   36MOL    C4519715   7.442   7.723   5.458 -0.5454  0.5593 -0.5039
   36MOL    H4619716   7.409   7.068   5.776 -1.9362 -1.9422 -0.6717
   36MOL    H4719717   7.261   7.134   5.853  0.0481 -1.7318 -0.6306
   36MOL    H4819718   7.274   7.151   5.604 -0.5861  2.0735 -1.0826
   36MOL    H4919719   7.398   7.279   5.624  1.0916 -0.9146  1.4869
   36MOL    H5019720   7.141   7.349   5.602 -0.1820  1.7275  0.1290
   36MOL    H5119721   7.144   7.291   5.773  1.7135  0.8915  1.9645
   36MOL    H5219722   7.175   7.534   5.778 -0.5895 -1.2956  0.4247
   36MOL    H5319723   7.322   7.454   5.831  1.7067 -1.6128 -1.3222
   36MOL    H5419724   7.680   7.484   5.525  0.2624  1.2485  0.9668
   36MOL    H5519725   7.762   7.556   5.303 -1.0878 -3.5413  2.6964
   36MOL    H5619726   7.458   7.854   5.284  0.0183  0.2151  1.1724
   36MOL    H5719727   7.357   7.781   5.489 -1.4017 -0.7228 -0.4375
   36MOL    O5819728   7.748   7.684   5.096  0.3510 -0.5020 -0.1383
   36MOL    C5919729   7.819   7.737   4.985 -0.3059 -0.5236 -0.2258
   36MOL    C6019730   7.940   7.650   4.978 -1.1483 -0.1405  0.0154
   36MOL    C6119731   7.914   7.506   4.959  0.4739  0.4450  0.3947
   36MOL    C6219732   8.048   7.428   4.928 -0.1177 -0.0393 -0.7494
   36MOL    O6319733   8.096   7.437   4.797 -0.1579 -0.0419 -0.0247
   36MOL    C6419734   8.057   7.350   4.697 -0.2479  0.7732 -0.2767
   36MOL    O6519735   7.975   7.261   4.709 -0.3463 -0.3058 -0.0748
   36MOL    C6619736   0.015   7.381   4.566  0.7152  0.3671 -0.5242
   36MOL    C6719737   8.064   7.304   4.456 -0.0485  0.2204  1.1187
   36MOL    C6819738   0.009   7.333   4.324  0.5376 -0.3278  0.0462
   36MOL    C6919739   0.110   7.433   4.296 -0.3309 -0.0939  0.1395
   36MOL    C7019740   0.152   7.456   4.150  0.2816 -0.5822  0.2303
   36MOL    O7119741   0.134   7.364   4.069  0.1407  0.4870 -0.0034
   36MOL    C7219742   0.160   7.502   4.406 -0.0082  0.2669  0.9086
   36MOL    C7319743   0.107   7.484   4.534  0.7209  0.2134 -0.5572
   36MOL    H7419744   7.765   7.738   4.890  1.4084 -0.3454 -1.2168
   36MOL    H7519745   7.849   7.838   5.012  1.2424 -1.0766  0.1383
   36MOL    H7619746   8.016   7.665   5.054 -0.7689 -0.0501 -0.3779
   36MOL    H7719747   8.001   7.675   4.891  1.4229 -0.3314  1.7269
   36MOL    H7819748   7.869   7.478   5.054 -1.3996  0.9296 -0.3218
   36MOL    H7919749   7.847   7.484   4.876 -1.0806 -2.1240  2.2561
   36MOL    H8019750   0.019   7.463   5.004 -1.1799 -0.7824  0.5892
   36MOL    H8119751   8.042   7.320   4.946 -0.0998  0.4541  2.6133
   36MOL    H8219752   7.985   7.235   4.480  1.5627 -1.1860  2.4953
   36MOL    H8319753   8.055   7.290   4.239  1.0506 -0.2301 -0.3199
   36MOL    H8419754   0.241   7.573   4.395  0.7327 -0.4854  1.4062
   36MOL    H8519755   0.148   7.542   4.615 -1.2027 -0.0200  0.6253
   36MOL    O8619756   0.212   7.578   4.124  0.1605 -1.1220  0.1169
   36MOL    C8719757   0.257   7.612   3.996 -0.1272 -0.1293  0.6265
   36MOL    C8819758   0.138   7.666   3.913 -0.1678  0.4565  0.1345
   36MOL    C8919759   0.180   7.764   3.804 -0.1915  0.2213  0.3913
   36MOL    C9019760   0.076   7.816   3.701 -0.3353  0.4463  0.3139
   36MOL    O9119761   0.108   7.889   3.585 -0.9896 -0.2780 -0.0923
   36MOL    C9219762   0.177   7.836   3.475 -0.0915  0.3880 -0.0116
   36MOL    O9319763   0.223   7.720   3.468 -0.2076  0.3677  0.0788
   36MOL    C9419764   0.194   7.925   3.357  0.9119  0.3777  0.1810
   36MOL    C9519765   0.238   7.873   3.233  0.7306 -0.0087 -0.7261
   36MOL    C9619766   0.271   7.955   3.123 -0.2402  0.0670 -0.2115
   36MOL    C9719767   0.250   8.094   3.134  0.0520 -0.9761  0.3505
   36MOL    C9819768   0.270   0.095   3.019 -1.0003  0.4803  0.3590
   36MOL    O9919769   0.332   0.059   2.918 -0.3304  0.6404 -0.1754
   36MOL   C10019770   0.208   0.052   3.261  1.0463  0.4855 -0.4464
   36MOL   C10119771   0.176   8.065   3.371  0.2484  0.5658 -0.1362
   36MOL   H10219772   0.334   7.689   3.994 -0.8298  0.6187 -4.0857
   36MOL   H10319773   0.273   7.529   3.928 -1.6799 -1.4414  1.8050
   36MOL   H10419774   0.063   7.708   3.981 -0.6371  2.8781 -1.8492
   36MOL   H10519775   0.076   7.585   3.873  0.0304 -0.3140  1.3397
   36MOL   H10619776   0.246   7.841   3.844  0.3101 -0.6746  1.3187
   36MOL   H10719777   0.251   7.704   3.747  0.2912 -0.7894  2.0206
   36MOL   H10819778   0.008   7.738   3.667 -0.2354  0.5111 -0.0319
   36MOL   H10919779   0.001   7.872   3.758 -2.0583 -0.2340 -1.2235
   36MOL   H11019780   0.243   7.766   3.217 -1.2081 -0.1938 -0.2771
   36MOL   H11119781   0.306   7.911   3.031  0.5796 -0.1280  0.1851
   36MOL   H11219782   0.198   0.159   3.272  1.9127  0.3957  1.3433
   36MOL   H11319783   0.150   0.015   3.463 -1.2745 -1.1486  0.3715
   36MOL   O11419784   0.211   0.217   3.027 -0.0290  0.0600 -0.1693
   36MOL   C11519785   0.207   0.305   2.913 -0.1042 -0.0751  0.1523
   36MOL   C11619786   0.329   0.397   2.922 -0.1843 -0.6649 -0.7233
   36MOL   C11719787   0.451   0.346   2.848 -0.5012  0.0329  0.0707
   36MOL   C11819788   0.534   0.444   2.768  0.3259  0.0161  0.7901
   36MOL   O11919789   0.625   0.512   2.850  0.3044  0.0366 -0.5144
   36MOL   C12019790   0.656   0.640   2.831  0.2041 -0.2561  0.3673
   36MOL   O12119791   0.601   0.709   2.747  0.7584 -0.1754 -0.0826
   36MOL   C12219792   0.769   0.692   2.911  0.0199 -0.4603  0.9500
   36MOL   C12319793   0.805   0.830   2.912  0.4370  0.0653  0.4332
   36MOL   C12419794   0.910   0.874   2.995 -0.1743 -0.0538 -0.4663
   36MOL   C12519795   0.984   0.778   3.075 -0.0217  0.5317  0.3660
   36MOL   C12619796   1.104   0.825   3.155 -0.3442  0.9340  0.0876
   36MOL   O12719797   1.192   0.747   3.195  0.0177  0.5932 -0.0591
   36MOL   C12819798   0.947   0.645   3.070 -0.9298  0.4826  0.4046
   36MOL   C12919799   0.845   0.600   2.990 -0.0730  0.7093 -0.2094
   36MOL   H13019800   0.206   0.257   2.815  0.2771  3.9074 -1.8872
   36MOL   H13119801   0.113   0.357   2.932  1.2423  1.7423  2.0174
   36MOL   H13219802   0.354   0.421   3.025 -2.0532 -2.3705  0.1648
   36MOL   H13319803   0.295   0.492   2.879  1.2293  0.3587  0.3951
   36MOL   H13419804   0.504   0.278   2.915 -0.8835 -1.1413 -0.7758
   36MOL   H13519805   0.410   0.271   2.780  1.5223 -1.3412  0.3149
   36MOL   H13619806   0.587   0.393   2.688 -0.8985  0.9054 -0.5955
   36MOL   H13719807   0.464   0.511   2.719  1.2755  0.9545  0.7136
   36MOL   H13819808   0.746   0.898   2.852  3.3081  1.2941 -1.1120
   36MOL   H13919809   0.927   0.980   3.008 -1.2704  0.2525 -1.4498
   36MOL   H14019810   0.999   0.574   3.133 -2.1389 -1.5527 -0.8633
   36MOL   H14119811   0.821   0.495   3.002 -0.3657  0.7404 -0.5319
   36MOL   O14219812   1.119   0.960   3.166  0.4037 -0.1757  0.1083
   36MOL   C14319813   1.232   1.015   3.232 -0.3070  0.1474  0.4639
   36MOL   C14419814   1.215   1.168   3.232  0.2435 -0.6676  0.5050
   36MOL   C14519815   1.082   1.212   3.296  0.1320  0.6831 -0.0033
   36MOL   C14619816   1.064   1.362   3.284  0.1134 -0.0063  0.1560
   36MOL   O14719817   1.014   1.399   3.154  0.1654  0.0083 -0.0532
   36MOL   C14819818   0.881   1.403   3.132  0.2302  0.0002  0.3191
   36MOL   O14919819   0.798   1.359   3.211  0.1960  0.1545 -0.1148
   36MOL   C15019820   0.846   1.487   3.015 -0.3379  0.2633  0.1624
   36MOL   C15119821   0.711   1.527   2.991 -0.3568 -0.1712  0.2506
   36MOL   C15219822   0.677   1.593   2.874 -0.5600 -0.5276  0.3900
   36MOL   C15319823   0.773   1.621   2.776  0.0093  0.5706  0.0747
   36MOL   C15419824   0.728   1.676   2.645 -0.7820  0.2261 -0.0522
   36MOL   O15519825   0.613   1.719   2.630  0.5941 -0.2200  0.1634
   36MOL   C15619826   0.914   1.606   2.805  0.4063 -0.7986  0.0138
   36MOL   C15719827   0.945   1.538   2.928 -0.0742  0.6662  0.5910
   36MOL   H15819828   1.249   0.981   3.333  1.9133  2.9493  1.1056
   36MOL   H15919829   1.317   0.983   3.171 -1.8073 -1.0579 -1.0648
   36MOL   H16019830   1.205   1.204   3.130  1.3367 -1.5345  0.0896
   36MOL   H16119831   1.306   1.215   3.269 -0.0527  0.1806  0.1601
   36MOL   H16219832   0.999   1.150   3.262 -0.6870  1.3276  0.8023
   36MOL   H16319833   1.088   1.179   3.399 -2.6598  0.9359  0.2597
   36MOL   H16419834   0.987   1.397   3.352  0.4112  1.1344 -0.0862
   36MOL   H16519835   1.155   1.415   3.315  0.1763 -0.2226  0.3391
   36MOL   H16619836   0.628   1.497   3.053 -0.3511  0.4104  0.5361
   36MOL   H16719837   0.574   1.623   2.859 -0.4305 -0.6383 -0.7552
   36MOL   H16819838   0.995   1.636   2.740 -0.7823  1.4820 -0.4886
   36MOL   H16919839   1.044   1.502   2.952 -0.3537 -1.0742 -0.7359
   36MOL   O17019840   0.822   1.668   2.550 -0.2546 -0.7207  0.1645
   36MOL   C17119841   0.798   1.733   2.428 -0.7026 -0.7861  0.1473
   36MOL   C17219842   0.914   1.803   2.358 -0.7227 -0.1799 -0.3181
   36MOL   C17319843   0.905   1.812   2.206 -0.7280  0.6467  0.2601
   36MOL   C17419844   1.005   1.914   2.148  0.2482 -0.0927 -0.2549
   36MOL   O17519845   0.961   2.045   2.181 -0.7466 -0.5295  0.4296
   36MOL   C17619846   1.049   2.160   2.170 -0.2512 -0.4269 -0.3771
   36MOL   O17719847   1.170   2.146   2.151  0.4857 -0.0401  0.0231
   36MOL   C17819848   0.980   2.291   2.165  0.2821  0.0217 -0.4278
   36MOL   C17919849   0.854   2.302   2.110  0.6520 -0.7301 -0.0054
   36MOL   C18019850   0.785   2.425   2.102 -0.5736 -0.0559  0.3948
   36MOL   C18119851   0.846   2.538   2.164  0.2706 -0.0146  0.5127
   36MOL   C18219852   0.797   2.679   2.155  0.1005 -0.5006 -0.0541
   36MOL   O18319853   0.678   2.711   2.134  0.2132 -0.1162  0.3942
   36MOL   C18419854   0.970   2.516   2.227  0.2273 -0.7915 -0.2241
   36MOL   C18519855   1.041   2.400   2.230  0.0121  0.2304 -0.3092
   36MOL   H18619856   0.758   1.659   2.358 -1.0838  0.3187 -0.8161
   36MOL   H18719857   0.719   1.808   2.433  0.1090  0.0394  0.6529
   36MOL   H18819858   1.001   1.742   2.381 -0.4367  0.1378 -0.5421
   36MOL   H18919859   0.939   1.899   2.404  3.5924 -1.7960  0.9464
   36MOL   H19019860   0.926   1.711   2.171  1.3000  1.5738 -1.3060
   36MOL   H19119861   0.805   1.838   2.172  0.0859  1.7598 -1.3596
   36MOL   H19219862   1.102   1.880   2.184  0.4160  1.0177  0.3546
   36MOL   H19319863   1.005   1.914   2.039 -0.3852  0.6954 -0.2613
   36MOL   H19419864   0.801   2.221   2.060  1.0124 -0.4316 -0.8917
   36MOL   H19519865   0.685   2.416   2.064 -0.5320 -2.7819  0.8196
   36MOL   H19619866   1.028   2.600   2.264 -0.6199 -0.1935 -0.2351
   36MOL   H19719867   1.136   2.395   2.281 -0.9118  0.8361  1.5313
   36MOL   O19819868   0.893   2.769   2.174  0.0589  0.3397 -0.5105
   36MOL   C19919869   0.853   2.900   2.202 -0.7148  0.7447 -0.1115
   36MOL   C20019870   0.900   2.989   2.090 -0.0295  0.3540  0.1425
   36MOL   C20119871   0.872   3.140   2.117 -0.1034  0.2341 -0.1625
   36MOL   C20219872   0.950   3.200   2.231  0.1573 -0.4450  0.0095
   36MOL   O20319873   0.891   3.174   2.357 -0.1412  0.5639  0.3863
   36MOL   C20419874   0.968   3.190   2.462  0.2977  0.0612  0.6981
   36MOL   O20519875   1.082   3.228   2.469  0.1862 -0.0289 -0.6484
   36MOL   C20619876   0.889   3.149   2.580 -0.7206 -0.4878 -0.0407
   36MOL   C20719877   0.765   3.084   2.568 -0.3621  0.7247 -0.1795
   36MOL   C20819878   0.690   3.032   2.676  0.0978  0.4924 -0.0318
   36MOL   C20919879   0.739   3.047   2.807 -0.2431  0.1019 -0.1658
   36MOL   C21019880   0.677   2.992   2.932 -0.1952  0.0165  0.0528
   36MOL   O21119881   0.588   2.910   2.935  0.7716 -0.1101 -0.7115
   36MOL   C21219882   0.862   3.113   2.820 -0.7369  0.1677 -0.6502
   36MOL   C21319883   0.932   3.173   2.712  0.6973  0.1682 -0.0195
   36MOL   H21419884   0.751   2.917   2.237 -0.8710  0.6678 -0.5299
   36MOL   H21519885   0.905   2.922   2.295  0.7045 -2.0845 -0.1792
   36MOL   H21619886   0.838   2.968   2.003 -0.6824  1.0772  0.4301
   36MOL   H21719887   1.003   2.966   2.062 -0.8152 -0.4296 -2.2269
   36MOL   H21819888   0.900   3.189   2.024  1.4325  1.9619  1.1785
   36MOL   H21919889   0.765   3.153   2.131 -0.2090 -1.2041  0.4388
   36MOL   H22019890   1.052   3.164   2.237  0.4995  0.3130 -0.9655
   36MOL   H22119891   0.950   3.309   2.229  0.1187 -0.4411  0.2103
   36MOL   H22219892   0.720   3.073   2.471 -0.8216  3.1575 -0.2621
   36MOL   H22319893   0.594   2.989   2.651  0.0596  0.3438  0.3668
   36MOL   H22419894   0.912   3.136   2.913  0.4740  0.9956 -1.4854
   36MOL   H22519895   1.027   3.222   2.730  0.5437  0.3656  0.2535
   36MOL   O22619896   0.724   3.054   3.036 -0.4580  0.5773  0.2085
   36MOL   C22719897   0.683   3.016   3.168 -0.0500  0.7659  0.9290
   36MOL   C22819898   0.726   3.121   3.265  0.4090 -0.3090  0.2316
   36MOL   C22919899   0.685   3.098   3.408 -0.7507  0.3797 -1.0729
   36MOL   C23019900   0.787   3.158   3.506  0.7857 -0.3286  1.1504
   36MOL   O23119901   0.768   3.093   3.630 -0.1227 -0.1584 -0.1781
   36MOL   C23219902   0.675   3.125   3.715  0.1855 -0.1679 -0.2524
   36MOL   O23319903   0.576   3.192   3.692 -0.2376  0.0670 -0.1426
   36MOL   C23419904   0.695   3.051   3.840  0.4522  0.5757  0.6431
   36MOL   C23519905   0.619   3.091   3.954 -0.8972 -0.9813 -0.4480
   36MOL   C23619906   0.645   3.026   4.076  0.3298 -0.6857  0.2668
   36MOL   C23719907   0.724   2.909   4.085  0.6913 -0.3220 -0.0994
   36MOL   C23819908   0.747   2.852   4.216 -0.6772  0.1388  0.8407
   36MOL   O23919909   0.701   2.888   4.327  0.5417 -0.4871  0.4966
   36MOL   C24019910   0.787   2.862   3.966  0.1600  0.0417 -0.0747
   36MOL   C24119911   0.775   2.934   3.848 -0.3706  0.5536  0.5225
   36MOL   H24219912   0.575   3.024   3.172 -0.2662 -0.8884 -0.8656
   36MOL   H24319913   0.718   2.916   3.196  0.3049  0.1111 -1.7119
   36MOL   H24419914   0.700   3.223   3.235  1.7733  0.2423  0.8587
   36MOL   H24519915   0.832   3.146   3.264  0.2874  0.1959 -1.6127
   36MOL   H24619916   0.590   3.152   3.417  0.3570  2.1808  0.1302
   36MOL   H24719917   0.671   2.992   3.430  1.5082  0.1010 -0.9352
   36MOL   H24819918   0.885   3.120   3.475 -0.0420  0.3871 -2.6764
   36MOL   H24919919   0.787   3.267   3.507 -2.7234 -0.2927  1.5046
   36MOL   H25019920   0.565   3.185   3.952 -0.8164 -0.9387 -0.6253
   36MOL   H25119921   0.594   3.065   4.163  0.4562  0.8882 -0.3561
   36MOL   H25219922   0.850   2.774   3.973  0.6736  0.3478 -0.8081
   36MOL   H25319923   0.825   2.909   3.755 -0.1695 -0.6261  0.9333
   36MOL   O25419924   0.827   2.749   4.207 -0.4908  0.2578 -0.1064
   36MOL   C25519925   0.879   2.682   4.323  0.0470  0.0512  0.4960
   36MOL   C25619926   0.965   2.558   4.291 -0.7000  0.0874  0.1755
   36MOL   C25719927   1.110   2.609   4.245 -0.4554 -0.3110  0.2313
   36MOL   C25819928   1.216   2.500   4.220 -0.1381 -0.2557  0.7332
   36MOL   O25919929   1.353   2.556   4.213 -0.2896  0.4304  0.8434
   36MOL   C26019930   1.436   2.547   4.317 -0.2604 -0.5059 -0.2659
   36MOL   O26119931   1.398   2.510   4.434 -0.3270  0.0487 -0.4172
   36MOL   C26219932   1.574   2.596   4.295  0.1307  0.1715  0.2838
   36MOL   C26319933   1.638   2.603   4.165 -0.1099 -0.9224  0.1714
   36MOL   C26419934   1.770   2.643   4.151 -1.1350 -0.3611  0.1214
   36MOL   C26519935   1.852   2.661   4.266 -0.4641  0.0178 -0.2749
   36MOL   C26619936   1.994   2.692   4.243 -0.3828 -0.1757  0.6477
   36MOL   O26719937   2.046   2.685   4.132  0.8228  0.0485 -0.2330
   36MOL   C26819938   1.793   2.650   4.397 -0.1352 -0.2425 -0.8611
   36MOL   C26919939   1.659   2.613   4.405 -0.3436  0.2772  0.0243
   36MOL   H27019940   0.927   2.758   4.384  0.2991 -1.6496  2.4740
   36MOL   H27119941   0.794   2.640   4.378 -0.7527 -1.0507 -1.5355
   36MOL   H27219942   0.911   2.503   4.214 -1.1833  1.6381 -0.6262
   36MOL   H27319943   0.972   2.500   4.384  1.7030  1.6440  1.0209
   36MOL   H27419944   1.108   2.660   4.148  2.8750  0.7085  0.6390
   36MOL   H27519945   1.154   2.662   4.329  0.8822 -1.8817  0.5554
   36MOL   H27619946   1.216   2.429   4.303  0.4905  1.0428  1.8675
   36MOL   H27719947   1.191   2.441   4.132  0.1506  0.6235  0.0483
   36MOL   H27819948   1.578   2.578   4.079  0.1566  0.8055 -0.5326
   36MOL   H27919949   1.801   2.679   4.054  2.0068 -0.1366  1.1770
   36MOL   H28019950   1.855   2.664   4.484 -1.4113 -0.6288  0.1279
   36MOL   H28119951   1.616   2.600   4.503  0.5060  1.2297  0.5259
   36MOL   O28219952   2.058   2.726   4.354  0.3121 -0.2809  0.6034
   36MOL   C28319953   2.201   2.737   4.347 -0.3289 -0.5939  0.1383
   36MOL   C28419954   2.265   2.762   4.482 -0.1271  0.1947  0.1146
   36MOL   C28519955   2.264   2.647   4.576 -0.1854  0.3645 -1.2507
   36MOL   C28619956   2.125   2.616   4.636  0.6480 -0.2163 -0.6158
   36MOL   O28719957   2.080   2.733   4.697  0.0284  0.0196  0.4245
   36MOL   C28819958   2.110   2.767   4.828 -0.1942  0.0793 -0.3690
   36MOL   O28919959   2.191   2.707   4.896 -0.7298 -0.3225 -0.4740
   36MOL   C29019960   2.033   2.891   4.875 -0.5239  0.1165 -0.4508
   36MOL   C29119961   1.960   2.977   4.782 -0.2479  0.1790 -0.5933
   36MOL   C29219962   1.897   3.092   4.835 -0.2598  0.2241  0.0710
   36MOL   C29319963   1.903   3.125   4.968 -0.1567  0.0965  0.3907
   36MOL   C29419964   1.823   3.245   5.018 -0.3594  0.2044  0.3131
   36MOL   O29519965   1.795   3.342   4.948 -0.1100  0.7238 -0.8605
   36MOL   C29619966   1.970   3.038   5.056 -0.0471 -0.3793  0.0036
   36MOL   C29719967   2.024   2.917   5.012 -0.4852 -0.4587 -0.1337
   36MOL   H29819968   2.251   2.648   4.309 -1.8631 -0.2709 -2.7996
   36MOL   H29919969   2.232   2.819   4.283  1.6351 -0.3799  1.3449
   36MOL   H30019970   2.211   2.843   4.530  1.6717  1.1985  0.4922
   36MOL   H30119971   2.367   2.797   4.470 -0.5556  1.5224  0.3506
   36MOL   H30219972   2.301   2.558   4.524  0.4778  0.4938 -1.0080
   36MOL   H30319973   2.329   2.660   4.662  0.7577 -3.9408 -1.1566
   36MOL   H30419974   2.068   2.576   4.552  0.3934 -1.0737 -0.0539
   36MOL   H30519975   2.145   2.536   4.708  1.8369 -0.9960 -1.7910
   36MOL   H30619976   1.965   2.955   4.677 -0.0847 -0.2169 -0.5035
   36MOL   H30719977   1.842   3.155   4.766 -1.3196 -2.0886 -1.2787
   36MOL   H30819978   1.959   3.061   5.161 -1.0068  0.0108 -0.1710
   36MOL   H30919979   2.062   2.842   5.079  0.9780 -0.8785 -1.3878
   36MOL   O31019980   1.792   3.216   5.142 -0.0009 -0.6124  0.4519
   36MOL   C31119981   1.722   3.310   5.224 -0.5628  0.5376 -0.5535
   36MOL   C31219982   1.595   3.240   5.267  0.0870 -0.8159  0.0928
   36MOL   C31319983   1.614   3.132   5.371  0.5237  0.3747 -0.7497
   36MOL   C31419984   1.476   3.085   5.436 -0.1086  0.0402 -0.3472
   36MOL   O31519985   1.482   3.126   5.570 -0.4600  0.4221  0.5515
   36MOL   C31619986   1.456   3.260   5.604 -0.5001 -0.1090 -0.6396
   36MOL   O31719987   1.430   3.350   5.528 -0.0112 -0.0306 -0.1317
   36MOL   C31819988   1.462   3.282   5.750 -1.2211  0.4379  0.1104
   36MOL   C31919989   1.553   3.206   5.829  1.0718  0.0431  0.5151
   36MOL   C32019990   1.570   3.231   5.963  0.1129  0.5834 -0.1451
   36MOL   C32119991   1.494   3.320   6.028 -0.0062 -0.2234  0.4507
   36MOL   C32219992   1.511   3.343   6.175 -0.1595  0.6006 -0.7808
   36MOL   O32319993   1.420   3.334   6.259  0.2999  0.0459 -0.2165
   36MOL   C32419994   1.396   3.390   5.957 -0.3001  0.7809  0.6007
   36MOL   C32519995   1.384   3.377   5.818 -0.8188 -0.2261  0.0208
   36MOL   H32619996   1.785   3.329   5.311 -1.1589  1.8238 -0.3981
   36MOL   H32719997   1.713   3.402   5.167 -1.1691  0.3842 -0.7161
   36MOL   H32819998   1.539   3.214   5.177 -1.2143 -1.2710  1.0194
   36MOL   H32919999   1.528   3.314   5.310  0.4419 -1.6802  2.1827
   36MOL   H33020000   1.645   3.045   5.314 -3.2903 -0.0933 -2.2442
   36MOL   H33120001   1.695   3.147   5.443 -0.3986  2.1650 -0.0328
   36MOL   H33220002   1.383   3.120   5.392 -1.1558 -0.9612  1.0683
   36MOL   H33320003   1.472   2.977   5.448  0.8943 -0.0429 -0.6411
   36MOL   H33420004   1.618   3.130   5.787 -0.1821 -1.3867  1.1077
   36MOL   H33520005   1.644   3.168   6.010  1.2242  1.0229 -1.2722
   36MOL   H33620006   1.338   3.470   6.000  0.2272  1.3219  0.3111
   36MOL   H33720007   1.313   3.433   5.758  2.0267  1.1955 -2.1062
   36MOL   O33820008   1.635   3.380   6.198  0.4726 -0.3022 -0.7094
   36MOL   C33920009   1.680   3.422   6.327  0.0563 -0.1704  0.3581
   36MOL   C34020010   1.833   3.430   6.329 -0.3241  0.1262 -0.0609
   36MOL   C34120011   1.898   3.490   6.459 -0.3312 -0.6379  0.4102
   36MOL   C34220012   2.044   3.448   6.473 -0.5709 -0.3508  0.1359
   36MOL   O34320013   2.110   3.501   6.358 -0.4018  0.3676  0.3147
   36MOL   C34420014   2.242   3.510   6.360 -0.1179 -0.0051  0.3223
   36MOL   O34520015   2.317   3.467   6.452  0.1735 -0.4522 -0.0859
   36MOL   C34620016   2.302   3.577   6.237  0.0434  0.0236  0.8357
   36MOL   C34720017   2.438   3.557   6.202  0.3505 -0.1931  0.6125
   36MOL   C34820018   2.494   3.624   6.090  0.2931 -0.2540 -0.6110
   36MOL   C34920019   2.416   3.699   6.003 -0.7460  0.2993 -0.2120
   36MOL   C35020020   2.473   3.766   5.889  0.3700  0.0552  0.4153
   36MOL   O35120021   2.588   3.748   5.847  0.1906  0.0584  0.3086
   36MOL   C35220022   2.281   3.715   6.035 -0.0745 -0.2203  0.1093
   36MOL   C35320023   2.227   3.662   6.152 -0.4472 -0.2247  0.0746
   36MOL   H35420024   1.638   3.523   6.336 -0.0650 -0.3529  1.8706
   36MOL   H35520025   1.647   3.359   6.409  1.9620 -1.9681 -0.2218
   36MOL   H35620026   1.860   3.490   6.242 -1.0588  0.2565 -0.1974
   36MOL   H35720027   1.868   3.330   6.300  0.3138  0.2622  0.2223
   36MOL   H35820028   1.890   3.597   6.439  0.6569 -0.5817  0.2872
   36MOL   H35920029   1.844   3.459   6.549  0.6567 -1.0954  0.8475
   36MOL   H36020030   2.078   3.489   6.568 -0.8667 -1.1825  0.6056
   36MOL   H36120031   2.042   3.339   6.481 -1.5102 -0.2303  1.8209
   36MOL   H36220032   2.499   3.485   6.255  1.4064  2.3575  2.9889
   36MOL   H36320033   2.600   3.613   6.078  0.4478  0.5643 -0.0887
   36MOL   H36420034   2.217   3.767   5.965 -0.9134  0.1589  1.1555
   36MOL   H36520035   2.124   3.686   6.171  0.3381  2.0093  1.7169
   36MOL   O36620036   2.385   3.851   5.826 -0.5241 -0.6538 -0.2666
   36MOL   C36720037   2.408   3.912   5.693 -0.7773 -0.5586  0.6199
   36MOL   C36820038   2.285   3.883   5.604 -0.1830  0.4822  0.4733
   36MOL   C36920039   2.157   3.946   5.669  0.8318  0.5100  0.2797
   36MOL   C37020040   2.154   4.099   5.650  0.3293 -0.2181  0.6910
   36MOL   O37120041   2.134   4.139   5.518  0.6434  0.3405  0.1093
   36MOL   C37220042   2.006   4.162   5.478 -0.3536 -0.3885  0.3301
   36MOL   O37320043   1.907   4.182   5.561 -0.8863 -0.1184 -0.4113
   36MOL   C37420044   1.987   4.160   5.328  0.0503  0.3011  0.3173
   36MOL   C37520045   2.093   4.112   5.246 -0.4372  0.0086  0.6752
   36MOL   C37620046   2.073   4.104   5.103  0.0220 -0.0765  0.1156
   36MOL   C37720047   1.948   4.139   5.048 -0.4492  0.0897  0.7832
   36MOL   C37820048   1.928   4.127   4.901 -0.2063  0.4287  0.4511
   36MOL   O37920049   2.022   4.097   4.825 -0.1035 -0.1465  0.5409
   36MOL   C38020050   1.849   4.192   5.131  0.1406 -0.6736 -0.4608
   36MOL   C38120051   1.860   4.186   5.272  0.2806  0.1134 -0.3207
   36MOL   H38220052   2.432   4.018   5.697  0.4757 -0.7211 -1.4486
   36MOL   H38320053   2.496   3.862   5.651 -0.8984  0.1907 -0.5708
   36MOL   H38420054   2.278   3.776   5.581 -0.5209  0.7074 -0.4933
   36MOL   H38520055   2.301   3.941   5.514  0.5102 -0.6149 -0.1208
   36MOL   H38620056   2.070   3.917   5.611  1.1046  0.9933 -0.3797
   36MOL   H38720057   2.155   3.925   5.776 -0.9000 -1.7651 -0.1716
   36MOL   H38820058   2.088   4.143   5.726 -0.2658 -0.1361  0.1301
   36MOL   H38920059   2.245   4.144   5.690  2.3758 -3.2770 -0.4188
   36MOL   H39020060   2.179   4.062   5.287  0.4030 -1.1199 -2.3181
   36MOL   H39120061   2.154   4.072   5.039 -1.6662 -0.2103 -1.9797
   36MOL   H39220062   1.757   4.227   5.088 -1.2692 -0.0211  2.9198
   36MOL   H39320063   1.777   4.219   5.333  0.5755  1.1966 -0.4874
   36MOL   O39420064   1.804   4.164   4.867 -0.0668 -0.0730 -0.1739
   36MOL   C39520065   1.777   4.204   4.733 -0.0091 -0.1879 -0.2229
   36MOL   C39620066   1.744   4.081   4.647 -0.1027 -0.4002 -0.1094
   36MOL   C39720067   1.603   4.024   4.691  0.2679  0.8312  0.1613
   36MOL   C39820068   1.525   3.918   4.606 -0.5997  0.4060  0.4354
   36MOL   O39920069   1.501   3.960   4.474  0.3363  0.1089  0.0720
   36MOL   C40020070   1.386   3.921   4.406  0.2609  0.1355  0.1012
   36MOL   O40120071   1.302   3.833   4.454 -0.4457 -0.2224  0.7480
   36MOL   C40220072   1.372   3.994   4.277 -0.0529  0.5517  0.1752
   36MOL   C40320073   1.481   4.067   4.224  0.8431 -0.3982 -0.7126
   36MOL   C40420074   1.467   4.148   4.108 -0.6559  0.0911 -0.4906
   36MOL   C40520075   1.344   4.141   4.041  0.0029 -0.5151 -0.3600
   36MOL   C40620076   1.328   4.228   3.912 -0.4802 -0.0133 -0.2026
   36MOL   O40720077   1.428   4.281   3.858 -0.4819 -0.5590  0.7841
   36MOL   C40820078   1.240   4.060   4.085  0.0601  0.9846 -0.6449
   36MOL   C40920079   1.251   3.977   4.201 -0.0467  0.1109 -0.0409
   36MOL   H41020080   1.695   4.275   4.740 -0.7812 -1.2476  1.7004
   36MOL   H41120081   1.864   4.264   4.704  0.6006  0.3315  2.5609
   36MOL   H41220082   1.829   4.011   4.645  1.7259  1.7375  0.8562
   36MOL   H41320083   1.743   4.121   4.545  0.9170 -2.1347 -0.8366
   36MOL   H41420084   1.621   3.970   4.784  0.8189  2.4748  1.0278
   36MOL   H41520085   1.543   4.107   4.727  1.8823  1.8392  0.5778
   36MOL   H41620086   1.572   3.820   4.602 -1.7970 -0.1290 -0.7310
   36MOL   H41720087   1.433   3.900   4.662 -2.1287  1.8309 -1.5225
   36MOL   H41820088   1.573   4.068   4.281 -0.9720 -0.6433  2.3346
   36MOL   H41920089   1.548   4.210   4.072  0.5713  0.0072  2.0041
   36MOL   H42020090   1.144   4.062   4.036 -1.7913 -2.1933  2.5407
   36MOL   H42120091   1.168   3.912   4.222  0.0189 -0.0531 -0.2887
   36MOL   O42220092   1.200   4.242   3.865 -0.0435  0.3940  0.0508
   36MOL   C42320093   1.159   4.354   3.784  0.7040 -0.4021  0.1626
   36MOL   C42420094   1.186   4.309   3.640 -0.2257 -1.0239  0.2861
   36MOL   C42520095   1.170   4.422   3.534  0.2476 -0.5241  0.0419
   36MOL   C42620096   1.280   4.527   3.538  0.4776  0.1405 -0.4865
   36MOL   O42720097   1.396   4.471   3.479 -0.1276 -0.3174  0.4236
   36MOL   C42820098   1.520   4.506   3.522 -0.0246  0.7438  0.4089
   36MOL   O42920099   1.540   4.584   3.617  0.3517  0.1739 -0.1250
   36MOL   C43020100   1.623   4.433   3.437 -0.6205 -0.5412 -0.2280
   36MOL   C43120101   1.582   4.333   3.346 -0.4130  0.1813 -0.6540
   36MOL   C43220102   1.675   4.272   3.264  0.2524  0.4180  0.0196
   36MOL   C43320103   1.810   4.310   3.273 -0.8630 -0.7417 -0.2142
   36MOL   C43420104   1.909   4.246   3.180 -0.1667 -0.3196  0.2615
   36MOL   O43520105   1.868   4.151   3.108  0.3066 -0.1841  0.7997
   36MOL   C43620106   1.851   4.411   3.364  0.1507 -0.2217 -0.3332
   36MOL   C43720107   1.757   4.476   3.446  0.8456  0.3627 -0.1414
   36MOL   H43820108   1.050   4.355   3.796  0.7926  0.0629  0.9371
   36MOL   H43920109   1.208   4.448   3.807 -1.1903  1.3343 -2.4938
   36MOL   H44020110   1.124   4.227   3.604  0.6230 -1.6491  0.2335
   36MOL   H44120111   1.288   4.271   3.628 -0.0869 -0.7797  0.6921
   36MOL   H44220112   1.168   4.382   3.432  0.8606 -0.1669 -0.1125
   36MOL   H44320113   1.069   4.461   3.547  0.2823  0.1662 -1.5923
   36MOL   H44420114   1.253   4.616   3.482  1.7714 -0.6470 -2.4139
   36MOL   H44520115   1.306   4.550   3.641 -0.8543  1.9526 -0.5463
   36MOL   H44620116   1.482   4.302   3.320 -1.0674 -0.3026  2.2412
   36MOL   H44720117   1.652   4.201   3.187  1.4301  2.5613 -2.3782
   36MOL   H44820118   1.953   4.447   3.362  0.4481 -0.8401  2.4942
   36MOL   H44920119   1.789   4.547   3.521  0.4902 -1.2929  1.6175
   36MOL   O45020120   2.034   4.297   3.186 -0.2915  0.3972 -0.1978
   36MOL   C45120121   2.127   4.275   3.079  1.0082  0.0121 -0.1317
   36MOL   C45220122   2.216   4.145   3.103  0.5885 -0.6188  0.5711
   36MOL   C45320123   2.304   4.104   2.980  0.2862  0.2218 -0.1490
   36MOL   C45420124   2.373   3.966   2.994 -0.0236 -0.4622  1.1338
   36MOL   O45520125   2.449   3.951   2.875  0.4389 -0.4900  0.0406
   36MOL   C45620126   2.416   3.850   2.794 -0.0277 -0.3697  0.6178
   36MOL   O45720127   2.307   3.791   2.800  0.0672  0.3873 -0.1339
   36MOL   C45820128   2.514   3.834   2.685  0.5802  0.4844  0.9601
   36MOL   C45920129   2.473   3.764   2.568  0.1292  0.0183 -0.7373
   36MOL   C46020130   2.560   3.741   2.462  0.2732 -0.2793  0.4076
   36MOL   C46120131   2.694   3.784   2.474  0.3569 -0.4566  0.5792
   36MOL   C46220132   2.785   3.755   2.354  0.7099  0.4572  0.0169
   36MOL   O46320133   2.885   3.818   2.327 -0.2330 -0.0820  0.8075
   36MOL   C46420134   2.742   3.850   2.589 -0.1520 -0.6056  0.2527
   36MOL   C46520135   2.651   3.869   2.698  0.0052 -0.0369 -0.1004
   36MOL   H46620136   2.078   4.265   2.982 -1.3352  0.6123  0.9445
   36MOL   H46720137   2.178   4.371   3.074 -2.3877  1.8272 -1.9395
   36MOL   H46820138   2.150   4.065   3.136 -0.3376  0.5149  1.4799
   36MOL   H46920139   2.279   4.166   3.189  1.6481 -0.6918 -0.1800
   36MOL   H47020140   2.223   4.108   2.907  0.3246 -0.8204 -0.2630
   36MOL   H47120141   2.365   4.193   2.966  3.3414 -1.5931  1.1035
   36MOL   H47220142   2.439   3.956   3.081  1.5131 -1.1934 -0.1097
   36MOL   H47320143   2.303   3.883   3.004  0.0209 -0.4896  1.2248
   36MOL   H47420144   2.374   3.720   2.568 -0.1796  0.4587  3.6050
   36MOL   H47520145   2.514   3.700   2.374 -0.4008  1.8173 -0.2497
   36MOL   H47620146   2.846   3.879   2.596 -0.1438 -0.5346 -0.1377
   36MOL   H47720147   2.692   3.914   2.787  0.5499 -0.4544 -0.1378
   36MOL   O47820148   2.743   3.643   2.295 -0.4529  0.0007  0.3522
   36MOL   C47920149   2.817   3.604   2.178 -0.9503 -0.0222  0.4663
   36MOL   C48020150   2.749   3.667   2.052 -0.1150 -0.8398  0.1866
   36MOL   C48120151   2.821   3.599   1.936 -0.3004  0.3705  0.5822
   36MOL   C48220152   2.757   3.614   1.796  0.2677 -1.0514  0.1196
   36MOL   O48320153   2.627   3.566   1.808 -0.5683  0.0402  0.1800
   36MOL   C48420154   2.529   3.605   1.722 -0.5658  0.1559 -0.2081
   36MOL   O48520155   2.553   3.669   1.616 -0.8729 -0.5628  0.0882
   36MOL   C48620156   2.393   3.563   1.762 -0.0969 -0.1966  0.0705
   36MOL   C48720157   2.370   3.451   1.852 -0.2029  0.5875 -0.3529
   36MOL   C48820158   2.243   3.414   1.894 -0.1553 -0.3804  0.5931
   36MOL   C48920159   2.128   3.482   1.848  0.2527  0.3632  0.3303
   36MOL   C49020160   1.993   3.446   1.910  0.4957  0.4874 -0.4680
   36MOL   O49120161   1.977   3.351   1.987  0.0695  0.2726  0.3376
   36MOL   C49220162   2.145   3.588   1.754 -0.4167  0.2307 -0.1027
   36MOL   C49320163   2.273   3.621   1.710 -0.2193 -0.4014  0.0657
   36MOL   H49420164   2.916   3.650   2.180 -1.5175  1.2259  1.1894
   36MOL   H49520165   2.837   3.497   2.182 -0.2233 -0.0202 -2.5364
   36MOL   H49620166   2.772   3.774   2.055  0.5599 -0.9259 -1.3427
   36MOL   H49720167   2.644   3.641   2.049  0.4925 -3.3831  0.1689
   36MOL   H49820168   2.928   3.622   1.937 -0.1094 -0.3108 -1.1153
   36MOL   H49920169   2.807   3.492   1.949 -0.7625  0.1227 -1.6323
   36MOL   H50020170   2.748   3.719   1.765 -1.5414 -0.9511  0.9501
   36MOL   H50120171   2.813   3.562   1.718  1.4948 -1.8902  1.5391
   36MOL   H50220172   2.455   3.407   1.903 -1.5842  0.1604  1.5984
   36MOL   H50320173   2.228   3.339   1.970 -1.4477 -1.7020 -0.9199
   36MOL   H50420174   2.062   3.641   1.710 -0.7784 -0.8901 -0.7730
   36MOL   H50520175   2.271   3.699   1.635 -1.6314  0.0848  0.5911
   36MOL   O50620176   1.890   3.524   1.861  0.2323  0.5660 -0.0771
   36MOL   C50720177   1.757   3.486   1.873  0.8424 -0.5347  0.4007
   36MOL   C50820178   1.687   3.578   1.968  0.3705  0.2776 -0.0883
   36MOL   C50920179   1.530   3.571   1.974 -0.7679 -0.4080 -0.6420
   36MOL   C51020180   1.456   3.687   2.043 -0.4469  0.4175  0.4045
   36MOL   O51120181   1.481   3.712   2.179 -0.3808 -0.2045  0.0730
   36MOL   C51220182   1.377   3.763   2.252  0.0091 -0.1806 -0.1166
   36MOL   O51320183   1.263   3.776   2.208  0.4841 -0.2030 -0.1554
   36MOL   C51420184   1.412   3.807   2.393 -0.1285 -0.4456  0.7916
   36MOL   C51520185   1.317   3.872   2.471 -0.2062 -0.5925  1.0545
   36MOL   C51620186   1.345   3.909   2.603 -0.1629  0.7354  0.3369
   36MOL   C51720187   1.475   3.884   2.655  0.7190 -0.1953 -0.0529
   36MOL   C51820188   1.522   3.937   2.788  0.5614  0.9757 -0.2475
   36MOL   O51920189   1.464   4.029   2.853 -0.2042 -0.5915 -0.0378
   36MOL   C52020190   1.565   3.813   2.580 -0.4249  0.1745 -0.2148
   36MOL   C52120191   1.537   3.774   2.449 -0.3503  0.4518 -0.1439
   36MOL   H52220192   1.715   3.509   1.775 -0.0889 -0.6585  0.7706
   36MOL   H52320193   1.742   3.380   1.892  1.4494 -0.5446  0.8283
   36MOL   H52420194   1.721   3.681   1.955 -2.4315  1.2124 -0.1997
   36MOL   H52520195   1.720   3.540   2.065  0.6491  2.1878  0.5933
   36MOL   H52620196   1.499   3.562   1.870 -1.1716  0.7648 -0.6294
   36MOL   H52720197   1.500   3.483   2.031 -0.9125  0.1782  0.2034
   36MOL   H52820198   1.483   3.777   1.988 -1.4045  0.4336 -0.0684
   36MOL   H52920199   1.350   3.680   2.015 -1.1373 -0.9347  3.1698
   36MOL   H53020200   1.215   3.885   2.439 -0.0826 -1.3655  0.3431
   36MOL   H53120201   1.271   3.952   2.669  0.2977 -0.7044  1.8406
   36MOL   H53220202   1.663   3.784   2.613 -1.7070 -0.1673  3.6034
   36MOL   H53320203   1.619   3.727   2.397  0.1376  0.7970  0.3107
   36MOL   O53420204   1.624   3.859   2.839 -0.1893 -0.2975  0.5429
   36MOL   C53520205   1.663   3.875   2.976  0.0996  0.3276 -0.2860
   36MOL   C53620206   1.814   3.837   2.993 -0.0257 -0.4091 -0.2277
   36MOL   C53720207   1.835   3.685   2.974  0.0557 -0.5237  0.0014
   36MOL   C53820208   1.973   3.628   2.964 -0.1996  0.6822  0.2860
   36MOL   O53920209   1.973   3.488   2.941  0.1693 -0.5315 -0.2435
   36MOL   C54020210   1.912   3.400   3.018  0.1906 -0.5248 -0.4161
   36MOL   O54120211   1.865   3.427   3.129  0.0591  0.4048  0.1892
   36MOL   C54220212   1.905   3.264   2.953 -1.3029 -0.6340  0.8240
   36MOL   C54320213   1.874   3.157   3.039  0.2723  0.4742  0.3993
   36MOL   C54420214   1.866   3.026   2.991 -0.7112 -0.1787  0.0773
   36MOL   C54520215   1.871   3.008   2.850 -0.5923 -0.0612  0.1661
   36MOL   C54620216   1.855   2.872   2.791 -0.5716 -0.3171  0.2275
   36MOL   O54720217   1.852   2.769   2.861  0.0896 -0.0068  0.2710
   36MOL   C54820218   1.911   3.110   2.763  0.1437 -0.1531  0.0158
   36MOL   C54920219   1.930   3.239   2.813  0.1868 -0.3956 -0.1431
   36MOL   H55020220   1.656   3.978   3.013  1.1859 -0.1323  1.2509
   36MOL   H55120221   1.601   3.805   3.032  1.1611 -0.0526  0.4248
   36MOL   H55220222   1.863   3.875   3.083  1.4622  0.1828 -1.2722
   36MOL   H55320223   1.870   3.891   2.917  1.2711  1.4957  2.0046
   36MOL   H55420224   1.782   3.634   3.054 -2.1300  0.9328 -0.4702
   36MOL   H55520225   1.786   3.660   2.881 -0.5736 -1.4663  0.5816
   36MOL   H55620226   2.039   3.659   2.882 -0.3736 -2.7885 -1.2779
   36MOL   H55720227   2.026   3.642   3.058 -0.7251 -3.0862  1.1957
   36MOL   H55820228   1.858   3.173   3.145 -3.6746  1.6277 -0.3080
   36MOL   H55920229   1.838   2.949   3.062 -0.0414 -0.6470 -0.1663
   36MOL   H56020230   1.937   3.087   2.661 -2.5175 -1.6761 -0.3657
   36MOL   H56120231   1.949   3.327   2.753 -0.5016 -1.0520 -1.3489
   36MOL   H56220232   1.862   2.863   2.683  0.6400 -1.2769  0.3717
   37MOL     O120233   0.473   3.505   2.558 -0.2703  0.1256  0.1689
   37MOL     C220234   0.588   3.456   2.628 -0.0346  0.0092 -0.1319
   37MOL     C320235   0.561   3.353   2.735 -0.5685 -0.3511  0.6284
   37MOL     C420236   0.478   3.405   2.850  0.3298 -0.2874  0.8393
   37MOL     C520237   0.470   3.301   2.956  0.5739  0.3967 -0.7198
   37MOL     O620238   0.357   3.321   3.035  0.4433 -0.4446  0.0197
   37MOL     C720239   0.366   3.297   3.168  0.0535 -0.1226 -0.0324
   37MOL     O820240   0.472   3.267   3.222  0.1860  0.9638  0.3663
   37MOL     C920241   0.241   3.315   3.242 -0.0408  0.9766 -0.3740
   37MOL    C1020242   0.124   3.354   3.177  0.0343  0.5844 -1.2341
   37MOL    C1120243   0.001   3.365   3.241 -0.1845  0.0935 -0.5034
   37MOL    C1220244   8.096   3.347   3.380  0.7071  0.7229  0.2733
   37MOL    C1320245   7.969   3.378   3.459 -0.1763  1.2947 -0.2568
   37MOL    O1420246   7.950   3.322   3.571  0.3346 -0.8037 -0.0121
   37MOL    C1520247   0.116   3.310   3.451 -0.0097 -0.2782  0.2565
   37MOL    C1620248   0.232   3.293   3.384  0.7121 -0.3839 -0.0796
   37MOL    H1720249   0.652   3.417   2.549 -0.0578 -0.0126 -0.1399
   37MOL    H1820250   0.641   3.544   2.664  0.9815  0.1730 -1.9526
   37MOL    H1920251   0.655   3.320   2.777 -0.9932 -0.4006  1.5575
   37MOL    H2020252   0.517   3.264   2.689  1.7802 -0.3832 -1.6921
   37MOL    H2120253   0.537   3.486   2.892 -0.9485  0.5446  1.0536
   37MOL    H2220254   0.379   3.436   2.816  0.4664  0.0479  0.7506
   37MOL    H2320255   0.458   3.205   2.905 -2.2294 -0.6100  1.7113
   37MOL    H2420256   0.562   3.291   3.014 -0.6431 -3.1919  0.7564
   37MOL    H2520257   0.118   3.363   3.069 -1.9956 -0.3112 -1.2179
   37MOL    H2620258   8.013   3.389   3.181 -0.2178 -0.0428 -0.5103
   37MOL    H2720259   0.110   3.276   3.553 -1.3029 -0.0620  0.2585
   37MOL    H2820260   0.322   3.261   3.435 -0.1043  1.1096  2.3502
   37MOL    H2920261   0.460   3.457   2.478  1.1021  1.6051 -0.9991
   37MOL    O3020262   7.885   3.452   3.395 -0.2962 -0.3841  0.2178
   37MOL    C3120263   7.760   3.464   3.443 -0.0190  0.0800  0.5479
   37MOL    C3220264   7.695   3.585   3.382  0.2074  0.3316  0.5650
   37MOL    C3320265   7.763   3.726   3.398 -0.0625 -0.1320  0.1876
   37MOL    C3420266   7.701   3.836   3.318 -0.1624  0.3038  0.5087
   37MOL    O3520267   7.749   3.817   3.186 -0.1117 -0.4218  0.4040
   37MOL    C3620268   7.677   3.858   3.082  0.9563  0.3904 -0.1362
   37MOL    O3720269   7.574   3.923   3.093 -0.2364  0.0378 -0.1585
   37MOL    C3820270   7.735   3.819   2.957  0.0593 -0.4825 -0.1945
   37MOL    C3920271   7.845   3.728   2.953 -0.3744  0.4817  0.2358
   37MOL    C4020272   7.877   3.664   2.832 -0.5259 -0.5182 -0.0167
   37MOL    C4120273   7.801   3.686   2.719 -0.7074  0.3316 -0.2345
   37MOL    C4220274   7.844   3.634   2.582 -0.3330 -0.2479 -0.7616
   37MOL    O4320275   7.817   3.688   2.475  0.1336 -0.7340 -0.3799
   37MOL    C4420276   7.703   3.784   2.720 -0.4921 -0.3458  0.3640
   37MOL    C4520277   7.668   3.856   2.837 -0.3128  0.1960 -0.2790
   37MOL    H4620278   7.710   3.369   3.426  0.1781  0.0335  0.2289
   37MOL    H4720279   7.762   3.475   3.552  3.9201 -1.4880  0.7008
   37MOL    H4820280   7.594   3.587   3.423  0.1361  1.7538  0.3246
   37MOL    H4920281   7.686   3.565   3.275 -1.0216  1.4455  0.4454
   37MOL    H5020282   7.751   3.757   3.502  0.2651 -0.0541  0.2026
   37MOL    H5120283   7.869   3.713   3.375  0.5093  2.1534  1.3992
   37MOL    H5220284   7.592   3.835   3.318 -0.1663  0.5547  0.2969
   37MOL    H5320285   7.734   3.936   3.344  1.1976  0.1174 -0.4031
   37MOL    H5420286   7.904   3.705   3.040 -1.4431  0.6553  1.0036
   37MOL    H5520287   7.953   3.588   2.822  0.8849  0.9075 -0.2222
   37MOL    H5620288   7.643   3.793   2.631  0.3871 -0.3913 -0.2487
   37MOL    H5720289   7.585   3.924   2.845  1.0191  1.7798  0.2460
   37MOL    O5820290   7.922   3.525   2.592 -0.4800 -0.4337  0.2694
   37MOL    C5920291   7.981   3.472   2.472  0.2565 -0.0434 -0.0073
   37MOL    C6020292   8.086   3.361   2.509  0.5162 -0.0856  0.6825
   37MOL    C6120293   0.089   3.404   2.615 -0.3089 -0.4875  0.6389
   37MOL    C6220294   0.193   3.295   2.631 -0.3983 -0.5691  0.0890
   37MOL    O6320295   0.137   3.166   2.636 -0.2268 -1.1136 -0.4334
   37MOL    C6420296   0.219   3.062   2.648 -0.3448 -0.5512  0.3836
   37MOL    O6520297   0.336   3.074   2.679 -0.1968  0.4767 -0.5220
   37MOL    C6620298   0.148   2.930   2.640  0.2495 -0.7028 -1.1878
   37MOL    C6720299   0.007   2.916   2.631  0.3706 -0.0236 -0.4345
   37MOL    C6820300   8.046   2.789   2.619 -0.0071  0.1586 -0.2087
   37MOL    C6920301   0.033   2.677   2.618 -0.1974  0.1959  0.5207
   37MOL    C7020302   8.076   2.542   2.592  0.0693 -0.6662  0.1374
   37MOL    O7120303   7.966   2.506   2.619 -0.6027  0.2309 -0.3133
   37MOL    C7220304   0.172   2.691   2.634  0.5429  0.0867 -0.1171
   37MOL    C7320305   0.231   2.821   2.633  0.0330  0.4672  0.5368
   37MOL    H7420306   7.898   3.433   2.413 -0.2900 -1.8016  1.8795
   37MOL    H7520307   8.033   3.548   2.413  0.1251 -1.1778 -1.5841
   37MOL    H7620308   0.037   3.338   2.414  0.2068  4.6729 -0.7656
   37MOL    H7720309   8.027   3.279   2.550 -2.1176  0.9186 -1.0250
   37MOL    H7820310   0.136   3.495   2.578 -1.6956  0.3904  1.0189
   37MOL    H7920311   0.033   3.419   2.707 -0.4150 -1.7294  0.7880
   37MOL    H8020312   0.278   3.305   2.563 -1.4493  0.3635 -1.1149
   37MOL    H8120313   0.235   3.317   2.729  1.9092 -0.3161 -0.9206
   37MOL    H8220314   8.029   2.992   2.639  0.1338 -0.2616 -0.4220
   37MOL    H8320315   7.942   2.780   2.594  0.0857 -2.0591  0.0944
   37MOL    H8420316   0.230   2.600   2.626 -1.8040 -1.3463 -1.1878
   37MOL    H8520317   0.338   2.834   2.624  0.2564 -2.6842 -2.6520
   37MOL    O8620318   0.065   2.456   2.530 -0.2252 -0.9681  0.0400
   37MOL    C8720319   0.030   2.322   2.507  0.1181  0.5460  0.7661
   37MOL    C8820320   0.141   2.230   2.449 -0.6444 -0.1365  0.5792
   37MOL    C8920321   0.175   2.281   2.309 -0.5437  0.1465 -0.0342
   37MOL    C9020322   0.222   2.168   2.217  0.1713 -0.4474  0.3143
   37MOL    O9120323   0.281   2.208   2.092 -0.3389  0.4702 -0.1066
   37MOL    C9220324   0.306   2.114   1.998  0.4719  0.1754 -0.7901
   37MOL    O9320325   0.269   2.001   2.016  0.5871 -0.0373 -0.1660
   37MOL    C9420326   0.380   2.144   1.879  0.2221  0.9775 -0.1147
   37MOL    C9520327   0.393   2.038   1.785  0.5744 -0.5415  0.0204
   37MOL    C9620328   0.459   2.060   1.666 -1.2112  1.1288  0.1947
   37MOL    C9720329   0.516   2.188   1.637 -0.7141 -0.2958  0.3089
   37MOL    C9820330   0.583   2.219   1.513  0.2825  0.1921 -0.4500
   37MOL    O9920331   0.597   2.140   1.418 -0.4775  0.8343  0.3558
   37MOL   C10020332   0.498   2.290   1.728  0.5279 -0.3472  0.2128
   37MOL   C10120333   0.439   2.269   1.850 -0.3507  0.7837  0.0144
   37MOL   H10220334   0.002   2.287   2.607 -2.9805 -0.5115 -0.4183
   37MOL   H10320335   8.037   2.323   2.449 -0.3965 -1.9799  1.4938
   37MOL   H10420336   0.094   2.132   2.445 -2.4235  0.7301 -0.4585
   37MOL   H10520337   0.224   2.220   2.519  0.2419  3.5279  0.1692
   37MOL   H10620338   0.088   2.317   2.253  2.0127  2.7773 -2.5565
   37MOL   H10720339   0.240   2.369   2.299 -0.6431  0.2606  0.3319
   37MOL   H10820340   0.299   2.115   2.272  2.0961  3.3102  1.4181
   37MOL   H10920341   0.136   2.103   2.203  1.0923 -1.2882 -1.6828
   37MOL   H11020342   0.350   1.939   1.799  0.1652  0.0297  3.3260
   37MOL   H11120343   0.479   1.985   1.591  1.7841  0.5409  1.5168
   37MOL   H11220344   0.539   2.388   1.709  0.4095  0.3432  3.2783
   37MOL   H11320345   0.435   2.348   1.923  1.9200  0.3421  0.6528
   37MOL   O11420346   0.630   2.346   1.501 -0.6633  0.0779 -0.5052
   37MOL   C11520347   0.679   2.394   1.379 -0.1127 -0.6508 -0.4872
   37MOL   C11620348   0.672   2.542   1.398 -0.3434  0.1560  0.3733
   37MOL   C11720349   0.540   2.594   1.350  0.3736  0.4821  0.1691
   37MOL   C11820350   0.414   2.536   1.419 -0.1045  0.5727  0.4358
   37MOL   O11920351   0.405   2.560   1.558  0.0883  0.6412  0.3096
   37MOL   C12020352   0.276   2.555   1.602 -0.2902 -0.0353 -0.6551
   37MOL   O12120353   0.181   2.517   1.528 -0.0410 -0.0317  0.1358
   37MOL   C12220354   0.266   2.599   1.743  0.0832  0.0160  0.6816
   37MOL   C12320355   0.139   2.585   1.807 -0.2464  0.3709 -0.4972
   37MOL   C12420356   0.125   2.609   1.945  0.2331  0.0321 -0.0942
   37MOL   C12520357   0.241   2.627   2.021 -0.4584  0.1278 -0.2628
   37MOL   C12620358   0.236   2.632   2.173  0.3850 -0.3502  0.4531
   37MOL   O12720359   0.132   2.652   2.234 -0.8487  0.3264 -0.1634
   37MOL   C12820360   0.371   2.650   1.960  0.6476  0.3205  0.0042
   37MOL   C12920361   0.379   2.630   1.817  0.1647  0.5358 -0.1932
   37MOL   H13020362   0.787   2.381   1.370 -0.0875 -2.0215  1.4301
   37MOL   H13120363   0.629   2.362   1.287 -0.0117  2.9167 -1.8859
   37MOL   H13220364   0.743   2.592   1.332 -0.5045 -1.0200 -0.7161
   37MOL   H13320365   0.678   2.568   1.504  0.1385  0.3667  0.2966
   37MOL   H13420366   0.550   2.701   1.367 -2.3187  0.7195  0.3997
   37MOL   H13520367   0.539   2.583   1.241  2.8215  2.0168 -0.0473
   37MOL   H13620368   0.325   2.577   1.371 -0.0196 -1.3384 -1.3986
   37MOL   H13720369   0.405   2.432   1.389 -0.4630 -0.0514  2.6241
   37MOL   H13820370   0.051   2.560   1.750  1.0422 -0.4085 -2.1962
   37MOL   H13920371   0.024   2.604   1.982 -0.0427  0.2232 -0.8090
   37MOL   H14020372   0.459   2.674   2.018  1.0432  0.2347 -0.5575
   37MOL   H14120373   0.476   2.651   1.775 -0.0981 -1.0958 -1.6724
   37MOL   O14220374   0.357   2.612   2.227 -0.1290  0.3588  0.1572
   37MOL   C14320375   0.377   2.650   2.360 -0.5828 -0.7294  0.4132
   37MOL   C14420376   0.452   2.543   2.437  0.2038  0.5032  0.1949
   37MOL   C14520377   0.590   2.504   2.388 -0.1491 -0.2618 -0.4259
   37MOL   C14620378   0.659   2.383   2.454 -0.2019  0.0825  0.1895
   37MOL   O14720379   0.635   2.262   2.385 -0.7517 -0.2455  0.4906
   37MOL   C14820380   0.560   2.162   2.433  0.1354 -0.1162  0.4934
   37MOL   O14920381   0.506   2.169   2.542 -0.5777  0.1210 -0.7465
   37MOL   C15020382   0.531   2.053   2.337 -0.9651 -0.4027 -0.1448
   37MOL   C15120383   0.459   1.939   2.380  0.1238  0.4037  0.0577
   37MOL   C15220384   0.450   1.830   2.287 -0.0949 -0.0650 -0.3421
   37MOL   C15320385   0.512   1.834   2.162  0.1679  0.0811  1.5933
   37MOL   C15420386   0.515   1.708   2.076  0.0995  0.1142 -0.1937
   37MOL   O15520387   0.577   1.708   1.968  0.0225  0.2598 -0.1399
   37MOL   C15620388   0.575   1.951   2.115 -0.6207 -0.2361  0.2023
   37MOL   C15720389   0.579   2.063   2.204 -0.9413 -0.3192 -0.3929
   37MOL   H15820390   0.454   2.726   2.366  0.2998 -1.5167 -0.7481
   37MOL   H15920391   0.286   2.678   2.414 -0.2821  2.2179 -0.5453
   37MOL   H16020392   0.387   2.455   2.437  0.3757  0.3755 -0.7908
   37MOL   H16120393   0.462   2.579   2.540 -1.2846 -1.2612  1.0107
   37MOL   H16220394   0.586   2.497   2.279 -1.5537  0.0766 -0.4155
   37MOL   H16320395   0.652   2.590   2.414 -1.0952  0.1567  0.4864
   37MOL   H16420396   0.767   2.393   2.470 -0.1075 -1.3612  0.5730
   37MOL   H16520397   0.635   2.374   2.560  2.3701 -1.3830  0.7016
   37MOL   H16620398   0.419   1.926   2.480  2.6302 -1.5350  0.8653
   37MOL   H16720399   0.397   1.740   2.315  0.1410 -0.7954 -2.1686
   37MOL   H16820400   0.617   1.954   2.016 -0.1915 -0.5457  0.3753
   37MOL   H16920401   0.624   2.152   2.163 -1.9201 -0.6339 -2.2185
   37MOL   O17020402   0.461   1.598   2.134  0.1580  0.2533 -0.1360
   37MOL   C17120403   0.496   1.466   2.084 -0.2060 -0.2391 -0.3572
   37MOL   C17220404   0.428   1.424   1.953 -0.4552  0.0941  0.3704
   37MOL   C17320405   0.464   1.275   1.923  0.5208  0.5789 -0.7224
   37MOL   C17420406   0.435   1.217   1.781 -0.4081 -0.9926  0.3458
   37MOL   O17520407   0.491   1.302   1.680  0.2136 -0.4739 -0.2718
   37MOL   C17620408   0.565   1.242   1.584 -0.6615 -0.6201 -0.2902
   37MOL   O17720409   0.585   1.119   1.571  0.0603  0.6161 -0.6456
   37MOL   C17820410   0.626   1.336   1.492  0.0317 -0.9165  0.3996
   37MOL   C17920411   0.657   1.307   1.360 -0.3671 -0.5574  0.3869
   37MOL   C18020412   0.701   1.415   1.269 -0.1113 -0.3678  0.3155
   37MOL   C18120413   0.689   1.548   1.313  0.5797  0.2182 -0.3232
   37MOL   C18220414   0.701   1.655   1.217 -0.4039 -0.1398 -0.0938
   37MOL   O18320415   0.754   1.633   1.109 -0.6922 -1.1375 -0.0788
   37MOL   C18420416   0.656   1.578   1.446  0.4565 -0.6782  0.2486
   37MOL   C18520417   0.633   1.469   1.529  0.0851  0.5974 -0.7621
   37MOL   H18620418   0.602   1.464   2.058  0.0275  1.8592  0.3913
   37MOL   H18720419   0.483   1.383   2.153 -3.5751 -0.9001 -1.6609
   37MOL   H18820420   0.449   1.487   1.867  0.2183  0.0452  0.4972
   37MOL   H18920421   0.320   1.425   1.967 -0.3497  0.5896  1.1724
   37MOL   H19020422   0.572   1.262   1.928  0.1981 -2.2771  0.0068
   37MOL   H19120423   0.412   1.217   2.000 -0.8347  0.7630 -1.4782
   37MOL   H19220424   0.477   1.117   1.788  0.4792 -0.6576 -0.0452
   37MOL   H19320425   0.330   1.198   1.757 -0.7679 -0.7768  1.6936
   37MOL   H19420426   0.637   1.205   1.329 -2.6984  0.3156 -1.0880
   37MOL   H19520427   0.736   1.395   1.169  2.3698  1.7800  0.7129
   37MOL   H19620428   0.649   1.682   1.473  2.0761 -0.3604 -0.4509
   37MOL   H19720429   0.587   1.505   1.620  2.4386 -0.5047  0.9129
   37MOL   O19820430   0.661   1.773   1.260 -0.1788 -0.6609  0.5534
   37MOL   C19920431   0.651   1.892   1.189 -0.1096 -0.2356  0.4217
   37MOL   C20020432   0.769   1.984   1.220  0.3162  0.0421 -0.0882
   37MOL   C20120433   0.906   1.947   1.164 -0.5043  0.4080  0.2717
   37MOL   C20220434   1.016   2.026   1.224 -0.0992 -0.3082 -0.6004
   37MOL   O20320435   1.023   2.163   1.187 -0.4173  0.5157  0.5703
   37MOL   C20420436   1.066   2.247   1.276 -0.3379  0.1670 -1.0161
   37MOL   O20520437   1.120   2.215   1.381  0.1379  0.1593 -0.4876
   37MOL   C20620438   1.048   2.395   1.241 -0.1633  0.4105  0.5870
   37MOL   C20720439   1.091   2.498   1.323 -0.5720 -0.2273  0.1025
   37MOL   C20820440   1.072   2.637   1.290 -0.0754 -0.0870  0.1545
   37MOL   C20920441   1.003   2.676   1.177 -0.4086 -0.3262 -0.2666
   37MOL   C21020442   0.982   2.824   1.147  0.9128  0.2864  0.3024
   37MOL   O21120443   0.909   2.859   1.058  0.4446 -0.5334  0.3217
   37MOL   C21220444   0.950   2.573   1.093 -0.0280  0.3840  0.7634
   37MOL   C21320445   0.978   2.435   1.126  0.2424 -0.3673 -0.9565
   37MOL   H21420446   0.646   1.874   1.082 -1.0380  1.1047  0.2345
   37MOL   H21520447   0.558   1.939   1.222  0.0439  1.2508 -1.1960
   37MOL   H21620448   0.781   1.987   1.328 -0.6077 -1.7649  0.0722
   37MOL   H21720449   0.754   2.087   1.186 -0.1280 -0.2968 -0.9161
   37MOL   H21820450   0.919   1.840   1.181 -0.0528  0.7257  2.0153
   37MOL   H21920451   0.904   1.966   1.057 -1.1237  0.3626  0.2717
   37MOL   H22020452   0.998   2.014   1.331  0.6779  0.4513 -0.3729
   37MOL   H22120453   1.107   1.978   1.186  0.1011 -1.3710  1.1649
   37MOL   H22220454   1.154   2.476   1.408  0.9578 -0.8979 -1.1874
   37MOL   H22320455   1.112   2.716   1.352  0.0201  1.5928 -1.9724
   37MOL   H22420456   0.882   2.602   1.014  1.0718 -1.1158 -0.7862
   37MOL   H22520457   0.929   2.366   1.059 -0.9432  0.5881 -1.0882
   37MOL   O22620458   1.045   2.910   1.227  0.1503 -0.0416  0.0777
   37MOL   C22720459   1.012   3.045   1.233  0.5374  0.8295  0.2958
   37MOL   C22820460   1.061   3.100   1.366 -0.0801 -0.2897 -0.3965
   37MOL   C22920461   1.011   3.026   1.495  0.5077 -0.3918  0.1703
   37MOL   C23020462   1.106   3.036   1.610  0.5729 -0.4095 -0.2920
   37MOL   O23120463   1.222   2.958   1.584 -0.3151 -0.1542  0.1119
   37MOL   C23220464   1.339   3.015   1.558 -0.2530 -0.4829 -0.0345
   37MOL   O23320465   1.356   3.140   1.558  0.3879  0.1992  0.2763
   37MOL   C23420466   1.459   2.924   1.541 -1.0682 -0.2140  0.5940
   37MOL   C23520467   1.583   2.988   1.515 -0.3373  0.1091 -0.8052
   37MOL   C23620468   1.702   2.918   1.510 -0.6699 -0.7142  0.6293
   37MOL   C23720469   1.699   2.776   1.518  0.0586  0.2721  0.1360
   37MOL   C23820470   1.828   2.702   1.507 -1.0034 -0.1320 -0.1341
   37MOL   O23920471   1.932   2.755   1.477  0.2170  0.1038 -0.6369
   37MOL   C24020472   1.577   2.709   1.534  0.0699  0.1118  0.7350
   37MOL   C24120473   1.454   2.782   1.544 -0.9301  0.0289  0.6881
   37MOL   H24220474   1.048   3.094   1.143 -0.3254  0.3595 -0.3071
   37MOL   H24320475   0.905   3.065   1.231 -0.2629 -2.7172  2.0394
   37MOL   H24420476   1.039   3.207   1.362 -0.0402 -0.2592  0.1709
   37MOL   H24520477   1.170   3.098   1.363 -0.0619  1.5093 -3.8653
   37MOL   H24620478   0.913   3.067   1.519 -1.3430 -3.6100 -1.4774
   37MOL   H24720479   0.990   2.925   1.462 -0.5702 -0.1487  0.1101
   37MOL   H24820480   1.121   3.139   1.642 -1.0077 -0.0111 -0.7721
   37MOL   H24920481   1.056   2.980   1.689 -0.7057  0.7355 -0.2738
   37MOL   H25020482   1.596   3.095   1.508 -2.0904  0.5957  2.2772
   37MOL   H25120483   1.798   2.961   1.488 -1.5467  0.7624 -0.4495
   37MOL   H25220484   1.577   2.601   1.544  2.6428 -0.0485 -0.4397
   37MOL   H25320485   1.357   2.736   1.553 -1.2634  0.7265  0.6619
   37MOL   O25420486   1.817   2.571   1.539  0.0859 -0.2113  0.7059
   37MOL   C25520487   1.929   2.489   1.524 -0.3823 -0.5471 -0.7120
   37MOL   C25620488   1.900   2.356   1.595 -0.4873 -0.4209 -0.2162
   37MOL   C25720489   1.996   2.243   1.570 -0.2942 -0.5085 -0.1399
   37MOL   C25820490   1.963   2.122   1.652 -0.2761  0.8371 -0.2038
   37MOL   O25920491   2.010   2.002   1.585  0.2494  0.1565 -0.3945
   37MOL   C26020492   1.928   1.893   1.566 -0.2640  0.1390  0.0393
   37MOL   O26120493   1.810   1.896   1.599  0.1224 -0.3859  0.5882
   37MOL   C26220494   1.998   1.784   1.492  0.5022 -0.8582  0.1875
   37MOL   C26320495   1.918   1.674   1.448 -0.2419  0.6798 -0.4934
   37MOL   C26420496   1.970   1.567   1.374  0.6853  0.5658 -0.1444
   37MOL   C26520497   2.109   1.572   1.346 -0.1418  0.1765  0.7071
   37MOL   C26620498   2.167   1.462   1.271  0.7259  0.3920 -0.3360
   37MOL   O26720499   2.109   1.354   1.252  0.5770  0.1478  0.2272
   37MOL   C26820500   2.184   1.682   1.381 -0.2071 -0.8858 -0.7706
   37MOL   C26920501   2.135   1.788   1.454 -0.3284 -0.4480 -0.2673
   37MOL   H27020502   1.946   2.484   1.416  1.0588  1.8265 -0.6231
   37MOL   H27120503   2.020   2.534   1.563 -1.4125  0.2454  0.8125
   37MOL   H27220504   1.798   2.327   1.571 -0.7404 -0.0419  0.3793
   37MOL   H27320505   1.880   2.377   1.700  0.2677  0.8175 -0.3003
   37MOL   H27420506   1.998   2.205   1.468  2.3537 -1.4093  0.2131
   37MOL   H27520507   2.100   2.275   1.568 -0.2808 -0.5692 -0.5774
   37MOL   H27620508   2.002   2.126   1.754 -1.2935  1.2678  0.1715
   37MOL   H27720509   1.855   2.120   1.664 -0.3747 -3.7313 -1.0814
   37MOL   H27820510   1.816   1.668   1.482  0.2390  0.6547  0.9965
   37MOL   H27920511   1.907   1.485   1.343  0.7487  0.3531  0.2920
   37MOL   H28020512   2.288   1.700   1.357 -0.4013  2.4961  0.6348
   37MOL   H28120513   2.196   1.877   1.466 -0.4827 -0.5327  1.2111
   37MOL   O28220514   2.299   1.481   1.235 -0.1792 -0.0834 -0.0490
   37MOL   C28320515   2.380   1.381   1.171  0.0114  0.1191 -0.1035
   37MOL   C28420516   2.317   1.361   1.027 -0.5046  0.0967  0.5734
   37MOL   C28520517   2.406   1.271   0.946 -0.3775  0.0424 -0.2238
   37MOL   C28620518   2.382   1.246   0.799 -0.0893 -0.0919  0.2206
   37MOL   O28720519   2.449   1.353   0.721  0.2943 -0.2065  0.3761
   37MOL   C28820520   2.570   1.333   0.675  0.4002 -0.4751 -0.1305
   37MOL   O28920521   2.635   1.231   0.690 -0.2836  0.2193 -0.3789
   37MOL   C29020522   2.607   1.444   0.585 -0.3614 -0.1069 -0.1385
   37MOL   C29120523   2.521   1.556   0.553 -0.4642  0.5162 -0.2229
   37MOL   C29220524   2.567   1.656   0.474 -0.3008  0.3219 -0.0621
   37MOL   C29320525   2.704   1.657   0.430 -0.6280  0.4339 -0.6597
   37MOL   C29420526   2.758   1.748   0.322  0.4524 -0.9425  0.0717
   37MOL   O29520527   2.711   1.861   0.300 -0.1405 -0.2454 -0.4686
   37MOL   C29620528   2.792   1.555   0.467  0.8430  0.1170  0.4991
   37MOL   C29720529   2.743   1.447   0.537  0.4299  0.8562  0.8143
   37MOL   H29820530   2.486   1.405   1.165  0.0662  0.0749  0.6375
   37MOL   H29920531   2.367   1.284   1.219 -0.2563 -0.7747 -1.8987
   37MOL   H30020532   2.328   1.459   0.979 -0.0348  0.0566  0.5959
   37MOL   H30120533   2.216   1.319   1.029 -0.8000  0.6876 -0.8651
   37MOL   H30220534   2.512   1.292   0.965 -1.0042  0.6199  3.1243
   37MOL   H30320535   2.393   1.175   0.995  0.6050  0.6951  1.3891
   37MOL   H30420536   2.408   1.143   0.772 -1.6312 -0.3226 -0.4351
   37MOL   H30520537   2.276   1.268   0.789 -0.0845  1.0890  2.4701
   37MOL   H30620538   2.416   1.560   0.581 -0.4657 -1.4466  0.1360
   37MOL   H30720539   2.498   1.721   0.423 -2.1847 -0.5833  1.2638
   37MOL   H30820540   2.897   1.552   0.441  0.9409 -3.4343  1.0483
   37MOL   H30920541   2.810   1.367   0.568  0.2475 -0.2335 -1.4910
   37MOL   O31020542   2.863   1.700   0.263 -0.2083  0.1961  0.0750
   37MOL   C31120543   2.928   1.782   0.161  0.5597 -0.4271  0.1480
   37MOL   C31220544   3.069   1.727   0.138  0.7208  0.3033  0.7447
   37MOL   C31320545   3.170   1.747   0.253 -0.0218  0.1639 -0.9373
   37MOL   C31420546   3.228   1.885   0.274 -0.3156  0.3442  0.0623
   37MOL   O31520547   3.125   1.968   0.311  0.8202 -0.0254 -0.1345
   37MOL   C31620548   3.143   2.096   0.317  0.0013  0.3021  0.3023
   37MOL   O31720549   3.251   2.150   0.295 -0.2985 -0.1485  0.3821
   37MOL   C31820550   3.020   2.171   0.363 -0.3123  0.3294 -0.2492
   37MOL   C31920551   2.941   2.108   0.466 -0.0001 -0.7413  0.2395
   37MOL   C32020552   2.825   2.171   0.514  0.6167 -0.5298  0.8870
   37MOL   C32120553   2.788   2.300   0.458  0.2278  0.1802 -0.5363
   37MOL   C32220554   2.670   2.375   0.500  0.1721 -0.6947  0.0122
   37MOL   O32320555   2.599   2.442   0.419  0.2464  0.1089  0.6348
   37MOL   C32420556   2.868   2.356   0.354  0.7045 -0.2175 -0.3801
   37MOL   C32520557   2.983   2.296   0.310  0.0625 -0.1976 -0.2321
   37MOL   H32620558   2.870   1.753   0.074  0.8565 -0.4143 -0.0537
   37MOL   H32720559   2.910   1.888   0.175 -0.7367 -0.5596 -0.4838
   37MOL   H32820560   3.109   1.762   0.043  1.8052 -1.3363  0.5739
   37MOL   H32920561   3.061   1.620   0.119  1.8993  0.4586 -0.7115
   37MOL   H33020562   3.127   1.714   0.348  2.9462 -2.5376 -0.4776
   37MOL   H33120563   3.253   1.680   0.235 -0.1043 -0.4835  1.0443
   37MOL   H33220564   3.307   1.879   0.349  1.4123 -1.1110 -1.8480
   37MOL   H33320565   3.272   1.920   0.181  1.1019 -1.4788  0.0258
   37MOL   H33420566   2.979   2.021   0.517 -0.1249 -0.3868  0.9372
   37MOL   H33520567   2.766   2.126   0.592 -3.6777  3.6441  0.2522
   37MOL   H33620568   2.831   2.449   0.316 -1.9390 -0.9649  0.2437
   37MOL   H33720569   3.054   2.331   0.236  0.7506  0.2317  0.6177
   37MOL   O33820570   2.639   2.356   0.627  0.4322 -0.7628 -0.5054
   37MOL   C33920571   2.527   2.418   0.680 -0.4503 -0.0193 -0.4338
   37MOL   C34020572   2.551   2.521   0.784 -0.5159 -0.2919  0.0833
   37MOL   C34120573   2.605   2.477   0.923 -0.4668  0.0636  0.0146
   37MOL   C34220574   2.644   2.589   1.012 -0.6903  1.0647 -0.7839
   37MOL   O34320575   2.703   2.548   1.136 -0.4042 -0.4073  0.2901
   37MOL   C34420576   2.809   2.623   1.186  0.4956 -0.6440  0.1618
   37MOL   O34520577   2.872   2.704   1.109  0.0145  0.0583 -0.2212
   37MOL   C34620578   2.843   2.597   1.330 -1.3315  0.0547  0.1479
   37MOL   C34720579   2.775   2.505   1.410  0.4744 -0.1819 -0.2808
   37MOL   C34820580   2.808   2.485   1.548  0.3947 -0.5177  0.9669
   37MOL   C34920581   2.915   2.561   1.601  0.6387 -0.1553  0.5459
   37MOL   C35020582   2.957   2.543   1.742  0.4787  0.4634  0.9568
   37MOL   O35120583   2.889   2.500   1.835 -0.1401  0.0747  0.5138
   37MOL   C35220584   2.982   2.654   1.516 -0.1423  0.0419 -0.2793
   37MOL   C35320585   2.956   2.665   1.379  0.1001  0.2286 -0.2113
   37MOL   H35420586   2.467   2.470   0.604 -1.9284 -0.1587  0.6078
   37MOL   H35520587   2.454   2.345   0.715 -2.1448  1.0493 -1.6052
   37MOL   H35620588   2.457   2.575   0.791 -1.2505 -1.4284 -0.7244
   37MOL   H35720589   2.622   2.594   0.744  0.3088 -0.2649  1.5663
   37MOL   H35820590   2.527   2.425   0.979 -2.0251  1.6490 -0.6256
   37MOL   H35920591   2.688   2.408   0.912 -1.2289 -0.9839  0.6646
   37MOL   H36020592   2.708   2.642   0.941 -0.3668  1.3305 -0.2967
   37MOL   H36120593   2.568   2.663   1.038 -1.4096  0.3137 -0.7280
   37MOL   H36220594   2.701   2.442   1.361  0.8207 -1.9832  1.4375
   37MOL   H36320595   2.756   2.413   1.610 -0.2734 -1.3417 -0.5175
   37MOL   H36420596   3.064   2.707   1.562  0.6752 -1.1548 -0.3401
   37MOL   H36520597   3.030   2.719   1.323  0.9757  0.3051  0.9845
   37MOL   O36620598   3.085   2.577   1.763 -0.3557 -0.4178 -0.0204
   37MOL   C36720599   3.142   2.583   1.896  0.4925 -1.2415  0.1435
   37MOL   C36820600   3.215   2.450   1.922  0.4366 -0.0345  0.1020
   37MOL   C36920601   3.271   2.437   2.065  0.6774 -0.5771  0.3004
   37MOL   C37020602   3.345   2.300   2.084  0.0158  0.0745  0.2767
   37MOL   O37120603   3.368   2.271   2.221 -0.3558  0.4819  0.0626
   37MOL   C37220604   3.452   2.344   2.294 -0.8184  0.7701  0.7711
   37MOL   O37320605   3.544   2.407   2.242 -0.5178 -0.4800  0.0250
   37MOL   C37420606   3.435   2.333   2.442 -0.5084 -0.2278 -0.3633
   37MOL   C37520607   3.356   2.224   2.489  0.4189 -0.2853 -0.1369
   37MOL   C37620608   3.339   2.204   2.627 -0.1171  0.8582  0.2174
   37MOL   C37720609   3.397   2.292   2.723  0.3586 -0.2725 -0.0796
   37MOL   C37820610   3.384   2.276   2.870  0.5398  0.4333 -0.0962
   37MOL   O37920611   3.416   2.366   2.949  0.3452 -0.1080 -0.1409
   37MOL   C38020612   3.470   2.399   2.673 -0.1787 -0.2858  0.6369
   37MOL   C38120613   3.489   2.424   2.537 -0.7109  0.1374 -0.1544
   37MOL   H38220614   3.214   2.663   1.913 -1.5834  0.8260 -0.5053
   37MOL   H38320615   3.069   2.587   1.977  0.4533 -2.4283  0.1678
   37MOL   H38420616   3.288   2.433   1.844  0.5362  0.3662  0.1076
   37MOL   H38520617   3.149   2.363   1.913 -1.7693  1.4461  1.4129
   37MOL   H38620618   3.333   2.524   2.087  0.8293 -1.1302  2.1502
   37MOL   H38720619   3.187   2.443   2.134  0.1421  1.8285 -0.5330
   37MOL   H38820620   3.284   2.222   2.039 -0.0501  0.5868 -0.5336
   37MOL   H38920621   3.437   2.311   2.028  0.3468 -1.7867  0.4462
   37MOL   H39020622   3.307   2.165   2.413 -0.5678  1.7905 -1.1397
   37MOL   H39120623   3.281   2.120   2.663 -0.0456 -0.8456 -3.4299
   37MOL   H39220624   3.513   2.473   2.738 -0.4066  3.0450 -2.7846
   37MOL   H39320625   3.549   2.510   2.509 -1.2445  0.9131  1.0374
   37MOL   O39420626   3.341   2.159   2.905 -0.3443 -0.1039  0.1435
   37MOL   C39520627   3.315   2.124   3.042 -0.0316 -0.0470  0.4189
   37MOL   C39620628   3.316   1.967   3.058  0.1711 -0.4214  0.3230
   37MOL   C39720629   3.237   1.893   2.951  0.3888  0.7472  0.0353
   37MOL   C39820630   3.233   1.740   2.964  0.0463  0.4002  0.0081
   37MOL   O39920631   3.221   1.699   3.097 -0.1874  0.1265 -0.0241
   37MOL   C40020632   3.322   1.647   3.169 -0.2863  0.5251  0.2581
   37MOL   O40120633   3.424   1.600   3.117  0.1464 -0.1326 -0.0531
   37MOL   C40220634   3.292   1.632   3.316  0.2175 -0.2350  0.1867
   37MOL   C40320635   3.384   1.577   3.409 -0.4443 -0.0599  0.6294
   37MOL   C40420636   3.340   1.563   3.545 -0.2761  0.5343  0.7718
   37MOL   C40520637   3.206   1.592   3.576  0.3248  0.4248 -0.1965
   37MOL   C40620638   3.156   1.555   3.713 -0.0759 -0.0023  0.6069
   37MOL   O40720639   3.215   1.480   3.791  0.2403 -0.2649 -0.7222
   37MOL   C40820640   3.130   1.669   3.485  0.1828 -0.2861  0.0944
   37MOL   C40920641   3.169   1.689   3.355  0.3979 -0.3091  0.8501
   37MOL   H41020642   3.388   2.172   3.107 -1.0893  1.7325  0.3211
   37MOL   H41120643   3.225   2.163   3.090  0.3199  1.1973  0.0745
   37MOL   H41220644   3.274   1.936   3.153  0.9969  1.7468  1.4403
   37MOL   H41320645   3.416   1.923   3.058  0.3408 -0.0376 -0.7116
   37MOL   H41420646   3.135   1.929   2.958  0.5524  1.1311  0.4311
   37MOL   H41520647   3.286   1.920   2.857  0.8000 -0.4284 -0.1033
   37MOL   H41620648   3.143   1.708   2.911  0.8423  2.2542 -2.5825
   37MOL   H41720649   3.321   1.700   2.915 -1.3921 -1.9528 -0.7353
   37MOL   H41820650   3.484   1.545   3.384 -0.9911 -1.4239  0.1037
   37MOL   H41920651   3.405   1.516   3.617  0.6559 -0.5997 -0.7566
   37MOL   H42020652   3.036   1.708   3.522  0.6914  0.8351  0.2167
   37MOL   H42120653   3.101   1.741   3.288  0.3350  0.4691  1.4996
   37MOL   O42220654   3.049   1.629   3.754 -0.1891  0.4066  0.6064
   37MOL   C42320655   2.996   1.619   3.888 -0.2525  0.6681 -0.0738
   37MOL   C42420656   3.089   1.671   4.001  0.1065  0.9556  0.0313
   37MOL   C42520657   3.130   1.816   3.987  0.7633  0.0896 -0.0204
   37MOL   C42620658   3.019   1.924   3.989 -0.1428 -0.2446  0.0439
   37MOL   O42720659   2.968   1.951   3.862 -0.3603 -0.0991  0.7995
   37MOL   C42820660   3.026   2.032   3.781 -0.0407 -0.2004 -0.1458
   37MOL   O42920661   3.126   2.095   3.816 -0.1384  0.3460 -0.7088
   37MOL   C43020662   2.976   2.035   3.642 -0.2233  0.2263  0.0637
   37MOL   C43120663   2.874   1.946   3.605  0.3353 -0.1073 -0.2329
   37MOL   C43220664   2.841   1.932   3.470 -0.0569  0.5979 -0.6976
   37MOL   C43320665   2.912   2.003   3.369 -0.4272  0.4293  0.1334
   37MOL   C43420666   2.872   1.989   3.222 -0.6552 -0.2799 -0.0521
   37MOL   O43520667   2.937   2.023   3.128  0.0803 -0.1533  0.1897
   37MOL   C43620668   3.012   2.095   3.408  0.2096  0.3679 -0.1819
   37MOL   C43720669   3.043   2.109   3.543 -0.0954 -0.4576  0.0335
   37MOL   H43820670   2.909   1.682   3.870 -1.9238 -1.2029  1.2857
   37MOL   H43920671   2.945   1.526   3.912  0.8320  0.5987  2.0424
   37MOL   H44020672   3.174   1.610   4.031 -1.2759 -0.5873  0.9001
   37MOL   H44120673   3.031   1.653   4.091  1.5008 -1.2714  0.5240
   37MOL   H44220674   3.182   1.837   4.081  2.1890 -0.5557 -0.6539
   37MOL   H44320675   3.202   1.827   3.907 -0.5272 -0.8713 -1.3482
   37MOL   H44420676   2.927   1.890   4.037 -0.4022  1.8702  1.1253
   37MOL   H44520677   3.052   2.013   4.044 -0.5650 -0.6626  0.9898
   37MOL   H44620678   2.823   1.890   3.683  3.1718 -3.1603 -0.4659
   37MOL   H44720679   2.760   1.864   3.448 -0.2739  0.6748 -0.1436
   37MOL   H44820680   3.067   2.155   3.336  0.1011 -0.8054 -1.2765
   37MOL   H44920681   3.128   2.170   3.569  0.9161 -1.7181 -0.2655
   37MOL   O45020682   2.755   1.921   3.210 -0.6870 -0.3185  0.4419
   37MOL   C45120683   2.700   1.897   3.084  0.0302  0.0626  0.3942
   37MOL   C45220684   2.604   1.776   3.097 -0.2931 -0.0814  0.5600
   37MOL   C45320685   2.593   1.711   2.960  0.1439  0.4972 -0.2691
   37MOL   C45420686   2.493   1.596   2.960 -0.3459  0.5074  0.3672
   37MOL   O45520687   2.438   1.587   2.823  0.2230  0.0458 -0.8354
   37MOL   C45620688   2.312   1.630   2.792  0.1423 -0.3739  0.0609
   37MOL   O45720689   2.236   1.687   2.869 -0.0790 -0.1360 -0.1219
   37MOL   C45820690   2.280   1.601   2.645 -0.0314 -0.3781 -0.3059
   37MOL   C45920691   2.352   1.515   2.564 -0.0066  0.2242  0.2547
   37MOL   C46020692   2.308   1.493   2.432  0.7945 -0.2617 -0.1072
   37MOL   C46120693   2.189   1.556   2.381 -0.1610 -0.0698  0.2094
   37MOL   C46220694   2.142   1.524   2.244 -0.7128  0.7542  0.2173
   37MOL   O46320695   2.190   1.429   2.173 -0.2414  0.0976 -0.0055
   37MOL   C46420696   2.120   1.642   2.466 -0.6613 -0.0708  0.2319
   37MOL   C46520697   2.159   1.656   2.602 -0.3749 -0.6006  0.2598
   37MOL   H46620698   2.639   1.970   3.031  0.3176  0.5659  0.7449
   37MOL   H46720699   2.790   1.871   3.027  1.1130 -0.1623  2.1589
   37MOL   H46820700   2.508   1.807   3.138 -0.1212 -1.4826  2.1095
   37MOL   H46920701   2.657   1.711   3.168  1.3164  2.0656  1.4040
   37MOL   H47020702   2.575   1.790   2.888  1.8388 -1.3814 -2.8212
   37MOL   H47120703   2.687   1.669   2.926 -0.3570  0.5737 -1.7578
   37MOL   H47220704   2.537   1.503   2.998 -1.0070  1.0445  2.5393
   37MOL   H47320705   2.414   1.628   3.028 -0.5595  0.0661  0.3325
   37MOL   H47420706   2.445   1.474   2.603 -0.4570 -1.9264 -0.8454
   37MOL   H47520707   2.382   1.433   2.381  0.8967 -0.3405  0.1288
   37MOL   H47620708   2.024   1.686   2.443 -0.4527  0.9295  1.2219
   37MOL   H47720709   2.115   1.733   2.664  1.5646 -1.8263  3.2623
   37MOL   O47820710   2.064   1.618   2.187  0.1685  0.1299  0.4709
   37MOL   C47920711   2.012   1.600   2.053 -0.1771  0.0935  0.2702
   37MOL   C48020712   2.092   1.674   1.940  0.3772 -0.4237  0.4712
   37MOL   C48120713   2.091   1.830   1.934  0.2623 -0.7709 -0.1848
   37MOL   C48220714   2.193   1.893   2.032  0.1833 -0.3496 -0.3048
   37MOL   O48320715   2.104   1.929   2.133 -0.5014 -0.1955 -0.7043
   37MOL   C48420716   2.047   2.053   2.131  0.2934  0.5684 -0.3743
   37MOL   O48520717   2.076   2.139   2.046 -0.6374  0.2884 -0.9979
   37MOL   C48620718   1.951   2.088   2.236  0.2912  0.2524 -0.1772
   37MOL   C48720719   1.951   2.010   2.355 -0.5478  0.0885  0.0751
   37MOL   C48820720   1.862   2.042   2.454 -0.0777  0.4561  0.4321
   37MOL   C48920721   1.767   2.142   2.438 -0.1146 -0.1801  0.0033
   37MOL   C49020722   1.676   2.174   2.555 -0.8747 -0.1239  0.0978
   37MOL   O49120723   1.566   2.229   2.542 -0.3040 -0.3162 -0.5116
   37MOL   C49220724   1.766   2.221   2.320 -0.3725 -0.3493  0.6704
   37MOL   C49320725   1.859   2.194   2.223 -1.1871  0.0001 -0.2793
   37MOL   H49420726   1.993   1.494   2.036  1.2580 -0.5132  2.2269
   37MOL   H49520727   1.914   1.647   2.041  0.6812  2.1269  0.8783
   37MOL   H49620728   2.065   1.634   1.842 -1.0235 -1.4303  1.2528
   37MOL   H49720729   2.187   1.620   1.938 -0.7928 -2.7369  2.8761
   37MOL   H49820730   2.134   1.862   1.839 -2.2344 -2.8894 -2.1000
   37MOL   H49920731   1.990   1.871   1.939  1.1877  1.2510  3.5684
   37MOL   H50020732   2.269   1.822   2.066  1.9689  2.6645  2.2985
   37MOL   H50120733   2.233   1.986   1.992 -1.1721  0.3953  0.0422
   37MOL   H50220734   2.035   1.943   2.371  0.7614  1.1655 -1.9324
   37MOL   H50320735   1.876   1.998   2.552  2.6811  2.0743  0.8227
   37MOL   H50420736   1.691   2.298   2.304  0.6497  0.5541  0.2102
   37MOL   H50520737   1.875   2.251   2.133 -0.3545  0.0425 -0.1026
   37MOL   O50620738   1.742   2.153   2.665 -0.3989 -0.0402 -0.0633
   37MOL   C50720739   1.701   2.214   2.787  0.2471  0.5058 -0.5751
   37MOL   C50820740   1.823   2.214   2.885 -0.1935  0.0915 -0.1432
   37MOL   C50920741   1.856   2.070   2.930 -0.3260  0.2558  0.1472
   37MOL   C51020742   2.000   2.034   2.951  0.4309  0.0295  0.0681
   37MOL   O51120743   2.060   2.053   2.827 -0.2598 -0.1658  0.6335
   37MOL   C51220744   2.194   2.045   2.813  0.0478 -0.2128 -0.4840
   37MOL   O51320745   2.270   2.008   2.905 -0.4201  0.3069  0.3092
   37MOL   C51420746   2.231   2.110   2.685 -0.1834  0.2248  0.1986
   37MOL   C51520747   2.135   2.170   2.597 -0.5433  0.0049 -0.2837
   37MOL   C51620748   2.186   2.246   2.488  0.5354 -0.8292 -0.0369
   37MOL   C51720749   2.324   2.266   2.461  0.3512 -0.2878 -0.0180
   37MOL   C51820750   2.385   2.350   2.349 -0.4249  0.2984  0.1607
   37MOL   O51920751   2.504   2.349   2.316 -0.2520  0.3316  0.6407
   37MOL   C52020752   2.415   2.200   2.546 -0.1234 -0.2307  0.2025
   37MOL   C52120753   2.368   2.127   2.656  1.0672  0.1746  0.4399
   37MOL   H52220754   1.672   2.315   2.759 -0.9876  0.3402  0.0517
   37MOL   H52320755   1.613   2.159   2.822  1.6019 -2.5227 -1.7022
   37MOL   H52420756   1.802   2.282   2.968 -2.2413 -1.2855  0.5132
   37MOL   H52520757   1.902   2.260   2.825 -1.2359  0.9828 -0.8634
   37MOL   H52620758   1.803   2.044   3.022  0.8452 -3.0366 -0.0486
   37MOL   H52720759   1.816   2.001   2.856  2.6416  0.2346 -1.5285
   37MOL   H52820760   2.041   2.098   3.029  0.3748  0.8574 -0.5797
   37MOL   H52920761   2.009   1.934   2.993 -1.6315  0.2446  1.0946
   37MOL   H53020762   2.028   2.162   2.614 -0.8439  0.5041 -1.7867
   37MOL   H53120763   2.114   2.296   2.424  2.1734  0.1533 -1.1349
   37MOL   H53220764   2.523   2.200   2.542 -0.0972  0.0457  0.8664
   37MOL   H53320765   2.446   2.084   2.718  0.3539 -0.7925  0.6812
   37MOL   O53420766   2.292   2.423   2.287 -0.1685 -0.4307  0.3502
   37MOL   C53520767   2.336   2.504   2.182 -0.1603 -0.1091  0.0591
   37MOL   C53620768   2.206   2.550   2.100 -0.5364 -0.1935 -0.3921
   37MOL   C53720769   2.121   2.434   2.061  0.6252  0.6968 -0.8751
   37MOL   C53820770   1.996   2.477   1.975  0.0020 -1.0550 -0.0132
   37MOL   O53920771   1.922   2.594   2.020  0.0879 -0.3133  0.0473
   37MOL   C54020772   1.837   2.659   1.933 -0.1696 -0.1232  0.1652
   37MOL   O54120773   1.809   2.618   1.823 -0.2564 -0.7491  0.0615
   37MOL   C54220774   1.810   2.797   1.993  0.2745  0.6844  0.2810
   37MOL   C54320775   1.884   2.860   2.096  0.6982  0.1925 -0.1199
   37MOL   C54420776   1.852   2.992   2.137  0.0663  1.2295 -0.4739
   37MOL   C54520777   1.755   3.070   2.071 -0.1343 -0.2977  0.0145
   37MOL   C54620778   1.718   3.204   2.118  0.8141 -0.0792  0.5358
   37MOL   O54720779   1.619   3.260   2.073  0.0419 -0.1880 -0.3967
   37MOL   C54820780   1.685   3.006   1.967  0.4234 -0.2423  0.8091
   37MOL   C54920781   1.706   2.869   1.927 -0.4265  0.7337 -0.1590
   37MOL   H55020782   2.384   2.590   2.228 -1.0522  0.3476  0.1438
   37MOL   H55120783   2.406   2.452   2.117  0.9617  1.4862 -0.0004
   37MOL   H55220784   2.233   2.614   2.017 -2.8901 -1.1220 -1.9320
   37MOL   H55320785   2.149   2.613   2.168  0.2717 -0.6009  0.6815
   37MOL   H55420786   2.178   2.361   2.003 -0.1532  0.0744 -0.8587
   37MOL   H55520787   2.078   2.392   2.151  0.2775  2.3353 -0.2658
   37MOL   H55620788   2.024   2.505   1.873 -0.3152 -1.1825 -0.1339
   37MOL   H55720789   1.938   2.385   1.967  0.9122 -1.5433 -1.2759
   37MOL   H55820790   1.973   2.813   2.135 -0.1962 -0.2684  1.3989
   37MOL   H55920791   1.899   3.043   2.220  0.2256 -0.4822  0.5149
   37MOL   H56020792   1.606   3.063   1.921  0.8475 -1.4208 -1.4420
   37MOL   H56120793   1.646   2.824   1.849  1.0640  1.2402 -1.6117
   37MOL   H56220794   1.768   3.250   2.203  3.0966 -0.1122 -0.7525
   38MOL     O120795   0.952   3.507   1.378 -0.0594  0.3480  0.0134
   38MOL     C220796   0.870   3.620   1.380  0.0120  0.4236  0.6944
   38MOL     C320797   0.777   3.607   1.259  0.1278  0.1815  0.7368
   38MOL     C420798   0.852   3.610   1.133  0.8479  0.2143 -0.5891
   38MOL     C520799   0.906   3.481   1.069  0.7733 -0.0420  0.1827
   38MOL     O620800   0.974   3.516   0.942  0.0136  0.1807 -0.1046
   38MOL     C720801   1.107   3.535   0.938  0.0817 -0.2735  0.6626
   38MOL     O820802   1.174   3.550   1.038 -0.0788  0.1891 -0.0559
   38MOL     C920803   1.163   3.533   0.797  1.1980  0.0208  0.0525
   38MOL    C1020804   1.299   3.500   0.785 -1.0231 -0.2445  0.4782
   38MOL    C1120805   1.359   3.486   0.657  0.4968 -0.5774 -0.4234
   38MOL    C1220806   1.279   3.514   0.542  0.7625  0.2210  0.1915
   38MOL    C1320807   1.336   3.496   0.400 -0.8195  0.2762  0.0905
   38MOL    O1420808   1.457   3.480   0.379  0.4211 -0.5562 -0.0186
   38MOL    C1520809   1.148   3.560   0.554  0.1054 -0.1544 -0.5762
   38MOL    C1620810   1.091   3.573   0.682 -0.0218 -0.3168  0.6029
   38MOL    H1720811   0.810   3.634   1.470 -2.9223  2.8350 -1.5461
   38MOL    H1820812   0.930   3.711   1.366 -0.4498  0.3793 -1.6817
   38MOL    H1920813   0.718   3.698   1.271  0.8835  0.7964 -0.1273
   38MOL    H2020814   0.698   3.532   1.262 -0.2169  0.5523  0.9088
   38MOL    H2120815   0.779   3.645   1.061  1.2696 -1.7685 -2.0521
   38MOL    H2220816   0.940   3.673   1.142 -0.1895  1.3504  2.0747
   38MOL    H2320817   0.983   3.437   1.132  1.7336  0.5759 -0.5537
   38MOL    H2420818   0.841   3.393   1.060  0.7378  0.1362 -1.5102
   38MOL    H2520819   1.358   3.472   0.872 -0.1391 -2.2780 -0.7313
   38MOL    H2620820   1.459   3.444   0.651  0.5759 -0.4211 -0.2206
   38MOL    H2720821   1.095   3.607   0.472 -0.2449 -0.4661 -0.5265
   38MOL    H2820822   0.993   3.618   0.692  0.2843 -0.0720  3.0163
   38MOL    H2920823   0.999   3.509   1.460  0.8488  4.8069 -0.4771
   38MOL    O3020824   1.239   3.504   0.298  0.0671 -0.2552 -0.5445
   38MOL    C3120825   1.279   3.483   0.161 -0.2664  0.5923  0.8965
   38MOL    C3220826   1.263   3.328   0.139 -0.4010 -0.4157  0.3525
   38MOL    C3320827   1.119   3.283   0.112 -0.3747  0.5080 -0.4501
   38MOL    C3420828   1.048   3.251   0.249  0.1172 -0.2089 -0.3638
   38MOL    O3520829   0.921   3.211   0.230  0.0861  0.0313 -0.0129
   38MOL    C3620830   0.894   3.078   0.210 -0.2671 -0.2239 -0.2427
   38MOL    O3720831   0.984   2.987   0.185  0.1839 -0.3473 -0.1774
   38MOL    C3820832   0.752   3.050   0.222 -0.5914  0.1610 -0.7084
   38MOL    C3920833   0.698   2.926   0.184 -0.2422  0.4862 -0.0198
   38MOL    C4020834   0.565   2.890   0.199 -0.3395 -0.2727 -0.0309
   38MOL    C4120835   0.477   2.975   0.273 -0.5562 -0.3432 -0.4748
   38MOL    C4220836   0.339   2.934   0.293  0.1566 -0.6696  0.2625
   38MOL    O4320837   0.267   2.968   0.390 -0.0817 -0.2037  0.2946
   38MOL    C4420838   0.534   3.098   0.319 -0.0442  0.4116 -0.3820
   38MOL    C4520839   0.668   3.138   0.297  0.2432 -0.2863  0.0076
   38MOL    H4620840   1.208   3.538   0.099 -0.7177 -1.4393 -0.4308
   38MOL    H4720841   1.378   3.525   0.143 -0.5856  1.2201  0.5904
   38MOL    H4820842   1.314   3.267   0.213 -0.4285  0.3290  0.9872
   38MOL    H4920843   1.325   3.307   0.052  1.4930  2.3392  0.9724
   38MOL    H5020844   1.056   3.354   0.059 -1.7187 -1.0734 -1.0324
   38MOL    H5120845   1.120   3.188   0.059 -1.9361  0.2272 -0.0073
   38MOL    H5220846   1.095   3.176   0.312 -0.5759 -0.1423  0.2368
   38MOL    H5320847   1.037   3.346   0.301  0.0546 -0.2651 -0.2740
   38MOL    H5420848   0.760   2.861   0.125  0.8070  0.8350  0.6885
   38MOL    H5520849   0.524   2.801   0.152 -1.3954 -0.2877  0.8963
   38MOL    H5620850   0.473   3.166   0.377 -0.3773 -0.2561  0.0586
   38MOL    H5720851   0.707   3.232   0.333 -1.6602  0.6895 -0.4482
   38MOL    O5820852   0.293   2.844   0.202  0.0164  0.2309  0.5945
   38MOL    C5920853   0.167   2.783   0.217  0.4117  0.0800  0.2496
   38MOL    C6020854   0.131   2.692   0.101  0.6292  0.2130  0.2944
   38MOL    C6120855   0.228   2.573   0.068  0.5736 -0.7281 -0.4806
   38MOL    C6220856   0.197   2.511   8.030  0.2273  0.2493 -0.1231
   38MOL    O6320857   0.067   2.461   8.009 -0.1446 -0.3823 -0.0366
   38MOL    C6420858   0.044   2.333   7.976 -0.1705  0.4207  0.0391
   38MOL    O6520859   0.123   2.237   7.983 -0.1338 -0.1058  0.0201
   38MOL    C6620860   8.002   2.304   7.935 -0.1354  0.2010  0.1883
   38MOL    C6720861   7.895   2.397   7.951  0.1518  0.1702 -0.1115
   38MOL    C6820862   7.758   2.361   7.939  0.4097 -0.4352 -0.7475
   38MOL    C6920863   7.732   2.237   7.887 -0.0475  0.2639 -0.8253
   38MOL    C7020864   7.588   2.211   7.846 -0.3135  0.0782 -0.6865
   38MOL    O7120865   7.494   2.281   7.875  0.6697 -0.7151  0.0177
   38MOL    C7220866   7.835   2.145   7.869  0.2295 -0.0074 -0.4216
   38MOL    C7320867   7.971   2.175   7.890  0.2585  0.0339  0.0201
   38MOL    H7420868   0.168   2.713   0.301 -0.7969 -0.3308 -0.0683
   38MOL    H7520869   0.087   2.853   0.241 -1.0110 -1.9803  1.6831
   38MOL    H7620870   0.122   2.746   0.007  1.0677  2.3472  1.4492
   38MOL    H7720871   0.031   2.658   0.129 -0.7991  1.5764 -2.8869
   38MOL    H7820872   0.334   2.598   0.078  1.1334 -2.9585 -0.5147
   38MOL    H7920873   0.211   2.497   0.144  3.1046 -1.6154 -0.7680
   38MOL    H8020874   0.213   2.587   7.954  0.3339 -0.6170 -0.9678
   38MOL    H8120875   0.269   2.433   8.007  1.1068  1.5450 -1.8433
   38MOL    H8220876   7.917   2.493   7.995  1.1265 -1.4856  3.2665
   38MOL    H8320877   7.677   2.428   7.962  1.2360 -0.2626  1.8000
   38MOL    H8420878   7.813   2.043   7.842  0.5413  0.1732 -1.3693
   38MOL    H8520879   8.044   2.100   7.865 -0.4507 -0.6112 -0.1327
   38MOL    O8620880   7.574   2.101   7.772 -0.6001 -0.3904 -0.2656
   38MOL    C8720881   7.441   2.077   7.724  0.6354 -0.3037  0.2061
   38MOL    C8820882   7.425   1.933   7.658 -0.3157 -0.4346  0.1921
   38MOL    C8920883   7.457   1.814   7.752  0.6531  0.5648  0.4778
   38MOL    C9020884   7.371   1.805   7.877  0.2668 -0.3336 -0.1347
   38MOL    O9120885   7.431   1.899   7.972 -0.0143  0.0071  0.1413
   38MOL    C9220886   7.508   1.860   8.075 -0.4329 -0.2644 -0.9005
   38MOL    O9320887   7.560   1.748   8.084  0.0660  0.8221 -0.2029
   38MOL    C9420888   7.528   1.959   0.084 -0.0532  0.0427 -0.1335
   38MOL    C9520889   7.602   1.927   0.196  0.4353 -0.3265 -0.1234
   38MOL    C9620890   7.624   2.029   0.288  0.2473  0.0462 -0.1063
   38MOL    C9720891   7.564   2.160   0.275 -0.3901 -0.3333  0.4794
   38MOL    C9820892   7.588   2.279   0.362 -0.0716  0.5262 -0.0483
   38MOL    O9920893   7.537   2.389   0.347 -0.4461  0.1759 -0.2324
   38MOL   C10020894   7.486   2.192   0.164  0.3741 -0.0010  0.4665
   38MOL   C10120895   7.469   2.088   0.065  0.1050 -0.8944 -0.2126
   38MOL   H10220896   7.372   2.082   7.808  1.4583  3.5472  0.7583
   38MOL   H10320897   7.419   2.144   7.641  0.3961 -0.0170  0.4939
   38MOL   H10420898   7.498   1.924   7.578 -1.0485 -3.1429 -0.2247
   38MOL   H10520899   7.328   1.916   7.611 -0.0317  0.0534 -0.5786
   38MOL   H10620900   7.428   1.728   7.691 -0.7058 -0.0593  1.9836
   38MOL   H10720901   7.565   1.822   7.761  0.7811  0.3961 -0.7932
   38MOL   H10820902   7.267   1.831   7.864  0.0287 -1.1835  0.0270
   38MOL   H10920903   7.378   1.708   7.926  3.4614 -0.4747 -0.7245
   38MOL   H11020904   7.642   1.828   0.211 -0.7975 -1.1748 -2.1489
   38MOL   H11120905   7.688   2.014   0.373 -1.8493  0.6561  1.6105
   38MOL   H11220906   7.434   2.284   0.143 -0.5778 -1.0229 -1.7840
   38MOL   H11320907   7.406   2.102   8.076  0.6026  0.8602 -0.3000
   38MOL   O11420908   7.671   2.234   0.458 -0.2096 -0.1075  0.2538
   38MOL   C11520909   7.723   2.325   0.552 -0.0044  0.5199  0.3532
   38MOL   C11620910   7.863   2.280   0.594  0.6880  0.0232 -0.8518
   38MOL   C11720911   7.919   2.384   0.694 -0.5161 -0.7729  0.1397
   38MOL   C11820912   8.068   2.346   0.722 -0.1957 -0.0018  0.4392
   38MOL   O11920913   8.071   2.241   0.812 -0.0094 -0.4968  0.0798
   38MOL   C12020914   0.044   2.135   0.784 -0.5498  0.3264 -0.0934
   38MOL   O12120915   0.098   2.113   0.676 -0.3891  0.3812 -0.4666
   38MOL   C12220916   0.038   2.028   0.885  0.2217  0.3986  0.2671
   38MOL   C12320917   0.004   2.055   1.021  0.0152  0.1560  0.5728
   38MOL   C12420918   8.086   1.950   1.112  0.1670 -0.2791  0.3509
   38MOL   C12520919   8.095   1.810   1.073  0.1367 -0.6939  0.3604
   38MOL   C12620920   8.089   1.706   1.178  0.1124  0.0501 -0.4521
   38MOL   O12720921   0.035   1.588   1.162  0.1525 -0.1755  0.1787
   38MOL   C12820922   0.027   1.784   0.939  0.4613  0.1177 -0.3203
   38MOL   C12920923   0.052   1.889   0.850  0.3235 -0.2522 -0.3071
   38MOL   H13020924   7.740   2.426   0.514  1.4592  0.4344  0.7671
   38MOL   H13120925   7.653   2.326   0.636 -2.3354 -0.8728 -1.5003
   38MOL   H13220926   7.925   2.258   0.507  1.6589 -1.2029  0.1398
   38MOL   H13320927   7.859   2.183   0.644 -0.7473  0.5928  0.1752
   38MOL   H13420928   7.920   2.485   0.654 -2.2120  0.2084  2.4208
   38MOL   H13520929   7.880   2.388   0.796 -0.6579  1.6581  0.0143
   38MOL   H13620930   0.014   2.324   0.624 -0.5278  1.5730 -0.0728
   38MOL   H13720931   0.033   2.424   0.763  0.1740 -0.7620  1.3428
   38MOL   H13820932   8.070   2.154   1.051 -1.1635  0.7803 -2.5804
   38MOL   H13920933   8.082   1.970   1.218  2.6630  0.2907  0.3607
   38MOL   H14020934   0.036   1.683   0.901  0.0018 -0.8582  2.0692
   38MOL   H14120935   0.080   1.856   0.751 -2.7217 -1.6975 -0.7225
   38MOL   O14220936   8.028   1.739   1.292 -0.5190  0.2348 -0.0100
   38MOL   C14320937   8.022   1.656   1.405 -0.2047  0.2422  0.0506
   38MOL   C14420938   7.911   1.716   1.487  0.7365  0.1058 -0.6512
   38MOL   C14520939   7.901   1.676   1.635 -0.0967 -0.8266  0.6289
   38MOL   C14620940   7.760   1.708   1.689  0.0136 -0.2303  0.6613
   38MOL   O14720941   7.730   1.853   1.656  0.1074 -0.3073 -0.3015
   38MOL   C14820942   7.624   1.887   1.585 -0.7847  0.4167  0.0916
   38MOL   O14920943   7.530   1.809   1.548 -0.4257 -0.0914  0.6106
   38MOL   C15020944   7.619   2.034   1.565 -0.2860 -0.6066 -0.3395
   38MOL   C15120945   7.495   2.089   1.585  0.1137 -0.8552 -0.2777
   38MOL   C15220946   7.480   2.223   1.542  0.0715 -0.3965 -0.0648
   38MOL   C15320947   7.582   2.301   1.483  0.5875 -0.9114  0.2838
   38MOL   C15420948   7.572   2.442   1.430  0.2993 -0.4930  0.0466
   38MOL   O15520949   7.658   2.483   1.347  0.4315 -0.3266  0.0612
   38MOL   C15620950   7.705   2.233   1.464 -0.3763  0.3208  0.1373
   38MOL   C15720951   7.730   2.107   1.513  0.1498 -0.0461 -0.1580
   38MOL   H15820952   7.992   1.553   1.388  0.7987  0.4143 -3.0156
   38MOL   H15920953   0.018   1.657   1.459 -0.5197 -0.5495  0.6220
   38MOL   H16020954   7.821   1.685   1.434 -0.6634 -0.3754  1.8986
   38MOL   H16120955   7.900   1.823   1.473 -0.0309  0.6101  3.1293
   38MOL   H16220956   7.913   1.568   1.648 -1.3710 -0.8388  1.7639
   38MOL   H16320957   7.961   1.734   1.705 -1.3841  0.0175  1.0458
   38MOL   H16420958   7.688   1.641   1.643 -1.5922  1.7908  0.1511
   38MOL   H16520959   7.747   1.693   1.797 -0.1831 -2.4766  0.3365
   38MOL   H16620960   7.408   2.035   1.619  0.0251 -0.2078  0.5162
   38MOL   H16720961   7.384   2.268   1.562  0.7804  0.6589  1.0446
   38MOL   H16820962   7.792   2.278   1.420  0.6679 -0.9275  0.8919
   38MOL   H16920963   7.830   2.071   1.497  0.2137 -1.2260  2.5603
   38MOL   O17020964   7.458   2.506   1.475 -0.2964 -0.0528  0.3420
   38MOL   C17120965   7.415   2.626   1.409 -0.2362 -0.3859  0.4568
   38MOL   C17220966   7.327   2.600   1.277  0.3141 -0.3106 -1.2162
   38MOL   C17320967   7.326   2.732   1.209 -0.1655 -0.1758 -0.4530
   38MOL   C17420968   7.203   2.825   1.217 -0.0265  0.5286 -0.2234
   38MOL   O17520969   7.220   2.944   1.149 -0.6750 -1.1973  0.2004
   38MOL   C17620970   7.252   3.050   1.216  0.3394 -0.8295 -0.3704
   38MOL   O17720971   7.282   3.051   1.335 -0.1285  0.4964 -0.1907
   38MOL   C17820972   7.242   3.169   1.127  0.0641 -0.1425  0.7007
   38MOL   C17920973   7.225   3.156   0.981 -0.2921 -0.1860 -0.0419
   38MOL   C18020974   7.221   3.266   0.898  1.0109  0.1076  0.1656
   38MOL   C18120975   7.235   3.395   0.957 -0.2230 -0.4410  0.2713
   38MOL   C18220976   7.229   3.512   0.864 -0.6478  0.2131  0.2691
   38MOL   O18320977   7.209   3.628   0.908 -0.1082  0.5311  0.4998
   38MOL   C18420978   7.252   3.415   1.095 -0.8133  0.2108 -0.3351
   38MOL   C18520979   7.257   3.301   1.180  0.4101  0.1765 -0.6446
   38MOL   H18620980   7.355   2.684   1.479  0.0642 -1.1999  1.3947
   38MOL   H18720981   7.494   2.697   1.388 -0.8646 -0.1555 -1.1949
   38MOL   H18820982   7.232   2.557   1.311  0.6134 -0.0770 -0.0578
   38MOL   H18920983   7.380   2.525   1.220  0.6584 -2.3806  1.7109
   38MOL   H19020984   7.411   2.793   1.238 -0.3180  0.0119 -0.4006
   38MOL   H19120985   7.338   2.704   1.104 -0.3942 -1.1036 -0.2383
   38MOL   H19220986   7.119   2.766   1.182 -1.5448  1.0660  2.3798
   38MOL   H19320987   7.167   2.838   1.319  1.1417 -2.3477  0.6215
   38MOL   H19420988   7.221   3.056   0.940  1.1616 -0.0684 -0.4810
   38MOL   H19520989   7.213   3.248   0.791 -0.2250  0.5174  0.1806
   38MOL   H19620990   7.268   3.514   1.134  1.2021 -0.1155 -0.2665
   38MOL   H19720991   7.273   3.322   1.285  0.7051 -2.1803 -0.1864
   38MOL   O19820992   7.243   3.483   0.732  1.0073 -0.8617 -0.7269
   38MOL   C19920993   7.239   3.582   0.635 -0.5097  0.1010  0.3726
   38MOL   C20020994   7.160   3.513   0.523 -0.3363 -0.1676 -0.0924
   38MOL   C20120995   7.017   3.479   0.561 -0.4181 -0.1606 -0.2387
   38MOL   C20220996   6.922   3.454   0.447  0.0214  0.8727  0.7511
   38MOL   O20320997   6.790   3.422   0.493  0.1456 -0.5173 -0.5920
   38MOL   C20420998   6.699   3.523   0.495 -0.6928 -0.1295 -0.0956
   38MOL   O20520999   6.723   3.627   0.442  0.4648 -0.3988 -0.2149
   38MOL   C20621000   6.577   3.503   0.577  0.0622  0.1976  0.3250
   38MOL   C20721001   6.499   3.612   0.613  0.0616  1.0053 -0.4987
   38MOL   C20821002   6.397   3.603   0.713  0.1214 -0.6569 -0.2391
   38MOL   C20921003   6.375   3.476   0.776  0.2148  0.0094  0.2766
   38MOL   C21021004   6.264   3.466   0.877 -0.0249  0.0455 -0.0195
   38MOL   O21121005   6.256   3.386   0.962  0.0512 -0.5374 -0.5463
   38MOL   C21221006   6.446   3.362   0.729  0.4001  0.0660  0.5883
   38MOL   C21321007   6.553   3.379   0.637  0.6097  0.3778 -0.7607
   38MOL   H21421008   7.178   3.670   0.660  1.0274  1.4688 -0.6129
   38MOL   H21521009   7.334   3.613   0.592 -1.2186  1.2421 -0.3888
   38MOL   H21621010   7.215   3.436   0.470 -0.3318  0.8257 -1.5937
   38MOL   H21721011   7.144   3.588   0.445  0.3963  1.2607  1.0928
   38MOL   H21821012   7.024   3.388   0.621  0.9771  0.7652  1.0311
   38MOL   H21921013   6.981   3.560   0.624  0.5368  0.5177 -0.5612
   38MOL   H22021014   6.921   3.547   0.390  0.3706  0.1078 -0.5465
   38MOL   H22121015   6.964   3.386   0.372  0.8216  0.9379  1.1409
   38MOL   H22221016   6.515   3.706   0.563 -0.2512  1.2504 -0.1420
   38MOL   H22321017   6.341   3.693   0.735  0.3371 -0.5829  0.0094
   38MOL   H22421018   6.418   3.263   0.761  0.3343 -0.4715 -1.0888
   38MOL   H22521019   6.596   3.281   0.618 -0.0712 -0.3474  1.3340
   38MOL   O22621020   6.188   3.572   0.880  0.1464 -0.1640  0.0914
   38MOL   C22721021   6.094   3.600   0.981 -0.0973  0.1229 -0.4019
   38MOL   C22821022   6.036   3.735   0.960 -0.0830  0.3602 -0.0472
   38MOL   C22921023   6.008   3.767   0.814  0.1834 -1.0920 -0.9207
   38MOL   C23021024   5.909   3.878   0.817 -0.4177  0.3817 -0.4269
   38MOL   O23121025   5.866   3.903   0.680  0.5735 -0.0474 -0.3970
   38MOL   C23221026   5.802   4.023   0.655 -0.2581  0.0193 -0.3783
   38MOL   O23321027   5.757   4.098   0.744 -0.2199 -0.3931 -0.2508
   38MOL   C23421028   5.790   4.052   0.514  0.2639 -0.2569 -0.4017
   38MOL   C23521029   5.710   4.164   0.480 -0.2346  0.3435  0.3531
   38MOL   C23621030   5.696   4.190   0.339 -1.1518 -0.3758  0.1199
   38MOL   C23721031   5.751   4.097   0.247 -0.1895 -0.4721  0.6040
   38MOL   C23821032   5.728   4.112   0.097 -0.7563  0.7001 -0.4884
   38MOL   O23921033   5.713   4.015   0.019 -0.5141  0.1429  0.3207
   38MOL   C24021034   5.826   3.983   0.285  0.0812  0.1646 -0.2030
   38MOL   C24121035   5.842   3.957   0.423  0.0467 -0.0030  0.3083
   38MOL   H24221036   6.025   3.517   0.996 -0.3036  0.6136  1.5015
   38MOL   H24321037   6.132   3.604   1.083  1.4199 -0.4568 -0.9279
   38MOL   H24421038   6.106   3.810   0.996  1.6694 -1.3190  0.0606
   38MOL   H24521039   5.947   3.741   1.022  0.5477  2.1395  0.7181
   38MOL   H24621040   6.097   3.794   0.757  1.7341 -1.2916  1.3613
   38MOL   H24721041   5.962   3.684   0.762 -0.4555  0.3899 -2.7853
   38MOL   H24821042   5.829   3.848   0.884  1.2622 -0.0843  1.4049
   38MOL   H24921043   5.958   3.966   0.859 -0.4712 -1.0698  2.8206
   38MOL   H25021044   5.669   4.224   0.560 -0.5871 -0.3341  0.6925
   38MOL   H25121045   5.641   4.275   0.302 -1.7129 -1.4713 -1.6034
   38MOL   H25221046   5.861   3.907   0.217 -0.8658 -2.3762  2.0457
   38MOL   H25321047   5.892   3.864   0.445  2.9982  2.0571  2.7002
   38MOL   O25421048   5.725   4.237   0.052  0.1505  0.6657  0.4482
   38MOL   C25521049   5.745   4.260   8.014 -0.8086 -0.1825 -0.6061
   38MOL   C25621050   5.751   4.412   7.994 -0.2661  0.1038 -0.8006
   38MOL   C25721051   5.617   4.484   8.014 -0.1176 -1.1199 -0.3087
   38MOL   C25821052   5.634   4.640   8.010 -0.4827 -0.5062 -0.0209
   38MOL   O25921053   5.508   4.694   7.980 -0.4251 -0.1232  0.0358
   38MOL   C26021054   5.462   4.799   8.050  0.3546  0.6191  0.0803
   38MOL   O26121055   5.521   4.832   0.056  0.5659 -0.2349  0.4539
   38MOL   C26221056   5.344   4.873   7.989 -1.2763 -0.1332 -0.3350
   38MOL   C26321057   5.272   4.808   7.882 -0.1078 -0.8351  0.6048
   38MOL   C26421058   5.161   4.868   7.817 -0.0109 -0.2290  0.3565
   38MOL   C26521059   5.113   4.995   7.859  0.2413  0.5184 -0.0876
   38MOL   C26621060   4.996   5.060   7.800 -0.4923  0.1957  0.6983
   38MOL   O26721061   4.971   5.176   7.830  0.1223 -0.9615  0.0378
   38MOL   C26821062   5.193   5.067   7.960  0.1658  0.4838 -0.3722
   38MOL   C26921063   5.301   5.001   8.030 -0.1751  0.0921  0.2075
   38MOL   H27021064   5.839   4.214   7.985  0.7042  0.9760  2.1927
   38MOL   H27121065   5.660   4.217   7.961 -1.1643  0.7054 -0.7703
   38MOL   H27221066   5.776   4.427   7.889  2.9936 -0.2394 -0.1292
   38MOL   H27321067   5.832   4.454   8.054 -1.4053  2.1885 -0.6733
   38MOL   H27421068   5.546   4.458   7.935 -1.4497  0.4903  0.3192
   38MOL   H27521069   5.575   4.458   0.013  0.7828  0.6452  0.5773
   38MOL   H27621070   5.687   4.676   8.098 -0.5944  1.8910 -0.8913
   38MOL   H27721071   5.706   4.668   7.933 -1.4073 -1.1261 -1.1157
   38MOL   H27821072   5.301   4.711   7.843  0.9420 -0.1190 -0.4183
   38MOL   H27921073   5.106   4.815   7.741 -0.3157 -0.8189  0.9721
   38MOL   H28021074   5.167   5.169   7.983  1.3605  0.8032 -0.4411
   38MOL   H28121075   5.348   5.053   0.014  0.7223 -1.0897  0.4578
   38MOL   O28221076   4.922   4.986   7.706  0.6796 -0.0557  0.4424
   38MOL   C28321077   4.824   5.050   7.633 -0.1380 -0.5314 -0.5384
   38MOL   C28421078   4.869   5.125   7.509 -0.0356  0.0768  0.0666
   38MOL   C28521079   4.755   5.207   7.451 -0.2161 -0.2989 -0.0056
   38MOL   C28621080   4.696   5.309   7.553  0.3932  0.4360  0.2846
   38MOL   O28721081   4.649   5.429   7.493  0.3768 -0.0254 -0.1472
   38MOL   C28821082   4.579   5.520   7.560  0.4797 -0.9124  0.3262
   38MOL   O28921083   4.569   5.520   7.680 -0.2880  0.8295 -0.5278
   38MOL   C29021084   4.511   5.627   7.471 -0.4027  0.2565  0.1209
   38MOL   C29121085   4.412   5.715   7.525 -0.8525  0.6009  0.2028
   38MOL   C29221086   4.342   5.802   7.449  0.4221 -0.0239 -0.0493
   38MOL   C29321087   4.383   5.824   7.317  0.5872 -0.1541  0.0363
   38MOL   C29421088   4.313   5.930   7.234  0.0740  0.0617  0.2180
   38MOL   O29521089   4.365   6.002   7.152  0.1431  0.0218 -0.1624
   38MOL   C29621090   4.479   5.737   7.257 -0.2634 -0.6951 -0.7031
   38MOL   C29721091   4.536   5.628   7.329 -0.2782  0.7367  0.1233
   38MOL   H29821092   4.767   4.961   7.604 -0.4462 -1.3514  2.4316
   38MOL   H29921093   4.763   5.108   7.702 -0.7623 -2.0724  0.2433
   38MOL   H30021094   4.892   5.049   7.435  0.3733 -0.4763  0.7520
   38MOL   H30121095   4.963   5.178   7.526 -0.1596 -0.2420  1.9170
   38MOL   H30221096   4.783   5.257   7.358 -0.7525 -2.0139 -1.1065
   38MOL   H30321097   4.671   5.141   7.430  0.3437 -0.9810 -0.0859
   38MOL   H30421098   4.625   5.259   7.620  1.9577 -2.1840  0.0892
   38MOL   H30521099   4.776   5.337   7.621  0.8090 -1.5413  0.6487
   38MOL   H30621100   4.394   5.728   7.630 -3.5984 -1.0363 -0.0140
   38MOL   H30721101   4.257   5.854   7.490  1.5452  2.1293 -0.4130
   38MOL   H30821102   4.510   5.751   7.154  0.9898 -1.5302 -0.4532
   38MOL   H30921103   4.605   5.560   7.282 -1.1487 -0.6195  0.7838
   38MOL   O31021104   4.184   5.934   7.251  0.0149 -0.0178  0.0488
   38MOL   C31121105   4.091   6.030   7.195 -0.6916 -0.0533 -0.4851
   38MOL   C31221106   3.957   5.957   7.180 -0.2515 -0.0055 -0.0608
   38MOL   C31321107   3.884   5.925   7.312 -0.7409  0.0765  0.2759
   38MOL   C31421108   3.744   5.882   7.279  0.1893 -0.2005  0.0619
   38MOL   O31521109   3.673   5.827   7.390 -0.2192 -0.3566 -0.5309
   38MOL   C31621110   3.581   5.904   7.443  0.7564  0.0259  0.0664
   38MOL   O31721111   3.566   6.021   7.407 -0.4372  0.2939 -0.0821
   38MOL   C31821112   3.481   5.832   7.530 -0.5053 -0.2386  0.2572
   38MOL   C31921113   3.490   5.694   7.565  0.7789  0.3035 -0.4412
   38MOL   C32021114   3.390   5.641   7.654  0.2415 -0.0145  0.3508
   38MOL   C32121115   3.287   5.718   7.700 -0.4288  0.0140  0.3871
   38MOL   C32221116   3.186   5.654   7.783  0.3268  0.1486 -0.1332
   38MOL   O32321117   3.187   5.537   7.827 -0.2351 -0.7202 -1.1553
   38MOL   C32421118   3.285   5.856   7.672 -0.9118  0.0480 -0.2786
   38MOL   C32521119   3.382   5.915   7.588 -0.0158  0.3437 -0.0671
   38MOL   H32621120   4.075   6.119   7.256  0.8792  0.8465 -1.3319
   38MOL   H32721121   4.126   6.065   7.098 -2.1299 -0.0432 -0.9970
   38MOL   H32821122   3.964   5.872   7.112  0.8320 -1.5037  1.8829
   38MOL   H32921123   3.890   6.017   7.118 -0.7951  1.2454  1.6915
   38MOL   H33021124   3.934   5.847   7.369 -0.4032 -0.8489 -1.2468
   38MOL   H33121125   3.873   6.015   7.373 -1.1384  1.1746 -1.3756
   38MOL   H33221126   3.698   5.969   7.232 -1.6909 -0.7389  0.8682
   38MOL   H33321127   3.742   5.811   7.196  1.8709  0.8447 -0.8847
   38MOL   H33421128   3.571   5.631   7.533  0.9312  1.0167 -1.4902
   38MOL   H33521129   3.396   5.539   7.688 -1.6344  0.1713  1.3116
   38MOL   H33621130   3.208   5.921   7.711  1.0103  2.3122 -0.1947
   38MOL   H33721131   3.369   6.020   7.568 -1.8961  0.0351 -0.5775
   38MOL   O33821132   3.080   5.732   7.816  0.2490 -0.1789  0.0439
   38MOL   C33921133   2.967   5.678   7.891 -0.6509  0.0130 -0.1225
   38MOL   C34021134   2.987   5.715   8.035  0.2440 -0.2598  0.0721
   38MOL   C34121135   2.877   5.664   0.035  0.6154  0.0982  0.0820
   38MOL   C34221136   2.898   5.702   0.183 -0.1471  0.0505 -0.0812
   38MOL   O34321137   2.783   5.667   0.249 -0.5614  0.3018 -0.4320
   38MOL   C34421138   2.762   5.712   0.374 -0.1967  0.6388  0.2070
   38MOL   O34521139   2.817   5.809   0.425  0.2435 -0.2048  0.9694
   38MOL   C34621140   2.667   5.629   0.457  0.4549 -0.3565  0.4388
   38MOL   C34721141   2.620   5.505   0.414  0.7214  0.1010 -0.6038
   38MOL   C34821142   2.532   5.428   0.491 -0.6373 -0.4461 -0.8580
   38MOL   C34921143   2.490   5.479   0.619  0.2063 -0.1380  0.3030
   38MOL   C35021144   2.404   5.395   0.703 -0.3770  0.5700 -0.6574
   38MOL   O35121145   2.373   5.279   0.661 -0.0319  0.4528  0.0310
   38MOL   C35221146   2.541   5.603   0.667  0.0641 -0.4432  0.6218
   38MOL   C35321147   2.621   5.683   0.582 -0.2990  0.0443 -0.1613
   38MOL   H35421148   2.881   5.738   7.863 -0.9496 -1.3393 -2.2882
   38MOL   H35521149   2.968   5.569   7.888 -2.5353 -0.0613  1.2665
   38MOL   H35621150   3.012   5.821   8.041  0.5606 -0.1672 -2.2625
   38MOL   H35721151   3.085   5.668   8.051  1.5870  1.3007 -3.0718
   38MOL   H35821152   2.781   5.707   0.006  0.1532 -2.0595 -1.7691
   38MOL   H35921153   2.872   5.555   0.035 -0.9913  0.1568  0.3921
   38MOL   H36021154   2.985   5.647   0.220 -1.7399 -1.9045  0.8323
   38MOL   H36121155   2.920   5.808   0.186  2.9151 -0.4577 -2.3491
   38MOL   H36221156   2.655   5.459   0.323  1.0970 -0.9232  0.0511
   38MOL   H36321157   2.496   5.334   0.451 -0.5277 -1.4912  1.4486
   38MOL   H36421158   2.502   5.643   0.759 -0.0469  0.8129  0.0301
   38MOL   H36521159   2.658   5.779   0.616 -1.2695  0.5249 -0.4536
   38MOL   O36621160   2.382   5.442   0.824  0.3616  0.5181  0.1715
   38MOL   C36721161   2.306   5.368   0.918 -0.5549 -0.6023  0.2853
   38MOL   C36821162   2.389   5.298   1.020  0.3558 -0.7950 -0.6777
   38MOL   C36921163   2.334   5.168   1.060 -0.5317  0.0711  0.0533
   38MOL   C37021164   2.203   5.168   1.131  0.0805 -0.5868  0.3058
   38MOL   O37121165   2.147   5.037   1.139 -0.3231 -0.2911 -0.2946
   38MOL   C37221166   2.021   5.016   1.085 -0.6656 -0.7292  0.9209
   38MOL   O37321167   1.953   5.108   1.046  0.0917  0.5830  0.4026
   38MOL   C37421168   1.991   4.869   1.082 -0.7848  0.8688 -0.1928
   38MOL   C37521169   2.083   4.783   1.146 -0.2666  0.2852 -1.1312
   38MOL   C37621170   2.059   4.641   1.131  0.0057 -0.0700 -0.1390
   38MOL   C37721171   1.952   4.589   1.057  0.2930  0.3101 -0.2334
   38MOL   C37821172   1.937   4.443   1.030  0.0306  0.2873  0.5183
   38MOL   O37921173   1.873   4.395   0.937  0.5816 -0.3251  0.6558
   38MOL   C38021174   1.866   4.678   0.997  0.1269  0.0314 -0.9002
   38MOL   C38121175   1.884   4.821   0.998  0.1441  0.1709 -0.1521
   38MOL   H38221176   2.239   5.441   0.962 -0.1844  0.1469 -0.3924
   38MOL   H38321177   2.248   5.292   0.864  1.1229 -2.2033  0.6836
   38MOL   H38421178   2.395   5.373   1.098  1.5088 -0.3992 -1.1410
   38MOL   H38521179   2.492   5.283   0.988  1.0950 -0.3757  1.4603
   38MOL   H38621180   2.340   5.101   0.974 -0.2531 -0.5759  0.5649
   38MOL   H38721181   2.413   5.131   1.126 -0.1833  0.2519 -0.2606
   38MOL   H38821182   2.209   5.217   1.228 -3.2085  1.1212 -0.2730
   38MOL   H38921183   2.144   5.233   1.065  0.9447  0.6238  0.7042
   38MOL   H39021184   2.171   4.816   1.200 -0.7714 -0.1804  0.0004
   38MOL   H39121185   2.132   4.576   1.178  0.2984  0.6150  0.3658
   38MOL   H39221186   1.791   4.641   0.929 -1.3888 -1.3209  1.4813
   38MOL   H39321187   1.819   4.892   0.948 -1.1287 -1.1049 -0.3428
   38MOL   O39421188   1.995   4.374   1.123  0.3242 -0.5052 -0.1942
   38MOL   C39521189   2.031   4.239   1.109  0.3397  0.2628 -0.2022
   38MOL   C39621190   1.933   4.162   1.190 -0.1067 -0.0865  0.0265
   38MOL   C39721191   1.952   4.205   1.340  0.5417  0.2364 -0.2958
   38MOL   C39821192   1.909   4.105   1.445 -0.4790  0.1774 -1.1452
   38MOL   O39921193   1.767   4.081   1.425 -0.5865  0.3760  0.0573
   38MOL   C40021194   1.684   4.181   1.455 -0.2481 -0.5043  0.0564
   38MOL   O40121195   1.714   4.282   1.517 -0.2439  0.8660  0.5211
   38MOL   C40221196   1.545   4.160   1.414  0.4577  0.3685 -0.5552
   38MOL   C40321197   1.448   4.251   1.467 -1.0325  0.0809  0.3731
   38MOL   C40421198   1.314   4.227   1.432 -0.4147 -0.2857  0.1882
   38MOL   C40521199   1.274   4.108   1.364  0.0927 -0.0321  0.0175
   38MOL   C40621200   1.133   4.068   1.331  0.3599 -0.3507  0.6395
   38MOL   O40721201   1.107   3.957   1.284  0.1385 -0.0046  0.3170
   38MOL   C40821202   1.372   4.018   1.313  0.6076 -0.3451  0.6631
   38MOL   C40921203   1.504   4.050   1.331 -0.0574 -0.2817  0.1996
   38MOL   H41021204   2.020   4.215   1.003 -0.5160 -1.2317  0.1976
   38MOL   H41121205   2.135   4.217   1.135 -0.2580 -0.8930  1.2508
   38MOL   H41221206   1.960   4.058   1.171  1.0536  0.1928  0.1111
   38MOL   H41321207   1.833   4.181   1.150 -1.3221 -2.3822  1.8526
   38MOL   H41421208   2.060   4.218   1.349  0.3814  1.3638  0.0672
   38MOL   H41521209   1.907   4.305   1.340  0.3733  0.1599 -0.2524
   38MOL   H41621210   1.953   4.009   1.421  2.4994  1.4575 -1.0219
   38MOL   H41721211   1.932   4.134   1.547  0.8062  0.4583 -1.5057
   38MOL   H41821212   1.469   4.343   1.520 -1.1845 -0.9770  2.3256
   38MOL   H41921213   1.242   4.297   1.473  0.8904  0.4054  1.3741
   38MOL   H42021214   1.350   3.927   1.258 -0.5115  0.7476 -0.7676
   38MOL   H42121215   1.582   3.981   1.302 -0.5687 -0.0759 -1.7027
   38MOL   O42221216   1.045   4.167   1.364 -0.5315  0.2721 -0.0603
   38MOL   C42321217   0.910   4.137   1.361 -0.4057 -0.7911 -0.1639
   38MOL   C42421218   0.855   4.233   1.257 -0.8230 -0.3825  0.3969
   38MOL   C42521219   0.719   4.277   1.295 -0.1710 -0.1731  0.7329
   38MOL   C42621220   0.671   4.388   1.190 -0.0228  0.2703 -0.6568
   38MOL   O42721221   0.565   4.459   1.257 -0.6008 -0.3621 -0.1197
   38MOL   C42821222   0.494   4.548   1.186 -0.0003  0.5294 -0.4418
   38MOL   O42921223   0.515   4.576   1.067 -0.4696  0.3370 -0.2758
   38MOL   C43021224   0.386   4.594   1.267 -0.8840 -0.4369 -0.3393
   38MOL   C43121225   0.392   4.613   1.407 -0.7336 -0.3882  0.2460
   38MOL   C43221226   0.281   4.661   1.477  0.2565  0.2500 -0.2889
   38MOL   C43321227   0.165   4.705   1.406  0.2210  0.0181 -0.0126
   38MOL   C43421228   0.044   4.760   1.472  0.0188 -0.4561 -0.4423
   38MOL   O43521229   0.029   4.755   1.599 -0.4490  0.2077 -0.2085
   38MOL   C43621230   0.169   4.700   1.262  0.6306  0.4979 -0.2159
   38MOL   C43721231   0.275   4.639   1.198 -0.1169  0.2630 -0.1610
   38MOL   H43821232   0.878   4.033   1.352  0.0626 -0.8121 -1.6792
   38MOL   H43921233   0.867   4.168   1.457  0.0162  0.1012 -0.2552
   38MOL   H44021234   0.860   4.201   1.153 -0.5693  1.2290 -0.1057
   38MOL   H44121235   0.914   4.324   1.271 -3.7734  1.5648  0.6993
   38MOL   H44221236   0.655   4.188   1.291  1.0239 -0.9522 -2.6315
   38MOL   H44321237   0.718   4.316   1.396  0.1392 -1.3087  1.1783
   38MOL   H44421238   0.749   4.463   1.173 -0.2799  0.7331  0.1859
   38MOL   H44521239   0.646   4.342   1.094 -1.1510  0.1981 -0.3343
   38MOL   H44621240   0.484   4.595   1.459  1.3492  0.4975 -2.9483
   38MOL   H44721241   0.288   4.665   1.585 -0.1899  2.5419 -0.3133
   38MOL   H44821242   0.091   4.731   1.194  0.6745  0.6513 -0.1960
   38MOL   H44921243   0.273   4.628   1.090  2.3575  1.0641 -0.3261
   38MOL   O45021244   8.041   4.811   1.381  0.5019  0.2868  0.5945
   38MOL   C45121245   7.936   4.880   1.443 -0.1546 -0.6615  0.1955
   38MOL   C45221246   7.848   4.936   1.339 -0.1592 -0.1261 -0.2999
   38MOL   C45321247   7.746   5.034   1.386  0.2305  0.2082 -0.4665
   38MOL   C45421248   7.639   4.962   1.466 -0.0300 -0.1286  0.2768
   38MOL   O45521249   7.556   4.866   1.401 -0.2429 -0.2904  0.5313
   38MOL   C45621250   7.555   4.737   1.445  0.1327  0.0354  0.6048
   38MOL   O45721251   7.635   4.696   1.533 -0.2276  0.2023 -0.1716
   38MOL   C45821252   7.450   4.657   1.378  0.9767 -0.0158 -0.2757
   38MOL   C45921253   7.404   4.681   1.245 -0.3343  0.2753 -0.5032
   38MOL   C46021254   7.314   4.584   1.183  0.1033  0.4162 -0.2124
   38MOL   C46121255   7.266   4.467   1.247 -0.6155 -0.4186  0.3163
   38MOL   C46221256   7.193   4.367   1.178  0.0899 -0.5875 -0.1605
   38MOL   O46321257   7.137   4.272   1.239  0.1608 -0.5562 -0.5369
   38MOL   C46421258   7.310   4.455   1.381  0.0770 -0.4569 -0.3973
   38MOL   C46521259   7.402   4.548   1.445 -1.3238  0.0833 -0.1008
   38MOL   H46621260   7.883   4.819   1.517  0.2049  0.4330  1.3807
   38MOL   H46721261   7.977   4.960   1.505 -0.6975 -0.5834  0.4621
   38MOL   H46821262   7.807   4.843   1.300  1.6186 -1.2210  0.3653
   38MOL   H46921263   7.907   4.987   1.263 -0.9672 -0.2036 -0.9916
   38MOL   H47021264   7.777   5.107   1.461 -1.7173  1.4715 -0.8482
   38MOL   H47121265   7.699   5.093   1.307  0.2687  1.3076  0.3098
   38MOL   H47221266   7.691   4.922   1.553 -0.4215 -1.2641 -0.0061
   38MOL   H47321267   7.568   5.030   1.513 -0.6826 -1.8773  1.8637
   38MOL   H47421268   7.443   4.757   1.178  2.1170  1.3986  2.0844
   38MOL   H47521269   7.296   4.586   1.076  0.4668 -4.0390 -0.4748
   38MOL   H47621270   7.280   4.371   1.442 -0.7761  0.5739  0.6265
   38MOL   H47721271   7.430   4.536   1.548 -3.5925  0.6411  0.6031
   38MOL   O47821272   7.181   4.384   1.040 -0.0235  0.1053  0.1892
   38MOL   C47921273   7.122   4.286   0.953  0.4883  0.0253  0.5597
   38MOL   C48021274   7.089   4.356   0.823 -0.2354 -0.4123 -0.0866
   38MOL   C48121275   7.018   4.265   0.723 -0.4265  0.0522  0.3290
   38MOL   C48221276   6.904   4.347   0.661  0.3212 -0.1359 -0.7037
   38MOL   O48321277   6.804   4.390   0.760  0.1691 -0.0418  0.0732
   38MOL   C48421278   6.725   4.307   0.834  0.5647 -0.4380  0.1933
   38MOL   O48521279   6.733   4.187   0.837  0.5030 -0.3406  0.3958
   38MOL   C48621280   6.635   4.381   0.927  0.3676  0.1440 -0.8730
   38MOL   C48721281   6.529   4.319   0.994  0.1967 -0.7985 -0.4211
   38MOL   C48821282   6.448   4.374   1.094 -0.1992  0.3163  0.4111
   38MOL   C48921283   6.471   4.510   1.131 -0.4118  0.1897 -0.4900
   38MOL   C49021284   6.390   4.573   1.224 -0.2422 -0.4033 -0.0071
   38MOL   O49121285   6.387   4.694   1.249  0.4523 -0.1191  0.1132
   38MOL   C49221286   6.566   4.581   1.055 -0.2982 -0.0321 -0.0575
   38MOL   C49321287   6.658   4.516   0.963  0.5959 -0.3471 -0.4194
   38MOL   H49421288   7.193   4.204   0.943  0.4844  0.1780 -0.7400
   38MOL   H49521289   7.038   4.239   1.005  0.3198  1.5434  1.7105
   38MOL   H49621290   7.188   4.382   0.785 -0.3204  0.6392  0.3999
   38MOL   H49721291   7.029   4.445   0.844 -2.6884 -1.4584 -2.4445
   38MOL   H49821292   7.089   4.228   0.649 -0.9258  0.0210 -0.1361
   38MOL   H49921293   6.981   4.175   0.771  1.5743 -0.9655  0.0385
   38MOL   H50021294   6.942   4.433   0.604 -0.2639  0.2966 -0.4403
   38MOL   H50121295   6.846   4.283   0.594 -3.6592  0.9590  1.5286
   38MOL   H50221296   6.513   4.217   0.963 -1.9443 -0.0527 -1.8890
   38MOL   H50321297   6.377   4.305   1.139  0.0224 -0.6362 -0.6620
   38MOL   H50421298   6.594   4.678   1.092  1.7600  0.1800 -2.0643
   38MOL   H50521299   6.730   4.577   0.910 -0.7818 -0.0896 -2.0522
   38MOL   O50621300   6.309   4.487   1.288 -0.0369 -0.5666 -0.5246
   38MOL   C50721301   6.219   4.527   1.389  0.3915  0.3230  0.7073
   38MOL   C50821302   6.194   4.425   1.508  0.1750 -0.5220  0.2340
   38MOL   C50921303   6.143   4.480   1.645  0.4371  0.4526 -0.2117
   38MOL   C51021304   6.121   4.376   1.752 -0.3706 -0.6227 -0.4389
   38MOL   O51121305   6.062   4.438   1.870  0.3500  0.0774 -0.0814
   38MOL   C51221306   6.101   4.395   1.996 -0.3640  0.4142 -0.2482
   38MOL   O51321307   6.186   4.312   2.022 -0.2885 -0.3964  0.1139
   38MOL   C51421308   6.028   4.466   2.104  0.6703  0.4478 -0.4690
   38MOL   C51521309   5.895   4.509   2.085  1.1530  0.0754 -0.3418
   38MOL   C51621310   5.820   4.564   2.190 -0.6383 -0.6621  0.3578
   38MOL   C51721311   5.884   4.579   2.315  0.3616 -0.4172  0.1792
   38MOL   C51821312   5.788   4.635   2.417 -0.5313 -0.1813 -0.1478
   38MOL   O51921313   5.677   4.665   2.385 -0.3041  0.0555 -0.5404
   38MOL   C52021314   6.017   4.537   2.334 -0.3726  0.0684 -0.0296
   38MOL   C52121315   6.096   4.495   2.224 -0.7873  0.1998 -0.6238
   38MOL   H52221316   6.272   4.611   1.435  0.9361  0.0041  0.6718
   38MOL   H52321317   6.122   4.562   1.354  1.3501  1.1001 -1.2416
   38MOL   H52421318   6.287   4.369   1.517  0.2455 -0.7298 -1.5128
   38MOL   H52521319   6.125   4.352   1.466  0.3669 -0.7027  0.2335
   38MOL   H52621320   6.215   4.556   1.676 -1.0969  1.7032  0.3565
   38MOL   H52721321   6.047   4.531   1.640 -1.1269 -2.3362  0.2615
   38MOL   H52821322   6.047   4.299   1.729  1.5466 -2.5843 -0.2099
   38MOL   H52921323   6.213   4.325   1.779 -1.4494 -2.1675  0.3945
   38MOL   H53021324   5.850   4.497   1.988  2.2237 -2.3541 -0.5848
   38MOL   H53121325   5.717   4.589   2.171 -0.2711  0.0003 -0.7886
   38MOL   H53221326   6.068   4.541   2.429  0.0453 -2.4274 -0.1189
   38MOL   H53321327   6.197   4.461   2.243 -1.6805 -2.6696 -0.8652
   38MOL   O53421328   5.840   4.641   2.538 -0.4319 -0.6145 -0.2369
   38MOL   C53521329   5.757   4.702   2.636  1.0104  0.3745  0.5700
   38MOL   C53621330   5.831   4.698   2.771 -1.4832 -0.5477  0.1820
   38MOL   C53721331   5.818   4.556   2.831 -0.0910 -0.3923 -0.1374
   38MOL   C53821332   5.934   4.537   2.931 -0.5347  0.1848  0.2066
   38MOL   O53921333   6.063   4.526   2.865 -0.6878 -0.1826  0.1540
   38MOL   C54021334   6.155   4.452   2.925 -0.3159  0.8755  0.3299
   38MOL   O54121335   6.170   4.435   3.051 -0.1749  0.7798  0.5007
   38MOL   C54221336   6.236   4.381   2.821 -0.6713 -0.3279 -0.5710
   38MOL   C54321337   6.192   4.390   2.687 -0.8262  0.4258 -0.1107
   38MOL   C54421338   6.268   4.322   2.589 -0.3157  0.3009  0.4855
   38MOL   C54521339   6.378   4.247   2.631  0.0605  0.4958 -0.1118
   38MOL   C54621340   6.455   4.178   2.527 -0.1947  0.9751 -0.4779
   38MOL   O54721341   6.569   4.130   2.536  0.0756 -0.6942  0.9896
   38MOL   C54821342   6.417   4.237   2.767 -0.4017  0.3164 -0.0764
   38MOL   C54921343   6.347   4.308   2.858 -0.0858 -0.6147  0.3094
   38MOL   H55021344   5.736   4.803   2.602 -0.2637 -0.4370 -1.0829
   38MOL   H55121345   5.667   4.640   2.645 -0.0694  1.7412 -0.6629
   38MOL   H55221346   5.788   4.769   2.841 -2.0213  0.2705 -0.9530
   38MOL   H55321347   5.933   4.728   2.747  0.2359 -3.3531  3.7033
   38MOL   H55421348   5.720   4.536   2.873 -0.6893  0.5083 -1.0868
   38MOL   H55521349   5.827   4.486   2.748 -1.5718  1.0040 -1.4925
   38MOL   H55621350   5.949   4.618   3.002  1.5141 -1.4709  1.7365
   38MOL   H55721351   5.919   4.449   2.995  1.0910  0.2745  0.7308
   38MOL   H55821352   6.103   4.446   2.661 -1.5217 -1.0587 -1.0458
   38MOL   H55921353   6.239   4.336   2.486  2.1129  0.2841 -0.2421
   38MOL   H56021354   6.498   4.173   2.798  0.0629  1.2768  0.7209
   38MOL   H56121355   6.371   4.305   2.964  1.9014  2.0211 -0.0263
   38MOL   H56221356   6.390   4.162   2.442 -1.2261 -2.2161  0.8403
   39MOL     O121357   3.946   3.244   5.320 -1.0973 -0.3343 -0.2314
   39MOL     C221358   4.072   3.210   5.374 -0.4509 -0.1977  0.1576
   39MOL     C321359   4.069   3.189   5.525  0.2476 -0.2149 -0.6743
   39MOL     C421360   4.014   3.314   5.606 -0.5374  0.0229 -0.3683
   39MOL     C521361   4.020   3.288   5.754 -0.4211 -0.1279 -0.2290
   39MOL     O621362   3.950   3.392   5.821  0.0189  0.5068  0.1286
   39MOL     C721363   3.975   3.424   5.955  0.0253  0.4550  0.1897
   39MOL     O821364   4.081   3.385   6.013 -0.2813 -0.7472 -0.0224
   39MOL     C921365   3.868   3.509   6.020 -0.5606  0.4739 -0.0272
   39MOL    C1021366   3.906   3.581   6.134 -0.1714  0.4852 -0.0435
   39MOL    C1121367   3.803   3.657   6.186 -0.1770 -0.6632  0.1557
   39MOL    C1221368   3.676   3.668   6.132  0.5086 -0.8993 -0.4344
   39MOL    C1321369   3.569   3.742   6.203 -0.2023  0.1469  0.0736
   39MOL    O1421370   3.581   3.826   6.296  0.1617  0.2209  0.9496
   39MOL    C1521371   3.639   3.593   6.013 -0.5547 -0.0607  0.4051
   39MOL    C1621372   3.736   3.512   5.960 -0.4521  0.1406  0.0690
   39MOL    H1721373   4.099   3.116   5.326  1.9541  0.4398  0.2036
   39MOL    H1821374   4.146   3.284   5.343 -0.7909 -0.8718 -2.4270
   39MOL    H1921375   4.164   3.150   5.560 -0.1924 -0.6447  0.0486
   39MOL    H2021376   4.001   3.104   5.536  2.8875 -2.2937 -0.1396
   39MOL    H2121377   4.082   3.396   5.585 -1.5403  0.8304 -0.4753
   39MOL    H2221378   3.914   3.339   5.570 -0.7310  2.4385  1.7703
   39MOL    H2321379   3.969   3.194   5.777  0.2793 -0.7081 -1.0254
   39MOL    H2421380   4.124   3.278   5.787  0.3479 -2.0827 -3.0896
   39MOL    H2521381   3.998   3.565   6.189 -0.0086  0.0500 -0.4403
   39MOL    H2621382   3.818   3.716   6.275  0.4139 -1.6586  0.7189
   39MOL    H2721383   3.551   3.608   5.952 -0.0180 -1.3523 -0.7098
   39MOL    H2821384   3.702   3.446   5.881 -0.3797  1.5920 -1.2086
   39MOL    H2921385   3.925   3.334   5.340 -0.3917 -0.0072 -0.9465
   39MOL    O3021386   3.449   3.713   6.158 -0.9191  0.1909  0.0073
   39MOL    C3121387   3.338   3.718   6.242  0.4161  0.1530  0.0476
   39MOL    C3221388   3.321   3.596   6.327 -0.4961 -0.4739  0.5641
   39MOL    C3321389   3.279   3.476   6.234  0.3895  0.2412  0.4890
   39MOL    C3421390   3.289   3.343   6.301  0.8638 -0.5672 -0.4080
   39MOL    O3521391   3.422   3.293   6.308 -0.1240  0.2213  0.1582
   39MOL    C3621392   3.466   3.197   6.229 -0.1366  0.0533 -0.1381
   39MOL    O3721393   3.393   3.126   6.157  0.2933 -0.1628 -0.2821
   39MOL    C3821394   3.617   3.196   6.228  0.2624  0.7328  0.7019
   39MOL    C3921395   3.697   3.260   6.320 -0.4949 -0.2112  0.2337
   39MOL    C4021396   3.839   3.244   6.315 -0.4972 -0.4401 -0.6355
   39MOL    C4121397   3.900   3.180   6.209 -0.2021  0.6212  1.0321
   39MOL    C4221398   4.046   3.160   6.214  0.4335  0.7119  0.9138
   39MOL    O4321399   4.121   3.206   6.303  0.8260 -0.4663  0.3096
   39MOL    C4421400   3.821   3.112   6.116  0.1764 -0.2995 -0.0905
   39MOL    C4521401   3.682   3.119   6.128 -0.6060  0.6029 -0.0875
   39MOL    H4621402   3.325   3.810   6.299 -1.2078  0.3753 -0.6814
   39MOL    H4721403   3.244   3.725   6.188 -0.8293 -2.3066  1.7913
   39MOL    H4821404   3.237   3.631   6.387 -2.5589 -0.5734 -2.2016
   39MOL    H4921405   3.409   3.582   6.390 -0.6200  2.5004  1.4729
   39MOL    H5021406   3.176   3.500   6.206  0.7251  2.1253  0.8387
   39MOL    H5121407   3.344   3.479   6.147 -0.7797 -1.8651 -0.4880
   39MOL    H5221408   3.248   3.358   6.401  0.1450 -0.4701 -0.7095
   39MOL    H5321409   3.219   3.275   6.251  1.4227 -0.9279 -0.7004
   39MOL    H5421410   3.652   3.316   6.400 -1.6547 -2.5106  1.2408
   39MOL    H5521411   3.899   3.295   6.389  1.0360  0.5791 -2.5466
   39MOL    H5621412   3.861   3.051   6.037 -0.5461  0.6060 -1.1927
   39MOL    H5721413   3.623   3.054   6.065 -0.1652 -0.7272  0.8419
   39MOL    O5821414   4.089   3.089   6.100  0.0140 -0.2664 -0.5071
   39MOL    C5921415   4.222   3.043   6.100  0.8352 -0.4616  0.6281
   39MOL    C6021416   4.289   3.027   5.962  0.3582  0.4993 -0.2328
   39MOL    C6121417   4.208   2.945   5.864  0.4309  0.5308  0.0720
   39MOL    C6221418   4.167   2.801   5.899 -0.0109  0.4648  0.3916
   39MOL    O6321419   4.291   2.719   5.893 -0.2787  0.0937  0.1935
   39MOL    C6421420   4.323   2.656   5.781 -0.9321 -0.1772  0.7907
   39MOL    O6521421   4.249   2.665   5.677  0.7834 -0.2058 -0.3243
   39MOL    C6621422   4.449   2.573   5.785  0.6225 -0.0595  0.5522
   39MOL    C6721423   4.497   2.517   5.668 -0.0483  0.4090  0.2089
   39MOL    C6821424   4.628   2.464   5.657 -0.3902  0.0771 -0.1201
   39MOL    C6921425   4.706   2.455   5.774  0.7511 -0.2136 -0.2089
   39MOL    C7021426   4.841   2.393   5.775 -0.0436 -0.2615 -0.3734
   39MOL    O7121427   4.927   2.405   5.865  0.3600  0.2680  0.1772
   39MOL    C7221428   4.661   2.509   5.890  0.3166 -0.1356  0.5188
   39MOL    C7321429   4.534   2.569   5.898  0.8619 -0.3972 -0.6480
   39MOL    H7421430   4.279   3.112   6.162  0.9027  0.1618 -0.1066
   39MOL    H7521431   4.216   2.944   6.145 -1.5369 -1.2122 -1.2222
   39MOL    H7621432   4.389   2.985   5.953 -0.3715 -1.4438  0.5089
   39MOL    H7721433   4.300   3.128   5.923 -0.1033  0.6659  0.0660
   39MOL    H7821434   4.114   2.999   5.855 -0.4122 -1.2205 -2.0889
   39MOL    H7921435   4.252   2.943   5.764 -0.2768 -1.5342 -0.2185
   39MOL    H8021436   4.116   2.799   5.995 -0.8007 -2.3197 -0.0386
   39MOL    H8121437   4.090   2.759   5.834  0.1022 -0.9673  1.1630
   39MOL    H8221438   4.441   2.509   5.577  0.5783 -0.5187 -0.0972
   39MOL    H8321439   4.658   2.431   5.559  1.1413  1.0573  0.0044
   39MOL    H8421440   4.722   2.498   5.979 -0.5543  0.3840  1.1920
   39MOL    H8521441   4.512   2.622   5.989  0.1541  0.0627 -1.0836
   39MOL    O8621442   4.874   2.338   5.656  0.0397  0.2049 -0.5663
   39MOL    C8721443   5.007   2.290   5.634  0.1273 -0.0860  0.3141
   39MOL    C8821444   5.056   2.375   5.513  0.2316 -0.1740  0.4799
   39MOL    C8921445   5.203   2.401   5.516  0.1352  0.7137  0.1884
   39MOL    C9021446   5.287   2.277   5.471 -1.0103  0.2956 -0.8706
   39MOL    O9121447   5.267   2.162   5.557  0.0146  0.2029 -0.3515
   39MOL    C9221448   5.348   2.056   5.534 -0.0434 -0.0328 -0.0392
   39MOL    O9321449   5.436   2.056   5.446  0.8321  0.4491  0.1004
   39MOL    C9421450   5.323   1.943   5.633  0.6134  0.5015 -0.3281
   39MOL    C9521451   5.430   1.853   5.652  0.2615 -0.0351 -0.3746
   39MOL    C9621452   5.410   1.740   5.741  0.0314 -0.4520  0.4967
   39MOL    C9721453   5.291   1.718   5.813 -0.6232  0.5203 -0.6054
   39MOL    C9821454   5.262   1.595   5.903  0.5082 -0.4868  0.5277
   39MOL    O9921455   5.155   1.576   5.969 -0.1100 -0.0310  0.4959
   39MOL   C10021456   5.188   1.813   5.790  0.0942 -0.0300 -0.4627
   39MOL   C10121457   5.200   1.917   5.696 -0.3323  0.1408 -0.2789
   39MOL   H10221458   5.073   2.285   5.721  0.3458  1.3940  0.2367
   39MOL   H10321459   5.007   2.187   5.597  0.0849 -0.3769  1.1081
   39MOL   H10421460   5.000   2.469   5.510  0.0460 -0.2774  0.6524
   39MOL   H10521461   5.036   2.318   5.423 -0.5676 -0.8509  1.0718
   39MOL   H10621462   5.224   2.491   5.459 -1.2279  0.6237 -0.4546
   39MOL   H10721463   5.239   2.432   5.614 -2.2572  1.8727  0.7225
   39MOL   H10821464   5.257   2.246   5.371  0.0434  0.5883 -1.2784
   39MOL   H10921465   5.390   2.310   5.477 -1.2829  1.2155 -1.1942
   39MOL   H11021466   5.518   1.857   5.590  0.1322 -0.9021 -0.6200
   39MOL   H11121467   5.490   1.669   5.757  0.3918  0.2928  2.0863
   39MOL   H11221468   5.094   1.801   5.843  1.1903  0.3114  1.6344
   39MOL   H11321469   5.114   1.979   5.672 -1.2907 -1.3847 -0.8604
   39MOL   O11421470   5.354   1.506   5.902  0.0489 -0.5736  0.0461
   39MOL   C11521471   5.343   1.382   5.981 -1.1580  0.1199 -0.2745
   39MOL   C11621472   5.453   1.279   5.944 -0.1447 -0.1066 -0.0963
   39MOL   C11721473   5.434   1.237   5.795 -0.0933  0.3303  0.2004
   39MOL   C11821474   5.521   1.119   5.758 -0.8628 -0.0291  0.0673
   39MOL   O11921475   5.661   1.155   5.743 -0.5470 -0.1454 -0.1570
   39MOL   C12021476   5.748   1.075   5.681 -0.3275  0.3629  0.2033
   39MOL   O12121477   5.712   0.961   5.640 -0.3042 -0.0838  0.1920
   39MOL   C12221478   5.884   1.137   5.656 -0.2917  0.3743  0.5016
   39MOL   C12321479   5.964   1.102   5.547 -0.0409  0.5363 -0.5470
   39MOL   C12421480   6.084   1.169   5.519  0.2560  0.0177 -0.5098
   39MOL   C12521481   6.136   1.272   5.599 -0.3452  0.0519  0.5353
   39MOL   C12621482   6.267   1.333   5.573 -0.0593  0.4103  0.2175
   39MOL   O12721483   6.297   1.429   5.645  0.2644 -0.5274 -0.3860
   39MOL   C12821484   6.066   1.296   5.718 -0.8888 -0.7483  0.1551
   39MOL   C12921485   5.946   1.228   5.751  0.6970  0.7577  1.1121
   39MOL   H13021486   5.343   1.415   6.085 -0.5012 -1.0374  0.0968
   39MOL   H13121487   5.248   1.333   5.965 -1.0689 -0.3481  0.6570
   39MOL   H13221488   5.443   1.200   6.018  1.6450  0.7872  1.1331
   39MOL   H13321489   5.548   1.332   5.953  0.6346 -1.4621 -0.2631
   39MOL   H13421490   5.337   1.187   5.798  0.2034 -0.2860 -0.4580
   39MOL   H13521491   5.440   1.315   5.719  1.4356  0.6801  0.6589
   39MOL   H13621492   5.516   1.042   5.836 -0.4034 -2.3659 -2.1730
   39MOL   H13721493   5.477   1.064   5.675  0.7427  0.0738 -0.8667
   39MOL   H13821494   5.924   1.031   5.476 -2.6377  1.5297 -0.0960
   39MOL   H13921495   6.140   1.128   5.436 -0.6844  0.8749 -1.5770
   39MOL   H14021496   6.115   1.348   5.799  0.5104  0.9225 -1.7157
   39MOL   H14121497   5.895   1.248   5.844 -0.0374  2.1412  0.4180
   39MOL   O14221498   6.338   1.277   5.471 -0.7267 -0.1505  0.1088
   39MOL   C14321499   6.476   1.310   5.449  0.2551  0.0351 -0.3002
   39MOL   C14421500   6.519   1.258   5.306 -0.7340  0.1649  0.3819
   39MOL   C14521501   6.520   1.103   5.298  0.4067  0.4806  0.4956
   39MOL   C14621502   6.467   1.048   5.171  0.1939  0.0182 -0.1047
   39MOL   O14721503   6.334   1.096   5.160  0.6258  1.1108 -0.2290
   39MOL   C14821504   6.230   1.015   5.177  0.0794 -0.5569 -1.1381
   39MOL   O14921505   6.240   0.891   5.191  0.0934  0.1363  0.2823
   39MOL   C15021506   6.100   1.085   5.181  0.4994 -0.3278  0.1297
   39MOL   C15121507   6.098   1.227   5.183 -0.0228 -0.4974  0.1546
   39MOL   C15221508   5.978   1.293   5.206 -0.3197 -0.6740 -0.3308
   39MOL   C15321509   5.866   1.219   5.243  0.8810  0.8503  0.4513
   39MOL   C15421510   5.736   1.287   5.262  0.7319  0.0322  0.4450
   39MOL   O15521511   5.629   1.225   5.252  0.0351  0.3373 -0.1668
   39MOL   C15621512   5.866   1.076   5.248  0.7405  0.2632 -0.6704
   39MOL   C15721513   5.984   1.011   5.207 -0.2038  0.0978  0.1513
   39MOL   H15821514   6.496   1.415   5.470 -0.7027 -0.0381  1.0550
   39MOL   H15921515   6.542   1.259   5.519  0.2742  0.1372 -0.2428
   39MOL   H16021516   6.624   1.285   5.295 -1.0200  0.8791 -0.5606
   39MOL   H16121517   6.452   1.301   5.232  1.5111  1.4472 -0.9731
   39MOL   H16221518   6.611   1.053   5.331  0.8467  0.8039 -0.2051
   39MOL   H16321519   6.443   1.065   5.365  1.2991 -0.5450  0.9474
   39MOL   H16421520   6.519   1.086   5.083  0.5402  1.4742  0.7152
   39MOL   H16521521   6.463   0.939   5.167 -1.0688 -0.0024  1.3550
   39MOL   H16621522   6.185   1.285   5.159  1.4120 -2.7425 -0.2105
   39MOL   H16721523   5.966   1.399   5.217  0.7298 -0.5324 -0.5246
   39MOL   H16821524   5.775   1.025   5.275  1.2882  0.2872  1.2923
   39MOL   H16921525   5.977   0.903   5.214 -1.5790  0.2359  1.0926
   39MOL   O17021526   5.747   1.413   5.301  0.7266 -0.4222  0.0910
   39MOL   C17121527   5.637   1.477   5.353  0.8682 -0.3776 -0.3034
   39MOL   C17221528   5.638   1.460   5.504  0.2661  0.5809 -0.5004
   39MOL   C17321529   5.757   1.532   5.567 -0.0227  0.3301 -0.0684
   39MOL   C17421530   5.766   1.536   5.719 -0.0384 -0.3869  0.3729
   39MOL   O17521531   5.839   1.655   5.753 -0.8303  0.1317 -0.3131
   39MOL   C17621532   5.943   1.651   5.844  0.6878 -0.2588  0.5530
   39MOL   O17721533   5.966   1.553   5.917 -0.1509 -0.6502 -0.6188
   39MOL   C17821534   6.023   1.776   5.848 -0.7545 -0.6721  0.4833
   39MOL   C17921535   6.007   1.885   5.756  0.2663  0.8757 -0.1931
   39MOL   C18021536   6.080   2.000   5.759  0.1171  0.4049  0.3499
   39MOL   C18121537   6.186   2.013   5.856  0.0860 -0.4487 -0.3419
   39MOL   C18221538   6.264   2.135   5.867  0.3177  0.1896 -0.4985
   39MOL   O18321539   6.360   2.144   5.938 -0.2283 -0.3671 -0.2997
   39MOL   C18421540   6.211   1.900   5.941 -0.2665 -0.0596  0.4436
   39MOL   C18521541   6.129   1.785   5.942 -0.0001 -0.1911 -0.0908
   39MOL   H18621542   5.642   1.582   5.325 -0.6894 -0.4143 -0.7606
   39MOL   H18721543   5.551   1.429   5.306  1.4465  0.1108 -1.8959
   39MOL   H18821544   5.644   1.358   5.544 -0.3637  0.7034 -0.0827
   39MOL   H18921545   5.547   1.505   5.544 -0.4183 -1.7465  0.6869
   39MOL   H19021546   5.848   1.478   5.539  1.1335  0.3601  3.3855
   39MOL   H19121547   5.769   1.633   5.528 -1.9915  2.2597  4.0188
   39MOL   H19221548   5.666   1.539   5.764 -0.1704  1.0472  0.0042
   39MOL   H19321549   5.817   1.442   5.741 -1.6424 -1.2714  0.4054
   39MOL   H19421550   5.937   1.876   5.674 -0.2615  2.8956  0.0253
   39MOL   H19521551   6.040   2.081   5.700 -0.6200  1.2962  2.0337
   39MOL   H19621552   6.292   1.917   6.010  0.4704  0.0641 -0.4364
   39MOL   H19721553   6.159   1.704   6.007 -0.1135  0.8267  1.2501
   39MOL   O19821554   6.217   2.232   5.794  0.2982 -0.3792  0.6722
   39MOL   C19921555   6.305   2.340   5.767 -0.6629 -0.0011  0.3212
   39MOL   C20021556   6.235   2.452   5.691  0.1747 -0.3412  0.1537
   39MOL   C20121557   6.150   2.530   5.794  0.5041 -0.5299 -0.2007
   39MOL   C20221558   6.066   2.646   5.732  0.4213  1.4015 -0.4990
   39MOL   O20321559   5.986   2.610   5.629  0.4663 -0.8821 -0.8361
   39MOL   C20421560   5.881   2.691   5.597  0.6900  0.3735  0.0536
   39MOL   O20521561   5.858   2.800   5.653 -0.1064 -0.5978  0.0729
   39MOL   C20621562   5.797   2.617   5.495  0.4294 -0.3766  0.1238
   39MOL   C20721563   5.832   2.492   5.437 -0.0341  0.1020 -0.4039
   39MOL   C20821564   5.751   2.418   5.345  0.2477  0.2222  0.2757
   39MOL   C20921565   5.622   2.469   5.312 -0.7559 -0.0435 -0.1953
   39MOL   C21021566   5.536   2.392   5.219  0.6138 -0.7995 -0.2166
   39MOL   O21121567   5.561   2.291   5.161 -0.0795  0.1899 -0.1170
   39MOL   C21221568   5.587   2.590   5.372 -0.3845 -0.7746  0.4182
   39MOL   C21321569   5.672   2.664   5.456 -0.1207 -0.2455 -0.6479
   39MOL   H21421570   6.355   2.382   5.854  0.8781 -1.0531 -0.0367
   39MOL   H21521571   6.378   2.301   5.696  0.1154 -0.9007  1.6187
   39MOL   H21621572   6.183   2.407   5.606 -0.6143 -0.5919  0.7584
   39MOL   H21721573   6.303   2.523   5.645 -0.7975  1.3409  1.2424
   39MOL   H21821574   6.076   2.458   5.827 -1.2178  1.2920  0.0067
   39MOL   H21921575   6.212   2.562   5.878  1.3537 -1.3108 -0.5274
   39MOL   H22021576   6.014   2.699   5.812  1.4562  0.9369  0.4926
   39MOL   H22121577   6.132   2.713   5.678  2.4062  1.6208  2.0984
   39MOL   H22221578   5.926   2.448   5.468  1.0016  1.9244 -0.8927
   39MOL   H22321579   5.791   2.323   5.312  2.5801  0.9530  0.8864
   39MOL   H22421580   5.489   2.632   5.361  0.2300  0.3571 -0.8235
   39MOL   H22521581   5.635   2.756   5.499  0.0055 -0.0421 -0.9708
   39MOL   O22621582   5.414   2.461   5.205 -0.3914  0.5851 -0.2049
   39MOL   C22721583   5.305   2.426   5.116 -0.2288  0.6475 -0.0158
   39MOL   C22821584   5.201   2.538   5.096 -0.0401  0.1992 -0.1096
   39MOL   C22921585   5.072   2.497   5.021 -0.2332 -0.0106 -0.5971
   39MOL   C23021586   4.969   2.442   5.114 -0.5844  0.0102 -0.3380
   39MOL   O23121587   4.853   2.368   5.066  0.0683  0.4199  0.3329
   39MOL   C23221588   4.756   2.332   5.163  0.7317  0.2146 -0.6166
   39MOL   O23321589   4.765   2.359   5.283  0.4065  0.4689 -0.1096
   39MOL   C23421590   4.642   2.248   5.102  0.1929 -0.6612 -0.3031
   39MOL   C23521591   4.639   2.219   4.959 -0.1012 -0.6886  0.1629
   39MOL   C23621592   4.533   2.147   4.914  0.2135 -0.0813  0.3445
   39MOL   C23721593   4.425   2.100   4.994 -0.8080 -0.2420  0.3104
   39MOL   C23821594   4.314   2.025   4.926 -0.2300 -0.2390  0.2428
   39MOL   O23921595   4.321   1.989   4.806 -0.3056  0.7344 -0.2974
   39MOL   C24021596   4.430   2.126   5.136 -0.6914 -0.2299  0.4548
   39MOL   C24121597   4.543   2.195   5.190 -0.0747  0.1117  0.0054
   39MOL   H24221598   5.339   2.395   5.017  1.7025  0.1849  0.7691
   39MOL   H24321599   5.259   2.343   5.170 -0.2439 -0.6643 -2.0170
   39MOL   H24421600   5.246   2.620   5.040 -0.0929  1.1420  1.2221
   39MOL   H24521601   5.184   2.585   5.192  0.5954  0.8214 -0.2906
   39MOL   H24621602   5.027   2.585   4.977 -0.2550  1.6430  2.6048
   39MOL   H24721603   5.105   2.429   4.942 -1.9176 -1.4423 -0.0974
   39MOL   H24821604   5.015   2.387   5.196 -0.9223  0.9036  0.4695
   39MOL   H24921605   4.928   2.527   5.170  0.1977  1.4311 -1.8708
   39MOL   H25021606   4.720   2.253   4.896 -0.6976 -1.8291 -1.2536
   39MOL   H25121607   4.537   2.128   4.808  2.4312  1.2972  0.1591
   39MOL   H25221608   4.342   2.104   5.196  0.0576 -1.7114  1.0227
   39MOL   H25321609   4.541   2.218   5.296 -0.5020  1.4679 -0.2849
   39MOL   O25421610   4.202   2.032   4.993  0.4221 -0.0277  0.0993
   39MOL   C25521611   4.083   1.962   4.953  0.3784 -0.1052 -0.4453
   39MOL   C25621612   4.071   1.830   5.036  0.0494  0.0575  0.1198
   39MOL   C25721613   3.980   1.723   4.995 -0.0472  0.3491 -0.0179
   39MOL   C25821614   3.947   1.617   5.109 -0.7394  0.1993  0.2461
   39MOL   O25921615   3.855   1.521   5.072  0.0868  0.0384  0.5086
   39MOL   C26021616   3.827   1.414   5.152 -0.3477 -0.7923  0.4662
   39MOL   O26121617   3.871   1.397   5.267 -0.2712  0.1082 -0.2245
   39MOL   C26221618   3.727   1.323   5.079 -0.9267  0.7035  0.3710
   39MOL   C26321619   3.722   1.325   4.935 -0.0498  0.0043  0.2208
   39MOL   C26421620   3.629   1.241   4.868  0.5360 -0.0498 -0.5545
   39MOL   C26521621   3.535   1.154   4.936 -0.3904  0.0050 -0.1763
   39MOL   C26621622   3.427   1.067   4.873  0.0940 -0.1703 -0.0150
   39MOL   O26721623   3.335   1.019   4.934  0.1007  0.1943 -0.6255
   39MOL   C26821624   3.545   1.156   5.080  0.1420 -0.1697 -0.2399
   39MOL   C26921625   3.639   1.238   5.149  0.0464  0.0357 -0.3990
   39MOL   H27021626   3.992   2.021   4.964 -0.9354 -1.2688 -4.0618
   39MOL   H27121627   4.083   1.948   4.845 -0.9345 -0.5902 -0.3897
   39MOL   H27221628   4.050   1.869   5.136  2.1842 -1.1539  1.0612
   39MOL   H27321629   4.172   1.791   5.040 -0.5529 -1.4375  1.0754
   39MOL   H27421630   3.887   1.772   4.967 -0.3972 -0.0780  0.3943
   39MOL   H27521631   4.024   1.675   4.907 -0.1525 -1.3002  0.8088
   39MOL   H27621632   4.038   1.564   5.137  0.1755  1.4997 -0.1901
   39MOL   H27721633   3.912   1.679   5.191 -0.5624  0.6567 -0.0202
   39MOL   H27821634   3.789   1.383   4.874  1.3070 -1.0294  0.7143
   39MOL   H27921635   3.641   1.240   4.760  0.0796 -1.2989 -0.6125
   39MOL   H28021636   3.478   1.095   5.139 -1.1220 -1.2789 -2.7370
   39MOL   H28121637   3.643   1.243   5.257 -2.1839  1.6521 -0.3510
   39MOL   O28221638   3.444   1.059   4.734 -0.3361  0.0577 -0.2537
   39MOL   C28321639   3.346   1.008   4.649  0.4057  0.2787  0.3437
   39MOL   C28421640   3.385   1.036   4.501  0.1721 -0.0627 -0.1288
   39MOL   C28521641   3.441   1.176   4.479 -0.0184 -0.1836 -0.5397
   39MOL   C28621642   3.453   1.207   4.335 -0.0387  0.2157 -0.4440
   39MOL   O28721643   3.324   1.212   4.274  0.3896 -0.0528 -0.2763
   39MOL   C28821644   3.250   1.326   4.268  0.0461  0.3270 -0.2328
   39MOL   O28921645   3.289   1.434   4.306 -0.2143 -0.3816 -0.0203
   39MOL   C29021646   3.121   1.311   4.204  0.1966  0.5905  0.8841
   39MOL   C29121647   3.025   1.409   4.229  0.4027  0.0836 -0.4668
   39MOL   C29221648   2.898   1.405   4.165 -0.6205 -0.0249 -0.1536
   39MOL   C29321649   2.871   1.305   4.075 -0.8698 -0.1375 -0.2160
   39MOL   C29421650   2.753   1.318   3.986 -0.1726  0.6856  0.5738
   39MOL   O29521651   2.753   1.282   3.868  0.7050  0.0734 -0.1153
   39MOL   C29621652   2.972   1.211   4.038  0.1428  0.0554  0.5095
   39MOL   C29721653   3.095   1.216   4.105  0.2078 -0.0663 -0.3345
   39MOL   H29821654   3.299   0.911   4.666 -1.1922  0.5276 -2.3226
   39MOL   H29921655   3.264   1.078   4.669  0.3014  1.0638 -2.6257
   39MOL   H30021656   3.301   1.012   4.437  0.7980 -2.6325 -0.0385
   39MOL   H30121657   3.461   0.969   4.461 -1.3048 -0.0050 -3.1573
   39MOL   H30221658   3.375   1.243   4.534 -0.6240 -0.7428 -0.5946
   39MOL   H30321659   3.537   1.182   4.531  0.1843 -2.2375 -0.6349
   39MOL   H30421660   3.504   1.300   4.310 -1.9678  1.1057 -1.2167
   39MOL   H30521661   3.500   1.122   4.287  0.8575 -1.0592  2.5787
   39MOL   H30621662   3.044   1.491   4.296 -0.8589  0.0892 -0.1129
   39MOL   H30721663   2.831   1.487   4.183 -0.1485  0.1464  0.8769
   39MOL   H30821664   2.966   1.137   3.960 -0.5774  2.4748 -1.8174
   39MOL   H30921665   3.162   1.137   4.072 -2.0923 -0.9307 -3.1228
   39MOL   O31021666   2.651   1.366   4.046  0.2425 -0.3784  0.0918
   39MOL   C31121667   2.522   1.373   3.986 -0.2773 -0.5275  0.3647
   39MOL   C31221668   2.410   1.319   4.072 -0.0636 -0.4153  0.0260
   39MOL   C31321669   2.374   1.170   4.045 -0.8275 -0.0578  0.4342
   39MOL   C31421670   2.331   1.110   4.183 -0.3084 -0.4440  0.6387
   39MOL   O31521671   2.444   1.096   4.261  0.4733  0.1361  0.3927
   39MOL   C31621672   2.430   1.041   4.380  0.0942 -0.3492  0.4235
   39MOL   O31721673   2.322   1.014   4.433  0.1631  0.3518  0.3797
   39MOL   C31821674   2.555   1.027   4.456  0.1827  0.2188  0.4185
   39MOL   C31921675   2.558   1.008   4.597 -0.1649 -0.2952 -0.3219
   39MOL   C32021676   2.677   1.000   4.669 -0.3848 -0.0223  0.4145
   39MOL   C32121677   2.803   1.008   4.600  0.5420 -0.0727 -0.1562
   39MOL   C32221678   2.937   1.001   4.666  0.4615 -0.3617  0.5014
   39MOL   O32321679   3.042   0.981   4.611 -0.1581 -0.0958  0.1986
   39MOL   C32421680   2.801   1.017   4.459  0.4567 -0.1518  0.0870
   39MOL   C32521681   2.679   1.026   4.388 -0.5239  0.4792 -0.5451
   39MOL   H32621682   2.504   1.477   3.958  1.3833  0.1302  1.6523
   39MOL   H32721683   2.525   1.327   3.887  1.7659  1.9048 -0.7547
   39MOL   H32821684   2.315   1.366   4.047 -1.5002 -2.8714  0.7345
   39MOL   H32921685   2.447   1.338   4.172  2.7521 -2.1845 -0.6035
   39MOL   H33021686   2.295   1.156   3.970  0.2471 -2.2167 -0.3345
   39MOL   H33121687   2.450   1.112   3.993 -1.1729 -0.0904 -0.0389
   39MOL   H33221688   2.257   1.176   4.227  1.9961  3.6052 -1.3034
   39MOL   H33321689   2.274   1.017   4.170  1.0981 -1.0009 -1.9137
   39MOL   H33421690   2.465   0.997   4.650  0.8209  0.6703  1.6544
   39MOL   H33521691   2.670   0.978   4.774 -1.7168 -1.7453  0.0026
   39MOL   H33621692   2.894   1.002   4.407  0.8698 -0.6444  0.9567
   39MOL   H33721693   2.686   1.029   4.281  1.1145 -3.3627 -0.6293
   39MOL   O33821694   2.923   1.017   4.795 -0.3839 -0.1615  0.0439
   39MOL   C33921695   3.032   1.017   4.884  0.2723 -0.7341 -0.3418
   39MOL   C34021696   2.992   1.035   5.031 -0.3908 -0.5312  0.4119
   39MOL   C34121697   3.067   0.958   5.137  0.2138 -0.1323 -0.3604
   39MOL   C34221698   3.059   0.808   5.107 -0.6263 -0.5294  0.1386
   39MOL   O34321699   2.926   0.760   5.081 -0.2962 -0.2960 -1.0409
   39MOL   C34421700   2.843   0.726   5.177  0.1925  0.6198 -1.1227
   39MOL   O34521701   2.875   0.709   5.295 -0.3332  0.2594 -0.5364
   39MOL   C34621702   2.697   0.705   5.130 -0.4432 -0.1203 -0.3518
   39MOL   C34721703   2.606   0.676   5.234 -0.3525 -0.0116 -0.5682
   39MOL   C34821704   2.479   0.636   5.207  0.3721 -0.1672 -0.1028
   39MOL   C34921705   2.438   0.628   5.073  0.9677  0.1162 -0.3044
   39MOL   C35021706   2.297   0.591   5.036 -0.2687  0.5274 -0.1013
   39MOL   O35121707   2.280   0.530   4.928  0.1428 -0.0522  0.0706
   39MOL   C35221708   2.526   0.667   4.969  0.0123  0.3742  0.6570
   39MOL   C35321709   2.656   0.699   4.997 -0.0963 -0.5446 -0.2111
   39MOL   H35421710   3.079   0.918   4.878 -0.0121 -0.7986 -1.8442
   39MOL   H35521711   3.110   1.088   4.857 -0.5541  0.8489  1.3754
   39MOL   H35621712   2.889   1.001   5.042 -1.3684  1.8483 -1.0412
   39MOL   H35721713   2.993   1.138   5.064  1.5795 -0.8021  1.2477
   39MOL   H35821714   3.174   0.979   5.127  0.0289  0.5514 -0.9205
   39MOL   H35921715   3.039   0.970   5.242 -0.2242  0.4400 -0.5433
   39MOL   H36021716   3.127   0.783   5.026  0.8410  1.8584  0.5807
   39MOL   H36121717   3.105   0.765   5.196  0.2863  3.2353  1.5912
   39MOL   H36221718   2.637   0.684   5.337 -1.8822 -0.9933 -0.0205
   39MOL   H36321719   2.413   0.605   5.287 -0.4250 -0.4787 -0.8669
   39MOL   H36421720   2.498   0.652   4.866 -2.9460  1.8848  1.1819
   39MOL   H36521721   2.728   0.728   4.921  0.9615 -0.1784  0.9171
   39MOL   O36621722   2.209   0.632   5.129 -0.2740  0.0752 -0.3375
   39MOL   C36721723   2.066   0.629   5.105  0.3590  0.6777  0.0983
   39MOL   C36821724   1.993   0.761   5.145  0.0962 -0.2289  0.8487
   39MOL   C36921725   2.034   0.892   5.066 -0.5799 -0.1187  0.2516
   39MOL   C37021726   1.956   1.022   5.106 -0.1439  0.2001 -0.6680
   39MOL   O37121727   1.997   1.047   5.239 -0.0165  0.1329  0.1088
   39MOL   C37221728   2.075   1.152   5.270  0.3535  0.2781 -0.3102
   39MOL   O37321729   2.105   1.229   5.185 -0.5099  0.2508 -0.2796
   39MOL   C37421730   2.120   1.157   5.419 -0.3782  0.2283  0.6381
   39MOL   C37521731   2.181   1.274   5.472 -0.7486  0.6409 -0.4097
   39MOL   C37621732   2.230   1.280   5.601 -1.0018  0.3700  0.6715
   39MOL   C37721733   2.225   1.165   5.676  0.2035  0.1076 -1.1371
   39MOL   C37821734   2.276   1.162   5.817 -0.4090  0.2496  0.3000
   39MOL   O37921735   2.248   1.070   5.889 -0.0050 -0.4100  0.0448
   39MOL   C38021736   2.157   1.053   5.633  0.4075  0.4273  0.5887
   39MOL   C38121737   2.104   1.045   5.497 -0.9968 -0.1011 -0.3531
   39MOL   H38221738   2.051   0.609   4.999 -1.0100 -0.7077  0.5480
   39MOL   H38321739   2.039   0.544   5.167  0.5392  1.4027  1.1879
   39MOL   H38421740   2.007   0.786   5.250  3.0520 -1.7754  0.8720
   39MOL   H38521741   1.885   0.750   5.137  0.2937 -0.5328 -1.9769
   39MOL   H38621742   2.142   0.910   5.069 -0.5333  0.0788 -1.9524
   39MOL   H38721743   2.027   0.869   4.960  1.4818  2.7977 -0.5669
   39MOL   H38821744   1.979   1.103   5.036  0.4894  1.4077  0.9198
   39MOL   H38921745   1.848   1.008   5.101 -0.0379 -0.6995 -0.5113
   39MOL   H39021746   2.191   1.364   5.413  0.1086  0.7611 -0.0876
   39MOL   H39121747   2.295   1.358   5.637 -0.4616  0.1318  0.2208
   39MOL   H39221748   2.146   0.965   5.694 -0.4625 -0.3047 -0.5908
   39MOL   H39321749   2.053   0.956   5.461  1.2644 -2.0263  1.0291
   39MOL   O39421750   2.321   1.273   5.861 -0.1270  0.2237  0.2277
   39MOL   C39521751   2.395   1.280   5.986  0.1270 -0.2117 -0.2915
   39MOL   C39621752   2.494   1.394   5.993 -0.1170  0.2823 -0.5593
   39MOL   C39721753   2.442   1.521   6.051  0.6166  0.2326 -0.7460
   39MOL   C39821754   2.317   1.578   5.987 -0.2512  0.2371  0.1623
   39MOL   O39921755   2.343   1.600   5.848  0.1103  0.2670 -0.5902
   39MOL   C40021756   2.341   1.722   5.792 -0.5988 -0.7372 -0.7190
   39MOL   O40121757   2.313   1.830   5.852  0.2529 -0.0251  0.5311
   39MOL   C40221758   2.370   1.710   5.647 -0.0167  0.0435 -0.3999
   39MOL   C40321759   2.323   1.818   5.564 -0.5359  0.6387  0.5164
   39MOL   C40421760   2.337   1.813   5.421  0.5376 -1.0708 -0.1109
   39MOL   C40521761   2.400   1.703   5.360  0.9812 -0.2674 -0.7707
   39MOL   C40621762   2.425   1.694   5.216  0.2919 -0.8724 -0.5000
   39MOL   O40721763   2.504   1.614   5.169 -0.3836  0.8579  0.1710
   39MOL   C40821764   2.448   1.597   5.445  0.0632  0.4955 -0.2064
   39MOL   C40921765   2.432   1.601   5.583 -0.4673  0.1348  0.5040
   39MOL   H41021766   2.320   1.278   6.066  0.2045 -1.3660 -0.2336
   39MOL   H41121767   2.453   1.191   6.009  0.5136 -0.1945 -1.1786
   39MOL   H41221768   2.534   1.429   5.898  1.7729  0.5045  0.3057
   39MOL   H41321769   2.578   1.367   6.057 -0.5611 -1.8791 -0.8723
   39MOL   H41421770   2.425   1.501   6.157  0.8019  0.1087 -0.7399
   39MOL   H41521771   2.518   1.598   6.039 -0.1066  0.7945 -1.8279
   39MOL   H41621772   2.232   1.511   5.999  0.1494 -0.2383  0.3580
   39MOL   H41721773   2.289   1.665   6.044  3.6403  1.2258  0.7257
   39MOL   H41821774   2.279   1.901   5.617 -0.5223  0.0386  1.4767
   39MOL   H41921775   2.298   1.894   5.362 -0.9677 -1.4184  0.3789
   39MOL   H42021776   2.498   1.510   5.406  0.9033  0.6016  0.6186
   39MOL   H42121777   2.476   1.524   5.644 -2.0779 -0.6527  0.6986
   39MOL   O42221778   2.345   1.773   5.149  0.2103  0.3691 -0.3821
   39MOL   C42321779   2.353   1.769   5.001 -0.4101 -0.1196 -0.2306
   39MOL   C42421780   2.333   1.911   4.931 -0.1412  0.3831 -0.1953
   39MOL   C42521781   2.462   1.990   4.939 -0.7988  0.5430  0.0935
   39MOL   C42621782   2.439   2.129   4.884  0.5419 -0.3255 -0.2615
   39MOL   O42721783   2.356   2.196   4.967  0.5047 -0.2607 -0.3376
   39MOL   C42821784   2.245   2.255   4.926  1.0359 -0.2912 -0.4992
   39MOL   O42921785   2.204   2.262   4.812 -0.4802 -0.5199  0.5940
   39MOL   C43021786   2.178   2.331   5.035 -0.2440  0.0698  0.0413
   39MOL   C43121787   2.059   2.397   5.017  0.1363 -0.4003  0.0968
   39MOL   C43221788   1.992   2.461   5.128  0.1273  0.9511  0.4035
   39MOL   C43321789   2.057   2.474   5.251 -0.5413 -1.1985 -0.2507
   39MOL   C43421790   1.988   2.550   5.349 -0.9986 -0.1508  0.2030
   39MOL   O43521791   1.887   2.622   5.324 -0.1515 -0.2526  0.1295
   39MOL   C43621792   2.180   2.400   5.271  0.2646  0.6749 -0.1358
   39MOL   C43721793   2.242   2.333   5.164  0.0144  0.5279  0.5281
   39MOL   H43821794   2.452   1.736   4.968 -1.0283 -0.3353 -1.9161
   39MOL   H43921795   2.274   1.700   4.971 -0.3497 -0.2589 -0.0653
   39MOL   H44021796   2.247   1.963   4.972 -2.1886 -0.9512 -2.6791
   39MOL   H44121797   2.300   1.904   4.827  0.6249 -0.3211 -0.4018
   39MOL   H44221798   2.499   1.991   5.041  1.7328 -1.3972 -0.7401
   39MOL   H44321799   2.537   1.942   4.875 -1.0921  1.8555 -1.2793
   39MOL   H44421800   2.534   2.182   4.888  1.0008 -1.0706 -1.3383
   39MOL   H44521801   2.403   2.124   4.782 -1.0552 -2.3198  0.3577
   39MOL   H44621802   2.019   2.391   4.917  1.3505 -1.0684 -0.3589
   39MOL   H44721803   1.895   2.499   5.099  0.1037  0.3330 -0.3628
   39MOL   H44821804   2.221   2.404   5.371 -0.6910  0.7406  0.2606
   39MOL   H44921805   2.336   2.281   5.176  0.8807  1.8630 -0.3503
   39MOL   O45021806   2.042   2.528   5.465 -0.1244 -0.1175 -0.1806
   39MOL   C45121807   1.972   2.538   5.594 -0.9404  0.5006 -0.1031
   39MOL   C45221808   2.072   2.521   5.703  0.7021  0.4668 -0.4586
   39MOL   C45321809   2.189   2.622   5.717 -0.7154  0.4950  0.0930
   39MOL   C45421810   2.309   2.567   5.641  0.1273 -0.7431 -0.5525
   39MOL   O45521811   2.413   2.632   5.697 -0.2774 -0.0938  0.1131
   39MOL   C45621812   2.533   2.635   5.640 -0.9111  0.2976  0.1640
   39MOL   O45721813   2.553   2.593   5.527  0.9126 -0.7204  0.4450
   39MOL   C45821814   2.644   2.695   5.727  0.2204  0.2961 -0.0276
   39MOL   C45921815   2.624   2.702   5.871 -1.0249 -0.1420  0.5429
   39MOL   C46021816   2.734   2.724   5.953 -1.2053  0.3767  0.3779
   39MOL   C46121817   2.863   2.751   5.900 -0.3804 -0.3497  0.2544
   39MOL   C46221818   2.976   2.784   5.989  0.0123 -0.2025  0.6980
   39MOL   O46321819   3.086   2.815   5.940  0.0504  0.3576  0.0494
   39MOL   C46421820   2.878   2.755   5.759 -0.2444  0.5003  0.2576
   39MOL   C46521821   2.776   2.712   5.673 -0.2536 -0.0900 -0.2500
   39MOL   H46621822   1.932   2.639   5.597 -0.1138  0.9075 -1.8336
   39MOL   H46721823   1.889   2.469   5.607 -0.3211 -0.1425  0.5207
   39MOL   H46821824   2.102   2.417   5.711  0.5338  0.5479  1.3948
   39MOL   H46921825   2.015   2.536   5.795  3.9265 -1.5767  1.9872
   39MOL   H47021826   2.162   2.718   5.672  0.4898  0.3570 -0.9402
   39MOL   H47121827   2.202   2.630   5.824  1.1520  2.8102 -0.2714
   39MOL   H47221828   2.321   2.462   5.664  1.2848 -0.0668  2.0873
   39MOL   H47321829   2.291   2.584   5.535 -3.8378 -1.7183 -0.1069
   39MOL   H47421830   2.522   2.708   5.908 -1.8430  1.8625 -1.9148
   39MOL   H47521831   2.721   2.714   6.060 -1.7085 -0.0546  0.2790
   39MOL   H47621832   2.972   2.780   5.713 -1.2224 -3.8384 -4.5489
   39MOL   H47721833   2.789   2.707   5.566 -3.2772  0.8840 -0.7301
   39MOL   O47821834   2.953   2.780   6.121  0.0931 -0.0472 -0.1031
   39MOL   C47921835   3.057   2.785   6.223 -0.4984 -0.3841 -0.1518
   39MOL   C48021836   3.094   2.924   6.273 -0.3390 -0.2254  0.2160
   39MOL   C48121837   3.194   2.930   6.396 -0.2325 -0.9773 -0.1975
   39MOL   C48221838   3.317   2.843   6.369 -0.6646  0.1973 -0.2357
   39MOL   O48321839   3.288   2.719   6.428 -0.0228  0.1762 -0.0464
   39MOL   C48421840   3.392   2.638   6.440  0.1245  0.7423 -1.0603
   39MOL   O48521841   3.497   2.649   6.376  0.4745  0.5020  0.7764
   39MOL   C48621842   3.365   2.533   6.543 -0.4784  0.0036  0.4316
   39MOL   C48721843   3.245   2.529   6.624 -0.3752 -0.1974  0.2615
   39MOL   C48821844   3.223   2.436   6.722  0.0754  0.1158 -0.5731
   39MOL   C48921845   3.318   2.329   6.741  0.5126 -0.0394 -0.2851
   39MOL   C49021846   3.288   2.223   6.840 -0.3091 -0.2142 -0.2521
   39MOL   O49121847   3.216   2.240   6.932  0.2682  0.0330  0.1583
   39MOL   C49221848   3.434   2.326   6.658 -0.0910  0.1696  0.0882
   39MOL   C49321849   3.463   2.433   6.565 -0.1538 -0.2727 -0.2046
   39MOL   H49421850   3.026   2.724   6.308  1.2111 -1.0813 -0.0176
   39MOL   H49521851   3.141   2.727   6.183 -1.0561 -0.2329 -1.5692
   39MOL   H49621852   2.998   2.965   6.302  0.4803  3.1094 -1.6150
   39MOL   H49721853   3.132   2.983   6.189 -0.6189 -0.2869  0.0467
   39MOL   H49821854   3.208   3.034   6.423 -1.4542 -0.6319 -0.8443
   39MOL   H49921855   3.147   2.892   6.487  1.2569 -0.3475  0.8384
   39MOL   H50021856   3.328   2.841   6.261  1.9984  1.9510 -0.0337
   39MOL   H50121857   3.411   2.881   6.409 -0.2726  0.0584 -1.0043
   39MOL   H50221858   3.158   2.587   6.596 -1.0747 -0.3679  2.0132
   39MOL   H50321859   3.127   2.412   6.764  0.1946 -0.6385 -0.7118
   39MOL   H50421860   3.507   2.246   6.661 -0.8060 -0.4975 -0.3509
   39MOL   H50521861   3.558   2.425   6.515 -1.3411 -1.2848 -2.3471
   39MOL   O50621862   3.366   2.111   6.822 -0.2148  0.7751  0.3239
   39MOL   C50721863   3.355   1.999   6.914 -0.5818  0.4199 -0.1851
   39MOL   C50821864   3.485   1.988   6.993 -0.1572  0.0105 -0.4519
   39MOL   C50921865   3.613   1.967   6.911 -0.6364  0.0132 -0.1427
   39MOL   C51021866   3.640   1.818   6.878  0.0766 -0.6907 -0.3593
   39MOL   O51121867   3.542   1.772   6.781 -0.0441 -0.5031 -0.1001
   39MOL   C51221868   3.514   1.642   6.781 -0.2819  0.5452 -0.1322
   39MOL   O51321869   3.565   1.554   6.846 -0.4443 -0.0115  0.2436
   39MOL   C51421870   3.406   1.621   6.691  0.1000 -0.2153 -0.5383
   39MOL   C51521871   3.375   1.490   6.654  0.8819  0.0055 -0.0050
   39MOL   C51621872   3.272   1.458   6.566 -0.4689  0.4556 -0.3215
   39MOL   C51721873   3.186   1.554   6.521  0.5672 -0.3289  0.2618
   39MOL   C51821874   3.080   1.524   6.420 -0.4009  0.6147  0.2014
   39MOL   O51921875   2.986   1.598   6.404  0.2631  0.0195  0.3216
   39MOL   C52021876   3.207   1.686   6.566 -0.6146 -0.6447 -0.4088
   39MOL   C52121877   3.317   1.721   6.642  0.4077  0.2332 -0.0047
   39MOL   H52221878   3.272   2.007   6.984 -1.5200 -2.5529 -0.8955
   39MOL   H52321879   3.347   1.906   6.859  1.9456 -1.0864  1.8977
   39MOL   H52421880   3.490   1.922   7.079  2.3032 -0.3060 -0.7818
   39MOL   H52521881   3.493   2.088   7.037 -1.6109 -0.3716  0.7070
   39MOL   H52621882   3.624   2.032   6.824  1.1923  1.2920  1.0115
   39MOL   H52721883   3.697   2.004   6.970  1.4411  2.6733 -4.4490
   39MOL   H52821884   3.739   1.816   6.831  0.0011  0.5712 -0.5846
   39MOL   H52921885   3.658   1.755   6.965 -0.0013  1.1832  1.0476
   39MOL   H53021886   3.424   1.401   6.691  0.0220 -0.0030  1.1343
   39MOL   H53121887   3.273   1.355   6.534  0.4939 -0.2208  1.7581
   39MOL   H53221888   3.141   1.764   6.531  0.0773 -0.5231 -1.4758
   39MOL   H53321889   3.343   1.823   6.667  0.8552  0.1174  0.0175
   39MOL   O53421890   3.085   1.394   6.369 -0.2764  0.0044 -0.3105
   39MOL   C53521891   2.981   1.343   6.288  0.3284  0.0387  1.2987
   39MOL   C53621892   2.990   1.385   6.142 -0.2880  0.1324  0.0958
   39MOL   C53721893   2.891   1.320   6.046  0.5558 -0.3028  0.3761
   39MOL   C53821894   2.873   1.372   5.905 -0.3970 -0.2821 -0.4180
   39MOL   O53921895   2.802   1.271   5.839 -0.1459 -0.2768  0.6279
   39MOL   C54021896   2.719   1.299   5.734  0.3590 -0.2773  0.6021
   39MOL   O54121897   2.719   1.411   5.677  0.2457  0.5520 -0.2218
   39MOL   C54221898   2.635   1.187   5.681  0.4538 -0.0413  0.5813
   39MOL   C54321899   2.583   1.188   5.547  0.5903 -0.5155 -0.1002
   39MOL   C54421900   2.502   1.085   5.504  0.3788 -0.4444  0.5971
   39MOL   C54521901   2.492   0.967   5.579 -0.1642  0.1844 -0.3867
   39MOL   C54621902   2.419   0.844   5.527  0.5136  0.2780  0.0299
   39MOL   O54721903   2.394   0.752   5.607  1.0748  0.0632 -0.1141
   39MOL   C54821904   2.551   0.963   5.708  0.3286  0.6871 -0.5477
   39MOL   C54921905   2.620   1.071   5.762 -0.3465  0.7868  0.4666
   39MOL   H55021906   2.986   1.235   6.307  1.2664  0.0803  1.3090
   39MOL   H55121907   2.891   1.392   6.324 -0.1927 -0.9406  1.3334
   39MOL   H55221908   3.089   1.364   6.103 -0.4501  0.3294 -0.4259
   39MOL   H55321909   2.988   1.494   6.141  0.3375  0.1691  1.9764
   39MOL   H55421910   2.910   1.214   6.028 -0.8803 -0.2726 -1.5127
   39MOL   H55521911   2.796   1.330   6.099  0.2562  0.6929 -0.3331
   39MOL   H55621912   2.817   1.465   5.914 -2.9353 -1.8580  0.6407
   39MOL   H55721913   2.964   1.396   5.851 -0.5724  1.6260  0.1003
   39MOL   H55821914   2.601   1.278   5.491  0.6366 -0.7402 -0.4435
   39MOL   H55921915   2.454   1.102   5.408 -1.2178  1.1485  1.6331
   39MOL   H56021916   2.539   0.871   5.764  0.5439 -0.1868 -1.8946
   39MOL   H56121917   2.659   1.060   5.862 -1.7072 -0.3276  0.8894
   39MOL   H56221918   2.391   0.841   5.422  1.3218 -1.9251 -0.1316
   40MOL     O121919   7.682   8.061   4.712 -0.0290  0.1907 -0.4001
   40MOL     C221920   7.546   8.053   4.753  0.6257  0.2078 -0.4945
   40MOL     C321921   7.499   7.912   4.757 -0.3512 -0.6221  0.1677
   40MOL     C421922   7.351   7.912   4.803  0.2024  1.4092 -0.4178
   40MOL     C521923   7.314   7.769   4.854 -0.1345  0.4153 -0.0081
   40MOL     O621924   7.177   7.750   4.885 -0.6092 -0.3192 -0.2120
   40MOL     C721925   7.125   7.797   5.001 -0.2984 -0.2605 -0.6571
   40MOL     O821926   7.185   7.865   5.084 -0.6600 -0.1677  0.3987
   40MOL     C921927   6.982   7.753   5.018  0.1684 -0.7549  0.5430
   40MOL    C1021928   6.917   7.776   5.141  0.2543  0.3886  0.0948
   40MOL    C1121929   6.786   7.732   5.163  0.1825 -0.7291 -0.7994
   40MOL    C1221930   6.715   7.654   5.067 -0.2225  1.5005 -0.7830
   40MOL    C1321931   6.577   7.616   5.101 -0.0788  0.8431 -0.2918
   40MOL    O1421932   6.513   7.667   5.199 -0.0644  0.4523  0.2855
   40MOL    C1521933   6.776   7.625   4.942 -0.6147  0.3425  0.1591
   40MOL    C1621934   6.906   7.681   4.922  0.1949 -0.4832  0.5358
   40MOL    H1721935   7.543   8.095   4.854 -2.1956  0.6766 -0.7256
   40MOL    H1821936   7.481   0.018   4.693  0.9053  0.5222 -0.4688
   40MOL    H1921937   7.567   7.851   4.816  1.2795 -0.5537 -1.5827
   40MOL    H2021938   7.508   7.867   4.658  0.6772 -0.9292  0.3880
   40MOL    H2121939   7.331   7.976   4.889  0.0286 -0.9535  1.3410
   40MOL    H2221940   7.289   7.959   4.727  0.0719 -2.2186 -2.6689
   40MOL    H2321941   7.336   7.692   4.781 -2.0292  1.5045 -1.7589
   40MOL    H2421942   7.377   7.739   4.938  0.4585  2.7662  0.4305
   40MOL    H2521943   6.970   7.828   5.220  2.2158  1.1616 -1.6842
   40MOL    H2621944   6.734   7.738   5.257 -0.6498 -1.8297 -1.1792
   40MOL    H2721945   6.726   7.577   4.860  1.3474  1.8333 -1.9797
   40MOL    H2821946   6.949   7.662   4.825 -0.9861  0.9696 -0.2918
   40MOL    H2921947   7.709   0.052   4.728 -0.6173  0.2746  0.1521
   40MOL    O3021948   6.532   7.521   5.030 -0.0332  0.6468  0.4441
   40MOL    C3121949   6.411   7.456   5.071 -0.1534  1.1443 -0.2795
   40MOL    C3221950   6.332   7.404   4.945 -0.7585 -0.1553 -0.1527
   40MOL    C3321951   6.422   7.301   4.870 -0.6840  0.2174  0.5620
   40MOL    C3421952   6.371   7.258   4.735  0.0983 -0.7128  0.0460
   40MOL    O3521953   6.461   7.158   4.688  0.1780  0.2149  0.9940
   40MOL    C3621954   6.491   7.154   4.555 -0.6134 -0.3827  0.0009
   40MOL    O3721955   6.437   7.223   4.470  0.8691 -0.1831  0.7940
   40MOL    C3821956   6.612   7.060   4.528  0.0533  0.0529 -0.8977
   40MOL    C3921957   6.699   7.105   4.430 -0.0083 -0.2428  0.2262
   40MOL    C4021958   6.805   7.019   4.394 -0.1226  0.2101  0.5378
   40MOL    C4121959   6.821   6.897   4.459  0.2939 -0.7767  0.1736
   40MOL    C4221960   6.940   6.809   4.421 -0.0001 -0.0523 -0.3901
   40MOL    O4321961   7.025   6.844   4.341  0.1097  0.1865  0.2910
   40MOL    C4421962   6.730   6.849   4.561 -0.5557  0.0064 -0.3910
   40MOL    C4521963   6.630   6.938   4.601  0.0543  0.3510 -0.5260
   40MOL    H4621964   6.432   7.377   5.142  1.6807  2.1613  0.3337
   40MOL    H4721965   6.349   7.529   5.124 -2.2118  0.1750 -1.2900
   40MOL    H4821966   6.311   7.479   4.869  0.1537  0.4883  0.2185
   40MOL    H4921967   6.232   7.366   4.969 -1.7106  1.1006 -2.0199
   40MOL    H5021968   6.523   7.340   4.860 -0.5226 -0.3603 -0.1248
   40MOL    H5121969   6.423   7.208   4.927 -1.0704 -0.1255  0.0239
   40MOL    H5221970   6.276   7.208   4.751  0.1892 -0.1110  2.7472
   40MOL    H5321971   6.366   7.354   4.684  1.5855 -0.5639  0.1453
   40MOL    H5421972   6.680   7.200   4.382  2.0318  0.8985  1.6036
   40MOL    H5521973   6.872   7.047   4.314  0.2593 -0.3637  0.6537
   40MOL    H5621974   6.751   6.763   4.624 -1.6465  0.7125  0.9597
   40MOL    H5721975   6.566   6.913   4.684  1.1475  0.6828  0.4290
   40MOL    O5821976   6.942   6.684   4.463 -0.2526 -0.4749 -0.1573
   40MOL    C5921977   7.037   6.592   4.420 -0.2947  0.9554  0.0272
   40MOL    C6021978   6.982   6.460   4.464  0.2195  0.3039  0.6840
   40MOL    C6121979   6.851   6.417   4.400  0.5273  0.3083  0.5920
   40MOL    C6221980   6.797   6.276   4.432 -0.1143  0.4479  0.0897
   40MOL    O6321981   6.675   6.249   4.377  0.9775 -0.0961 -0.0643
   40MOL    C6421982   6.564   6.258   4.456  0.4189  0.2567 -0.6549
   40MOL    O6521983   6.559   6.302   4.571  0.1482  0.1140 -0.9315
   40MOL    C6621984   6.449   6.182   4.391  0.3474 -0.1960 -0.3764
   40MOL    C6721985   6.440   6.193   4.251 -0.2846 -0.5662 -0.5605
   40MOL    C6821986   6.332   6.129   4.184 -0.0888 -0.0388 -0.9186
   40MOL    C6921987   6.233   6.062   4.257 -0.4830  0.3143 -0.5857
   40MOL    C7021988   6.115   6.000   4.182 -0.2053  0.2207  0.8948
   40MOL    O7121989   6.123   5.989   4.056  1.0526 -0.2787 -0.1694
   40MOL    C7221990   6.238   6.057   4.396  0.4185  0.2550 -0.1918
   40MOL    C7321991   6.343   6.118   4.462 -0.3641 -0.4289 -0.6108
   40MOL    H7421992   7.052   6.606   4.313 -3.9532  1.8030 -0.4512
   40MOL    H7521993   7.132   6.604   4.471  0.3690 -0.2713 -0.9123
   40MOL    H7621994   6.979   6.450   4.572  0.4788  1.0392  0.7604
   40MOL    H7721995   7.052   6.384   4.429 -0.3437  1.5984 -3.6144
   40MOL    H7821996   6.771   6.474   4.447 -0.9224 -0.9797 -0.2886
   40MOL    H7921997   6.851   6.436   4.293  1.4068  1.3346  0.7662
   40MOL    H8021998   6.854   6.196   4.386 -1.6972 -2.1873  2.5902
   40MOL    H8121999   6.814   6.249   4.536  0.0902 -0.8323 -0.2738
   40MOL    H8222000   6.506   6.258   4.196 -1.1115  0.3976 -0.4176
   40MOL    H8322001   6.334   6.122   4.076  2.8852 -2.3001 -0.7936
   40MOL    H8422002   6.164   6.006   4.455 -1.9004 -1.7353 -4.5755
   40MOL    H8522003   6.350   6.107   4.569  0.3766 -0.6848 -0.6856
   40MOL    O8622004   6.019   5.949   4.265 -0.1717 -0.0061 -0.8394
   40MOL    C8722005   5.915   5.884   4.218 -0.3814  0.0576 -0.2595
   40MOL    C8822006   5.902   5.759   4.310  0.0975  0.0396  0.1673
   40MOL    C8922007   6.033   5.676   4.332 -0.0962  0.1154 -0.2596
   40MOL    C9022008   6.010   5.533   4.378 -0.4486  1.2946  1.1004
   40MOL    O9122009   6.136   5.477   4.384 -0.8358 -0.0757 -0.3516
   40MOL    C9222010   6.149   5.351   4.433  0.0993  0.2343 -0.4096
   40MOL    O9322011   6.057   5.276   4.464  0.2205  0.0430  0.1510
   40MOL    C9422012   6.290   5.303   4.445  0.0700  0.1237  0.5994
   40MOL    C9522013   6.319   5.176   4.501 -0.4044  0.4312 -0.6432
   40MOL    C9622014   6.452   5.137   4.517 -0.4889  0.2425  0.2227
   40MOL    C9722015   6.559   5.220   4.465  0.5354  0.4898 -0.3713
   40MOL    C9822016   6.702   5.181   4.480 -0.1290  0.9142 -0.0422
   40MOL    O9922017   6.788   5.252   4.434  0.0724 -0.1641  0.5855
   40MOL   C10022018   6.524   5.346   4.412 -0.7066 -0.4615  0.0050
   40MOL   C10122019   6.393   5.386   4.403  0.2922  0.4623  0.7179
   40MOL   H10222020   5.822   5.940   4.210  0.5811  2.0552  1.9183
   40MOL   H10322021   5.932   5.836   4.121 -0.7441 -0.4771 -0.0599
   40MOL   H10422022   5.816   5.701   4.276 -0.8492  1.3250  0.3410
   40MOL   H10522023   5.883   5.801   4.409  1.1689  0.0653  0.3692
   40MOL   H10622024   6.079   5.663   4.234 -1.9948 -1.6077 -0.9486
   40MOL   H10722025   6.109   5.734   4.383  1.2305 -0.5972 -1.3912
   40MOL   H10822026   5.964   5.534   4.477 -0.5428  0.5204  1.0678
   40MOL   H10922027   5.953   5.477   4.303  0.3862  0.5432  1.0178
   40MOL   H11022028   6.239   5.111   4.534 -2.1080  2.9703  0.3733
   40MOL   H11122029   6.475   5.043   4.565 -0.2935 -1.4543 -3.0519
   40MOL   H11222030   6.601   5.413   4.378 -0.0874 -1.0885  0.1581
   40MOL   H11322031   6.363   5.484   4.369 -1.7804 -1.0179 -1.8640
   40MOL   O11422032   6.718   5.068   4.559 -0.3820 -0.4889  0.4852
   40MOL   C11522033   6.851   5.018   4.576  0.2183  0.5180 -0.0365
   40MOL   C11622034   6.844   4.860   4.577 -0.2749  0.7617  0.7093
   40MOL   C11722035   6.797   4.796   4.444 -0.0119 -0.6685 -0.3730
   40MOL   C11822036   6.646   4.777   4.429  0.4549 -0.4999  0.8714
   40MOL   O11922037   6.626   4.690   4.320  0.7328 -0.1495  0.3527
   40MOL   C12022038   6.643   4.554   4.334 -0.6164  0.5428  0.2795
   40MOL   O12122039   6.668   4.491   4.440  0.4328  0.0034  0.1658
   40MOL   C12222040   6.641   4.490   4.201  1.0331  0.2742 -1.1486
   40MOL   C12322041   6.635   4.349   4.185  0.6006 -0.6918 -0.6747
   40MOL   C12422042   6.648   4.295   4.060 -0.1390  0.0292 -0.0093
   40MOL   C12522043   6.642   4.372   3.938  0.3835  0.3268  0.0299
   40MOL   C12622044   6.646   4.311   3.802  0.1631 -0.2255 -0.2991
   40MOL   O12722045   6.635   4.381   3.700  0.0417  0.1734  0.2997
   40MOL   C12822046   6.630   4.513   3.952  0.6707 -0.0733 -0.2199
   40MOL   C12922047   6.646   4.565   4.079  0.7356 -0.1452  0.6260
   40MOL   H13022048   6.920   5.052   4.499 -1.0538 -0.3262 -1.5744
   40MOL   H13122049   6.895   5.045   4.672  0.2614  1.4051 -0.2991
   40MOL   H13222050   6.797   4.829   4.671 -1.9157 -0.1190 -0.3773
   40MOL   H13322051   6.946   4.822   4.575  0.2207  2.0193 -3.8540
   40MOL   H13422052   6.837   4.846   4.356 -0.7349 -0.6075 -0.6731
   40MOL   H13522053   6.847   4.700   4.434  0.5839 -0.6596  2.1026
   40MOL   H13622054   6.600   4.727   4.514 -0.0461 -3.2161 -0.9283
   40MOL   H13722055   6.595   4.873   4.424  1.3919 -0.1176 -2.0779
   40MOL   H13822056   6.634   4.279   4.267  1.2203 -0.8746 -0.8171
   40MOL   H13922057   6.661   4.188   4.047 -2.5852 -0.0522 -2.0945
   40MOL   H14022058   6.616   4.579   3.868 -1.8951 -1.5137 -0.9776
   40MOL   H14122059   6.659   4.672   4.080 -0.2398 -0.0233  2.7902
   40MOL   O14222060   6.666   4.173   3.803  0.0999  0.0375  0.2480
   40MOL   C14322061   6.645   4.100   3.681 -0.0720 -1.0872  0.2844
   40MOL   C14422062   6.765   4.005   3.663  0.0954 -0.3663 -0.0682
   40MOL   C14522063   6.884   4.082   3.595  0.4975 -0.1953 -0.2976
   40MOL   C14622064   7.006   4.000   3.594 -0.1831 -0.2595  0.2642
   40MOL   O14722065   7.050   3.974   3.725  0.7505  0.1240  0.3144
   40MOL   C14822066   7.114   4.075   3.795 -0.1773 -0.7412 -0.1287
   40MOL   O14922067   7.175   4.168   3.742 -0.8522 -0.1286 -0.2840
   40MOL   C15022068   7.076   4.082   3.938 -0.0079  0.7730  0.4645
   40MOL   C15122069   6.971   4.004   3.998 -0.3053  0.3709 -0.2296
   40MOL   C15222070   6.929   4.021   4.127 -0.4152  0.7518  1.1566
   40MOL   C15322071   6.978   4.138   4.197 -0.1011 -0.3117  0.0198
   40MOL   C15422072   6.914   4.179   4.327 -0.2587  0.1756 -0.4951
   40MOL   O15522073   6.813   4.124   4.371 -0.1509 -0.0347 -0.4509
   40MOL   C15622074   7.084   4.214   4.143  0.2254  0.4918  0.0612
   40MOL   C15722075   7.132   4.189   4.014 -0.2798  0.1542  0.1488
   40MOL   H15822076   6.551   4.049   3.703  0.2195 -2.8057 -2.2629
   40MOL   H15922077   6.647   4.159   3.589  0.4154 -0.2053  0.8615
   40MOL   H16022078   6.740   3.921   3.598  1.9722  0.9169 -2.5054
   40MOL   H16122079   6.797   3.967   3.760 -2.1987 -0.3276  0.7391
   40MOL   H16222080   6.866   4.099   3.489 -1.8981  1.2949  0.3064
   40MOL   H16322081   6.888   4.182   3.640 -1.5392 -0.4177  0.4190
   40MOL   H16422082   7.001   3.902   3.548  1.9516  0.1884 -0.9881
   40MOL   H16522083   7.090   4.043   3.539  0.3552 -1.3789  0.2049
   40MOL   H16622084   6.920   3.928   3.941 -0.9541 -0.2228  1.1059
   40MOL   H16722085   6.848   3.964   4.171 -1.9430  2.0119  0.0093
   40MOL   H16822086   7.128   4.299   4.193  1.0038  0.4237 -0.4986
   40MOL   H16922087   7.207   4.254   3.972  0.6935 -1.8305 -1.2847
   40MOL   O17022088   6.974   4.285   4.383 -0.1392 -0.0293  0.1907
   40MOL   C17122089   6.927   4.340   4.499 -0.3862  0.0296  0.2980
   40MOL   C17222090   7.015   4.457   4.524 -0.2347 -0.2779  0.0451
   40MOL   C17322091   6.977   4.536   4.653 -0.7480 -0.2408  0.2137
   40MOL   C17422092   7.094   4.582   4.745 -0.1147  0.0054 -0.1676
   40MOL   O17522093   7.036   4.599   4.870 -0.2472 -0.2943  0.1939
   40MOL   C17622094   7.009   4.719   4.913  0.1123  0.5035 -0.5022
   40MOL   O17722095   7.047   4.824   4.865 -0.7667  0.6822  0.5223
   40MOL   C17822096   6.899   4.715   5.020  0.6900 -0.0914  0.7325
   40MOL   C17922097   6.883   4.595   5.086 -0.2666 -0.2683  0.6332
   40MOL   C18022098   6.784   4.584   5.180  0.1925  0.3492  0.6590
   40MOL   C18122099   6.706   4.693   5.222 -0.3773 -0.0417 -0.0446
   40MOL   C18222100   6.607   4.682   5.327 -1.1589 -0.4127 -0.0637
   40MOL   O18322101   6.536   4.784   5.359 -0.1557  0.6782 -0.6276
   40MOL   C18422102   6.723   4.817   5.158 -0.4719  0.4313  0.1459
   40MOL   C18522103   6.821   4.825   5.058  0.0400 -0.1794 -0.1630
   40MOL   H18622104   6.822   4.356   4.475 -0.3224 -0.1526 -0.0978
   40MOL   H18722105   6.923   4.280   4.591  0.9942 -2.5444 -1.2562
   40MOL   H18822106   6.983   4.525   4.445  1.8334  0.1106 -0.4932
   40MOL   H18922107   7.122   4.443   4.507  0.1443  0.9437  1.3038
   40MOL   H19022108   6.910   4.614   4.617  0.1898  0.3590 -0.2146
   40MOL   H19122109   6.919   4.469   4.717 -0.8836  0.0334  0.3768
   40MOL   H19222110   7.168   4.506   4.768 -0.6630 -0.0942  1.3135
   40MOL   H19322111   7.160   4.651   4.692 -1.8703  1.4856 -0.4742
   40MOL   H19422112   6.940   4.504   5.079  0.8057  0.4227  0.0480
   40MOL   H19522113   6.769   4.488   5.229 -1.0112  0.6404  0.8834
   40MOL   H19622114   6.663   4.905   5.175  0.5319  0.8278  1.7229
   40MOL   H19722115   6.846   4.915   5.003 -0.3044 -0.7082 -1.2043
   40MOL   O19822116   6.592   4.555   5.379  0.4589  0.2605 -0.1175
   40MOL   C19922117   6.502   4.534   5.487 -0.0101 -0.3412 -0.1013
   40MOL   C20022118   6.359   4.512   5.430  0.3342 -0.5867 -0.0980
   40MOL   C20122119   6.261   4.487   5.539  0.1994 -0.3392 -0.3366
   40MOL   C20222120   6.231   4.341   5.585 -0.0949 -0.1423 -0.4314
   40MOL   O20322121   6.105   4.342   5.660  0.3271 -0.5624 -0.3625
   40MOL   C20422122   6.076   4.231   5.722 -0.1047 -0.5062  0.3802
   40MOL   O20522123   6.139   4.130   5.704 -0.4793 -0.5931  0.4563
   40MOL   C20622124   5.949   4.248   5.801  0.0553 -0.1405  0.0049
   40MOL   C20722125   5.906   4.148   5.880  0.8730  0.6425 -0.3878
   40MOL   C20822126   5.792   4.163   5.964  0.3973  0.2500  0.0478
   40MOL   C20922127   5.733   4.294   5.976 -0.8539  0.8778 -0.5863
   40MOL   C21022128   5.626   4.315   6.074 -0.7824  0.8756  0.7503
   40MOL   O21122129   5.556   4.227   6.119  1.2041 -0.0353 -0.3109
   40MOL   C21222130   5.787   4.400   5.902  0.5591 -0.4791 -0.6665
   40MOL   C21322131   5.888   4.373   5.812 -0.3914  0.8575 -0.0722
   40MOL   H21422132   6.535   4.443   5.537 -1.7018 -0.9967 -0.1427
   40MOL   H21522133   6.503   4.617   5.557  0.7962 -0.9424  0.5996
   40MOL   H21622134   6.361   4.421   5.370  1.6010 -0.2427 -0.6050
   40MOL   H21722135   6.330   4.594   5.364 -0.0679 -0.9013 -0.3137
   40MOL   H21822136   6.294   4.555   5.617 -0.6062 -1.1881  0.7504
   40MOL   H21922137   6.168   4.517   5.491 -0.3173 -1.8290 -0.3077
   40MOL   H22022138   6.217   4.275   5.500 -2.3107  0.8348 -0.8779
   40MOL   H22122139   6.317   4.298   5.636 -1.5844 -0.7922  1.6125
   40MOL   H22222140   5.956   4.052   5.880 -2.5707 -1.2416 -1.5248
   40MOL   H22322141   5.749   4.076   6.011  1.0825  0.4193  1.0056
   40MOL   H22422142   5.747   4.500   5.899 -1.0561 -1.0859 -0.1324
   40MOL   H22522143   5.902   4.455   5.744 -2.9558  0.3108 -1.3134
   40MOL   O22622144   5.613   4.443   6.107  0.2448 -0.1505 -0.4319
   40MOL   C22722145   5.502   4.487   6.186  0.2760  0.0325 -0.0071
   40MOL   C22822146   5.445   4.615   6.144 -0.1487 -0.0811 -0.3600
   40MOL   C22922147   5.542   4.730   6.134  0.3480  0.4010 -0.7649
   40MOL   C23022148   5.613   4.775   6.263 -0.3375 -0.4671  0.2857
   40MOL   O23122149   5.529   4.812   6.371  0.4493  0.9236 -0.1243
   40MOL   C23222150   5.483   4.935   6.379  0.2528 -0.9061 -0.6830
   40MOL   O23322151   5.512   5.020   6.295  0.0539 -0.2911  0.4529
   40MOL   C23422152   5.404   4.962   6.501  0.0975  0.0680  0.3695
   40MOL   C23522153   5.359   4.865   6.592  0.8411  0.2076 -0.3902
   40MOL   C23622154   5.301   4.904   6.717 -0.0027  0.2259 -0.4674
   40MOL   C23722155   5.294   5.041   6.758 -0.1636 -0.2108 -0.1436
   40MOL   C23822156   5.256   5.074   6.900 -0.1500  0.0260  0.9815
   40MOL   O23922157   5.233   4.986   6.983 -0.0624 -0.1538 -0.3407
   40MOL   C24022158   5.325   5.138   6.658  0.4477  0.7853 -0.1156
   40MOL   C24122159   5.379   5.092   6.538  0.3318 -0.0157  0.8374
   40MOL   H24222160   5.435   4.405   6.213  3.2590 -1.6391  2.6151
   40MOL   H24322161   5.538   4.501   6.288 -0.2444  0.1236  0.1684
   40MOL   H24422162   5.361   4.633   6.211 -0.8729 -2.5901 -0.5174
   40MOL   H24522163   5.399   4.598   6.047 -1.7212  3.2835 -0.2534
   40MOL   H24622164   5.616   4.693   6.063  0.4124 -1.4411  0.2155
   40MOL   H24722165   5.483   4.809   6.088  0.7278  0.1979 -1.5957
   40MOL   H24822166   5.676   4.696   6.303  0.5037 -0.5208 -1.1289
   40MOL   H24922167   5.677   4.860   6.238 -1.1716  0.2372  0.4864
   40MOL   H25022168   5.373   4.760   6.574 -0.3142 -0.3180  1.6465
   40MOL   H25122169   5.277   4.822   6.783 -0.5788 -1.2995 -2.5191
   40MOL   H25222170   5.307   5.242   6.682 -0.5072 -0.0529  3.0256
   40MOL   H25322171   5.418   5.172   6.477  0.7801 -0.3739  0.6500
   40MOL   O25422172   5.260   5.205   6.931 -0.6856  0.7617 -0.3602
   40MOL   C25522173   5.209   5.240   7.061 -0.5070 -0.7724 -0.2621
   40MOL   C25622174   5.236   5.387   7.076 -0.0785  0.2061 -0.4549
   40MOL   C25722175   5.209   5.453   7.215 -0.7935 -0.2642 -0.7837
   40MOL   C25822176   5.056   5.425   7.275 -0.6148 -0.0642 -0.1180
   40MOL   O25922177   4.980   5.517   7.196 -0.3767 -0.4128  0.2311
   40MOL   C26022178   4.905   5.612   7.263 -1.1639  0.3641  0.2368
   40MOL   O26122179   4.896   5.613   7.390  0.3681 -0.4325  0.1057
   40MOL   C26222180   4.842   5.700   7.167  0.7450 -0.2410 -0.5274
   40MOL   C26322181   4.829   5.670   7.033  0.0525 -1.0411  0.4466
   40MOL   C26422182   4.769   5.763   6.946  0.0648  0.3360  0.7319
   40MOL   C26522183   4.718   5.883   6.999  0.6809 -0.6490 -0.5746
   40MOL   C26622184   4.647   5.979   6.912 -0.0386  0.4459 -0.2560
   40MOL   O26722185   4.662   6.099   6.934 -0.3674  0.0424  1.0892
   40MOL   C26822186   4.732   5.918   7.132  0.1957  0.1752  0.1110
   40MOL   C26922187   4.783   5.818   7.213 -0.3349  0.2635 -0.2237
   40MOL   H27022188   5.105   5.211   7.068  0.1057 -3.1588 -0.7839
   40MOL   H27122189   5.261   5.188   7.141 -1.3882 -1.8831 -0.4043
   40MOL   H27222190   5.190   5.439   6.992  2.9625  1.4727 -1.4159
   40MOL   H27322191   5.342   5.391   7.049 -0.5666 -1.1302 -2.6475
   40MOL   H27422192   5.284   5.423   7.287 -1.5343 -2.7217 -0.9861
   40MOL   H27522193   5.217   5.561   7.200 -1.4830 -0.4272 -2.5688
   40MOL   H27622194   5.022   5.323   7.259 -1.5501  0.1658  0.3975
   40MOL   H27722195   5.058   5.439   7.383  2.3579 -0.6813 -0.0353
   40MOL   H27822196   4.874   5.581   6.991  1.0597 -0.4010  0.1610
   40MOL   H27922197   4.755   5.751   6.840  2.6278  3.6787 -0.0602
   40MOL   H28022198   4.694   6.008   7.177  2.0951 -0.8236  3.9384
   40MOL   H28122199   4.772   5.843   7.317  1.0711 -0.4535  0.1052
   40MOL   O28222200   4.577   5.924   6.810  0.5350  0.1480  0.1829
   40MOL   C28322201   4.504   6.007   6.726 -0.1976  0.5337 -0.1234
   40MOL   C28422202   4.354   6.007   6.772  0.1387  0.1128  0.3662
   40MOL   C28522203   4.285   5.873   6.747 -0.0177  0.0109  0.0878
   40MOL   C28622204   4.146   5.872   6.793 -0.1676  0.1089 -0.4888
   40MOL   O28722205   4.091   5.744   6.776 -0.2780 -0.3491 -0.2095
   40MOL   C28822206   3.965   5.718   6.827  0.2810 -0.3262  0.0791
   40MOL   O28922207   3.897   5.807   6.887  0.7041  0.4610 -0.2927
   40MOL   C29022208   3.915   5.574   6.810 -0.2669 -0.0669  0.3892
   40MOL   C29122209   3.777   5.535   6.842 -0.6367 -0.2739 -0.8824
   40MOL   C29222210   3.730   5.401   6.826  0.2185  0.0053  0.0828
   40MOL   C29322211   3.824   5.303   6.793  0.0470 -0.2202  0.1638
   40MOL   C29422212   3.778   5.164   6.776 -1.0825 -0.3381  0.5350
   40MOL   O29522213   3.659   5.133   6.777  0.2678 -0.4464  0.4210
   40MOL   C29622214   3.955   5.343   6.757  0.0312 -0.5290  0.0063
   40MOL   C29722215   4.002   5.476   6.757 -0.5573 -0.0761  0.5851
   40MOL   H29822216   4.540   6.110   6.723  1.0514  0.0757 -1.3758
   40MOL   H29922217   4.503   5.973   6.622 -1.2061 -0.7300  0.2961
   40MOL   H30022218   4.297   6.089   6.728 -1.0545 -0.0200  1.6431
   40MOL   H30122219   4.365   6.040   6.875 -0.2094  0.8926  0.1607
   40MOL   H30222220   4.280   5.841   6.642 -0.6267 -0.8133  0.3581
   40MOL   H30322221   4.316   5.786   6.805  0.2417 -0.0733 -0.1779
   40MOL   H30422222   4.138   5.894   6.900  3.8857 -1.0340  0.1154
   40MOL   H30522223   4.091   5.952   6.742 -0.9874 -0.1032  0.0462
   40MOL   H30622224   3.704   5.610   6.869  2.1706  1.6901  1.7331
   40MOL   H30722225   3.624   5.383   6.824  0.0183  1.1567 -2.5212
   40MOL   H30822226   4.036   5.274   6.739  1.0086  0.1354  1.6619
   40MOL   H30922227   4.105   5.507   6.744 -0.8220 -0.4603 -2.9191
   40MOL   O31022228   3.872   5.069   6.746  0.4552 -0.1287  0.0095
   40MOL   C31122229   3.835   4.930   6.741 -0.2853 -0.4920 -0.0681
   40MOL   C31222230   3.780   4.892   6.598  0.2991 -0.2342  0.5963
   40MOL   C31322231   3.890   4.868   6.506 -0.1797 -0.2454  0.4136
   40MOL   C31422232   3.856   4.806   6.373  0.3829 -0.0831  0.7003
   40MOL   O31522233   3.770   4.888   6.301  0.4524 -0.2024  0.1194
   40MOL   C31622234   3.704   4.842   6.191  0.7982 -0.7322  0.0366
   40MOL   O31722235   3.741   4.746   6.125 -0.2483 -0.4328 -0.3092
   40MOL   C31822236   3.575   4.918   6.163 -0.0776 -0.3551 -0.1707
   40MOL   C31922237   3.535   5.029   6.239  0.0701 -0.6570 -0.8504
   40MOL   C32022238   3.426   5.109   6.211 -0.2775  0.2027  0.3218
   40MOL   C32122239   3.353   5.080   6.091  0.1273  0.4178 -0.0392
   40MOL   C32222240   3.241   5.168   6.053  0.3757 -0.1575  0.1677
   40MOL   O32322241   3.196   5.253   6.129  0.0189 -0.0960 -0.4303
   40MOL   C32422242   3.393   4.964   6.014  0.2749 -0.0159  0.1792
   40MOL   C32522243   3.504   4.885   6.052 -0.0102  0.1223 -0.0460
   40MOL   H32622244   3.921   4.865   6.757  0.6113  0.3734 -1.3730
   40MOL   H32722245   3.751   4.910   6.809  0.2455 -2.0506  0.1579
   40MOL   H32822246   3.711   4.969   6.562 -1.6361 -1.4128  1.7005
   40MOL   H32922247   3.721   4.801   6.600 -0.3706  0.1933  0.7244
   40MOL   H33022248   3.925   4.967   6.475 -1.8159  0.2185  0.0430
   40MOL   H33122249   3.971   4.807   6.546  0.6490  0.6248  0.0887
   40MOL   H33222250   3.947   4.784   6.318 -0.6164 -1.6276 -0.4199
   40MOL   H33322251   3.813   4.708   6.397  0.8053 -0.5914 -0.5726
   40MOL   H33422252   3.582   5.047   6.335  0.3929 -2.6269 -0.6107
   40MOL   H33522253   3.398   5.190   6.277  1.9751  0.1719  1.3475
   40MOL   H33622254   3.335   4.943   5.926  2.2262  2.3270 -1.7428
   40MOL   H33722255   3.526   4.797   5.993 -1.8967  0.3784 -1.1547
   40MOL   O33822256   3.197   5.152   5.923  0.2496 -0.1866 -0.0843
   40MOL   C33922257   3.102   5.252   5.870  0.0590  0.2451  0.0674
   40MOL   C34022258   3.020   5.187   5.751 -0.1283  0.4984  0.0126
   40MOL   C34122259   3.103   5.175   5.622 -0.4234 -0.1951 -0.0697
   40MOL   C34222260   3.207   5.067   5.630 -0.6281 -0.6146 -0.9558
   40MOL   O34322261   3.280   5.080   5.511 -0.9546  0.1929  0.2615
   40MOL   C34422262   3.394   5.005   5.495  0.4375  0.2488  0.0013
   40MOL   O34522263   3.443   4.939   5.589  0.2713  0.9576  0.3437
   40MOL   C34622264   3.455   5.005   5.365 -0.4556 -0.3988  0.8045
   40MOL   C34722265   3.403   5.067   5.248  0.2614  0.4932 -0.6268
   40MOL   C34822266   3.460   5.049   5.123 -0.4445 -0.7021  0.0511
   40MOL   C34922267   3.581   4.976   5.109 -0.1781 -0.0677 -0.3512
   40MOL   C35022268   3.658   4.961   4.980 -0.3512  0.5272  1.2192
   40MOL   O35122269   3.753   4.893   4.956  0.6970 -0.4553  0.4544
   40MOL   C35222270   3.637   4.918   5.222 -1.3387  0.1551 -0.0428
   40MOL   C35322271   3.576   4.933   5.348  0.5574 -0.4546  0.5425
   40MOL   H35422272   3.041   5.297   5.948  0.3943  0.3082  0.2936
   40MOL   H35522273   3.162   5.335   5.833 -0.0797  0.2808 -0.0767
   40MOL   H35622274   2.935   5.246   5.719 -1.9554 -2.0001  0.0982
   40MOL   H35722275   2.972   5.090   5.766  2.5977 -1.0706 -0.9925
   40MOL   H35822276   3.031   5.154   5.543 -1.5392 -2.4877  1.5109
   40MOL   H35922277   3.162   5.266   5.607  0.1704 -0.1970  2.0571
   40MOL   H36022278   3.268   5.086   5.718 -0.2991 -0.4044 -1.2295
   40MOL   H36122279   3.163   4.967   5.642  0.5386 -1.0764 -0.4586
   40MOL   H36222280   3.312   5.126   5.248 -1.0398 -1.4384  1.0955
   40MOL   H36322281   3.404   5.097   5.044  0.2690  1.6856  0.9448
   40MOL   H36422282   3.727   4.858   5.215 -1.2910  0.3832 -1.5975
   40MOL   H36522283   3.625   4.877   5.427 -0.1613 -0.7493  0.7780
   40MOL   O36622284   3.612   5.045   4.884 -0.1980  0.3263 -0.4091
   40MOL   C36722285   3.646   5.023   4.745  0.1528  0.0212  0.2157
   40MOL   C36822286   3.543   5.102   4.663 -0.1669  0.1168 -0.1944
   40MOL   C36922287   3.396   5.067   4.695  0.2762 -0.8301 -0.6590
   40MOL   C37022288   3.348   4.949   4.614  0.0414 -0.1465 -0.4788
   40MOL   O37122289   3.423   4.836   4.661 -0.0275 -0.0482 -0.3435
   40MOL   C37222290   3.390   4.708   4.629  0.5632 -0.8258  0.8248
   40MOL   O37322291   3.288   4.681   4.565  0.7907  0.0175 -0.2489
   40MOL   C37422292   3.488   4.602   4.668 -0.3244 -0.1315  0.5025
   40MOL   C37522293   3.452   4.462   4.650  0.0023  0.1461 -0.1053
   40MOL   C37622294   3.550   4.360   4.675  0.4926  0.3935 -0.1355
   40MOL   C37722295   3.670   4.387   4.747 -0.0824  0.2613 -0.1040
   40MOL   C37822296   3.771   4.287   4.777  0.3068 -0.1086  0.0858
   40MOL   O37922297   3.882   4.315   4.820  0.2627 -0.1396 -0.4840
   40MOL   C38022298   3.692   4.524   4.780  0.1244  0.0449  0.7117
   40MOL   C38122299   3.609   4.628   4.738  0.6388  0.0205  0.6768
   40MOL   H38222300   3.743   5.063   4.718 -0.4556  1.4787  0.1598
   40MOL   H38322301   3.658   4.919   4.714  0.1180 -0.0061  0.2950
   40MOL   H38422302   3.567   5.090   4.557 -1.0255 -1.8754 -0.1894
   40MOL   H38522303   3.553   5.209   4.683 -0.2672  0.0945 -0.0229
   40MOL   H38622304   3.389   5.040   4.800 -1.2738  0.5430 -0.3894
   40MOL   H38722305   3.327   5.149   4.676  0.4149 -0.8118 -1.0903
   40MOL   H38822306   3.241   4.931   4.626 -0.1317  2.5759  2.7382
   40MOL   H38922307   3.365   4.960   4.507  1.5310  0.7805 -0.1539
   40MOL   H39022308   3.360   4.448   4.596  1.2349 -0.4388 -2.1196
   40MOL   H39122309   3.522   4.259   4.649  0.9643  0.7342 -2.0207
   40MOL   H39222310   3.781   4.542   4.838  0.3278  0.0699  0.3935
   40MOL   H39322311   3.651   4.725   4.759 -0.2020 -0.0447  2.7849
   40MOL   O39422312   3.728   4.162   4.758 -1.0157  0.0028 -0.0113
   40MOL   C39522313   3.812   4.047   4.768 -0.3630 -0.6560  1.0481
   40MOL   C39622314   3.946   4.049   4.673  0.1555  0.4236  0.5136
   40MOL   C39722315   4.030   3.925   4.677  0.0815 -0.7757 -0.0618
   40MOL   C39822316   4.177   3.957   4.639  0.4408  0.0310  0.2116
   40MOL   O39922317   4.193   3.973   4.498  0.5019  0.2785 -0.0014
   40MOL   C40022318   4.226   3.868   4.420 -0.1676  0.2299 -0.1312
   40MOL   O40122319   4.199   3.752   4.453  0.0185 -0.9319  0.1230
   40MOL   C40222320   4.316   3.906   4.307 -0.2615  0.2148 -0.2988
   40MOL   C40322321   4.350   4.043   4.289 -0.4947  0.7723  0.1593
   40MOL   C40422322   4.431   4.084   4.179  0.4056  0.4179 -0.0770
   40MOL   C40522323   4.464   3.988   4.077 -0.5079  0.7431  0.4078
   40MOL   C40622324   4.533   4.042   3.956 -0.4933  0.0231 -0.1132
   40MOL   O40722325   4.597   4.147   3.951  0.4904 -0.0793 -0.2991
   40MOL   C40822326   4.424   3.854   4.088  0.1661 -1.0249  0.0064
   40MOL   C40922327   4.350   3.817   4.200  0.2996 -0.9272 -0.7673
   40MOL   H41022328   3.850   4.035   4.869  0.7888  0.7519  0.7919
   40MOL   H41122329   3.752   3.959   4.742 -1.0517  0.4539 -1.2683
   40MOL   H41222330   4.001   4.143   4.683 -1.7319  1.6376 -0.0409
   40MOL   H41322331   3.910   4.051   4.570 -3.1522 -0.9491  1.5813
   40MOL   H41422332   4.021   3.867   4.768 -0.6602 -0.8006 -0.1538
   40MOL   H41522333   3.983   3.863   4.600  0.5383  0.5966 -1.4848
   40MOL   H41622334   4.214   4.049   4.685  0.1533  0.3944 -0.2718
   40MOL   H41722335   4.255   3.886   4.666 -0.1437 -1.7059 -2.4391
   40MOL   H41822336   4.304   4.123   4.345 -0.1049 -0.4710  2.3510
   40MOL   H41922337   4.452   4.189   4.172  1.0387  0.2749 -0.3629
   40MOL   H42022338   4.449   3.778   4.015  0.0276  1.1576 -2.4082
   40MOL   H42122339   4.325   3.712   4.210 -2.1338 -0.3113 -0.1780
   40MOL   O42222340   4.531   3.953   3.862 -0.7215 -0.1851 -0.3057
   40MOL   C42322341   4.611   3.988   3.747  0.5455  0.1017  0.3829
   40MOL   C42422342   4.566   3.900   3.631  0.1899 -0.4055 -0.3165
   40MOL   C42522343   4.652   3.909   3.510 -0.4235  0.4600  0.3943
   40MOL   C42622344   4.797   3.844   3.538  0.1811 -0.3561 -0.7028
   40MOL   O42722345   4.860   3.799   3.419 -0.0643 -0.6241  0.3226
   40MOL   C42822346   4.842   3.676   3.370 -0.1396  0.4229  0.4979
   40MOL   O42922347   4.792   3.583   3.439 -0.3101  0.7629 -0.0899
   40MOL   C43022348   4.889   3.668   3.232 -0.2675  0.5081 -0.0931
   40MOL   C43122349   4.927   3.783   3.155 -0.0537  0.2509  0.2539
   40MOL   C43222350   4.976   3.768   3.020  0.0163  1.0100  0.1801
   40MOL   C43322351   4.985   3.639   2.964  0.8820  0.9505  0.7355
   40MOL   C43422352   5.043   3.613   2.829 -0.1938  0.0064 -0.5235
   40MOL   O43522353   5.041   3.500   2.779  0.6954 -0.1540 -0.0149
   40MOL   C43622354   4.941   3.528   3.037  0.1052  0.2370 -0.9429
   40MOL   C43722355   4.892   3.541   3.171  0.3899  0.0659 -0.4889
   40MOL   H43822356   4.603   4.094   3.721 -2.0061  0.4728  2.3772
   40MOL   H43922357   4.717   3.966   3.753  0.9707  0.0199 -5.0795
   40MOL   H44022358   4.463   3.914   3.601  0.0943 -0.1603  0.1277
   40MOL   H44122359   4.576   3.795   3.660  1.4792 -0.2632 -0.2017
   40MOL   H44222360   4.593   3.863   3.431 -0.6919 -1.0801  1.4921
   40MOL   H44322361   4.661   4.014   3.482  0.2229  0.6082  1.1293
   40MOL   H44422362   4.863   3.907   3.598 -0.5250 -0.5753  0.3292
   40MOL   H44522363   4.779   3.756   3.600  0.8374  0.5917  0.8691
   40MOL   H44622364   4.910   3.883   3.194 -0.4872  0.0962  0.4518
   40MOL   H44722365   5.007   3.853   2.960 -1.9057  0.3785 -1.7511
   40MOL   H44822366   4.945   3.429   2.995  0.5046  0.0447 -0.4598
   40MOL   H44922367   4.841   3.458   3.217  0.6391  1.0470  1.6391
   40MOL   O45022368   5.105   3.725   2.772 -0.4984 -0.3254  0.1265
   40MOL   C45122369   5.191   3.706   2.659 -0.6558  0.0065  0.2330
   40MOL   C45222370   5.315   3.622   2.679 -0.2826 -0.0214  0.0864
   40MOL   C45322371   5.401   3.627   2.555 -0.4680  0.3460 -0.0285
   40MOL   C45422372   5.518   3.530   2.574 -0.0282 -0.2359  1.4130
   40MOL   O45522373   5.465   3.399   2.539 -0.2061 -0.6426  0.3212
   40MOL   C45622374   5.533   3.318   2.448  0.0880  0.0203 -0.3792
   40MOL   O45722375   5.648   3.342   2.412 -0.0279  0.3802  0.3380
   40MOL   C45822376   5.463   3.191   2.423  0.0833  0.1598  0.3360
   40MOL   C45922377   5.348   3.164   2.489 -0.5037  0.2000 -0.2198
   40MOL   C46022378   5.286   3.032   2.479 -0.0847 -0.0034 -1.1946
   40MOL   C46122379   5.337   2.930   2.396  0.0475  0.7698  0.2739
   40MOL   C46222380   5.286   2.788   2.390 -0.3870  0.1295 -0.3735
   40MOL   O46322381   5.351   2.698   2.337 -0.1479 -0.8009  0.0697
   40MOL   C46422382   5.454   2.964   2.325  0.3516  0.4298 -0.1391
   40MOL   C46522383   5.513   3.092   2.336 -0.0189 -0.7139 -0.1467
   40MOL   H46622384   5.128   3.659   2.584 -1.4148  0.7540  0.3846
   40MOL   H46722385   5.222   3.808   2.634 -0.6006 -0.3998 -1.3341
   40MOL   H46822386   5.299   3.519   2.712 -0.5105 -0.0082  0.0184
   40MOL   H46922387   5.367   3.665   2.765  0.3004 -2.8531  1.2315
   40MOL   H47022388   5.352   3.613   2.458 -0.9683  0.2157  0.2445
   40MOL   H47122389   5.435   3.731   2.554  1.8285 -0.3581  0.8284
   40MOL   H47222390   5.602   3.563   2.513  0.4175 -3.2446  0.3200
   40MOL   H47322391   5.545   3.535   2.680  1.6875  2.3553  0.8984
   40MOL   H47422392   5.301   3.242   2.547 -0.9585 -0.2698  0.0499
   40MOL   H47522393   5.199   3.016   2.540  1.8977  2.1545  2.3443
   40MOL   H47622394   5.496   2.894   2.254 -0.8399 -0.5193  0.0836
   40MOL   H47722395   5.599   3.132   2.284  0.2024  1.6287  1.9161
   40MOL   O47822396   5.157   2.775   2.427 -0.1061  0.0218 -0.0371
   40MOL   C47922397   5.110   2.643   2.466  0.4325  0.1006  0.8706
   40MOL   C48022398   4.956   2.634   2.502 -0.4642 -0.1844  0.1934
   40MOL   C48122399   4.932   2.702   2.638  1.0230  0.3108  0.1663
   40MOL   C48222400   4.919   2.850   2.618  0.4343  0.4306 -0.8171
   40MOL   O48322401   4.885   2.915   2.744  0.0646 -0.4131  0.3463
   40MOL   C48422402   4.865   3.058   2.751  0.2635  0.1446  0.8750
   40MOL   O48522403   4.885   3.130   2.656  0.0269  0.9009  0.1034
   40MOL   C48622404   4.814   3.110   2.881 -0.1054 -0.0873  0.0398
   40MOL   C48722405   4.791   3.025   3.000  0.1780 -0.1216  1.0203
   40MOL   C48822406   4.716   3.071   3.110 -0.3350 -0.1681  0.7038
   40MOL   C48922407   4.674   3.204   3.116  0.1840 -0.0527  0.1959
   40MOL   C49022408   4.599   3.254   3.236 -0.3917  0.1489 -0.6681
   40MOL   O49122409   4.543   3.369   3.230 -0.3789  0.2204 -0.4153
   40MOL   C49222410   4.689   3.285   2.994  0.2500  0.1007  0.6792
   40MOL   C49322411   4.761   3.244   2.881  0.1933 -0.1228 -0.0439
   40MOL   H49422412   5.140   2.575   2.386 -0.9882 -0.5759  0.8982
   40MOL   H49522413   5.169   2.603   2.548  0.7083 -0.8508  0.2128
   40MOL   H49622414   4.934   2.528   2.509  0.5419 -0.4181 -0.0607
   40MOL   H49722415   4.906   2.681   2.417 -0.7290 -0.7356  0.0414
   40MOL   H49822416   4.845   2.660   2.688  1.8054 -1.8806 -0.2547
   40MOL   H49922417   5.014   2.673   2.704  1.7587 -0.8352 -1.2189
   40MOL   H50022418   5.018   2.886   2.588  1.3501 -0.1614  1.3601
   40MOL   H50122419   4.855   2.883   2.537  0.1001  0.5716 -0.4974
   40MOL   H50222420   4.843   2.930   3.002  0.4259  0.0358  2.5218
   40MOL   H50322421   4.686   3.002   3.188 -0.3020 -0.3934  0.5184
   40MOL   H50422422   4.650   3.385   3.009 -0.1506  0.1760 -0.8425
   40MOL   H50522423   4.767   3.317   2.801 -0.6948  0.5783  0.5235
   40MOL   O50622424   4.620   3.182   3.346 -0.0601  0.2206 -0.0007
   40MOL   C50722425   4.564   3.249   3.462  0.2475  0.4224  0.5336
   40MOL   C50822426   4.422   3.196   3.491 -0.2698  0.1655 -0.1178
   40MOL   C50922427   4.399   3.049   3.511  0.0494  0.5947 -0.1000
   40MOL   C51022428   4.418   2.959   3.389  0.1867  0.1078  0.2765
   40MOL   O51122429   4.347   3.015   3.280  0.3021 -0.8691  0.0288
   40MOL   C51222430   4.360   2.947   3.163  0.2041 -0.0646 -0.2056
   40MOL   O51322431   4.395   2.831   3.165 -0.3266 -0.3101 -0.1099
   40MOL   C51422432   4.330   3.024   3.041  0.4984 -0.7093 -0.2285
   40MOL   C51522433   4.314   2.964   2.915 -0.1117  0.0603  0.0008
   40MOL   C51622434   4.276   3.040   2.803  0.0549  0.3103  0.1625
   40MOL   C51722435   4.246   3.173   2.825 -0.2713  0.3892  0.4563
   40MOL   C51822436   4.179   3.251   2.712 -0.1822 -0.8662  0.1174
   40MOL   O51922437   4.143   3.369   2.737  0.6122 -0.1060  0.2381
   40MOL   C52022438   4.264   3.236   2.950  0.0776  0.4834 -0.1214
   40MOL   C52122439   4.307   3.162   3.059 -0.3204  0.3701 -0.0053
   40MOL   H52222440   4.614   3.207   3.549  0.4984  1.7887  1.0589
   40MOL   H52322441   4.579   3.356   3.476  0.4716  0.0947  2.9717
   40MOL   H52422442   4.353   3.232   3.415 -1.1867 -0.3469  0.4791
   40MOL   H52522443   4.393   3.252   3.580 -0.4299  0.5370 -0.4006
   40MOL   H52622444   4.466   3.020   3.593 -1.4371 -1.6531  0.3630
   40MOL   H52722445   4.298   3.031   3.548  0.2259  0.6671  0.4262
   40MOL   H52822446   4.524   2.957   3.360  1.2240 -2.0452  3.9305
   40MOL   H52922447   4.385   2.857   3.411 -0.9909  0.9634  2.6389
   40MOL   H53022448   4.325   2.857   2.901  0.4070  0.0139  0.7708
   40MOL   H53122449   4.258   2.991   2.708  0.5780 -1.1786  0.8260
   40MOL   H53222450   4.254   3.343   2.960  1.4527  0.5100  1.1815
   40MOL   H53322451   4.326   3.213   3.152  0.9337 -2.5611  1.3833
   40MOL   O53422452   4.175   3.191   2.589  0.1741 -0.4751 -0.1819
   40MOL   C53522453   4.124   3.266   2.477  0.2390  0.0054 -0.3541
   40MOL   C53622454   4.123   3.165   2.363  0.4805 -0.2952  0.4396
   40MOL   C53722455   4.033   3.042   2.384 -0.1934 -0.5832 -0.3757
   40MOL   C53822456   4.113   2.915   2.388  0.5005  0.0192 -0.2106
   40MOL   O53922457   4.153   2.890   2.252 -0.2771 -0.2608  0.2903
   40MOL   C54022458   4.198   2.766   2.235  0.1951 -0.1418 -0.1158
   40MOL   O54122459   4.179   2.673   2.318 -0.3055  0.3985  0.1268
   40MOL   C54222460   4.278   2.754   2.112  0.1545  0.1165 -0.0813
   40MOL   C54322461   4.376   2.661   2.107 -0.1159 -0.0000 -0.4021
   40MOL   C54422462   4.463   2.647   1.994 -0.0945  0.2949 -0.3160
   40MOL   C54522463   4.426   2.723   1.877 -0.3559  0.8399 -0.3604
   40MOL   C54622464   4.510   2.703   1.753  0.0478  0.6057 -0.4943
   40MOL   O54722465   4.609   2.626   1.744  0.7094 -0.1656  0.0057
   40MOL   C54822466   4.319   2.810   1.879 -0.4599 -0.1278 -0.8701
   40MOL   C54922467   4.243   2.833   1.998 -0.0805 -0.2528  0.3495
   40MOL   H55022468   4.024   3.300   2.503  0.4035  0.8437 -0.8120
   40MOL   H55122469   4.182   3.355   2.452  1.2680 -0.5658 -0.0468
   40MOL   H55222470   4.222   3.124   2.343  0.3718  0.5248 -1.9451
   40MOL   H55322471   4.090   3.211   2.270  2.3611  2.3521  1.0400
   40MOL   H55422472   3.977   3.046   2.478  0.9862 -0.2196  0.3116
   40MOL   H55522473   3.968   3.048   2.297 -1.4037  0.3314  0.5766
   40MOL   H55622474   4.202   2.919   2.451 -0.9334 -0.5111  1.8853
   40MOL   H55722475   4.039   2.842   2.421 -2.5884  2.1213 -2.2544
   40MOL   H55822476   4.399   2.601   2.194 -0.5000 -0.6778 -0.7661
   40MOL   H55922477   4.540   2.571   1.998 -2.2955 -1.9354  0.6834
   40MOL   H56022478   4.305   2.877   1.797  1.6392  0.1670 -1.0053
   40MOL   H56122479   4.158   2.899   1.999  0.4315  0.4442 -1.2882
   40MOL   H56222480   4.473   2.765   1.671 -1.0695  0.4771 -0.0998
   41MOL     O122481   1.703   3.488   5.750  0.2221  0.1829  0.6509
   41MOL     C222482   1.816   3.404   5.762  0.3715 -0.5235  0.1682
   41MOL     C322483   1.862   3.392   5.907  0.3302 -0.1285  0.1180
   41MOL     C422484   2.013   3.361   5.913  0.0977 -0.3627 -0.3148
   41MOL     C522485   2.111   3.455   5.849  0.2300  0.6801 -0.2405
   41MOL     O622486   2.235   3.396   5.860  0.2152 -0.0452 -0.5822
   41MOL     C722487   2.338   3.439   5.785 -0.5379 -0.6118  0.7417
   41MOL     O822488   2.323   3.524   5.696 -0.0313  0.5321 -0.1432
   41MOL     C922489   2.473   3.386   5.828  0.4529 -0.3644  0.0331
   41MOL    C1022490   2.595   3.402   5.753  1.1355 -0.7110 -0.0510
   41MOL    C1122491   2.705   3.325   5.789 -0.3396  0.4647  0.3098
   41MOL    C1222492   2.710   3.243   5.898  0.4913  0.3371  0.0751
   41MOL    C1322493   2.839   3.175   5.929  0.0934  0.4020  0.2082
   41MOL    O1422494   2.846   3.095   6.020 -0.3195  0.1725  0.3435
   41MOL    C1522495   2.593   3.223   5.969  0.4172  0.2864 -0.0185
   41MOL    C1622496   2.476   3.294   5.933  0.1675 -0.0608 -0.1234
   41MOL    H1722497   1.791   3.311   5.713  1.4136 -0.6306 -0.1730
   41MOL    H1822498   1.892   3.432   5.689  1.3314 -3.4658 -0.0098
   41MOL    H1922499   1.796   3.330   5.968  1.6160 -1.5861  0.0609
   41MOL    H2022500   1.847   3.486   5.960  0.2420  0.4907 -1.0126
   41MOL    H2122501   2.043   3.339   6.015  1.3641 -0.5709 -0.7147
   41MOL    H2222502   2.018   3.262   5.867  0.4535 -1.1885  1.4850
   41MOL    H2322503   2.082   3.465   5.745 -2.1155  0.5060  0.3575
   41MOL    H2422504   2.104   3.559   5.880  0.2005  1.0842 -1.5842
   41MOL    H2522505   2.606   3.473   5.672  0.5482 -1.9142 -1.2256
   41MOL    H2622506   2.793   3.346   5.729  0.1197 -0.1153  0.7702
   41MOL    H2722507   2.603   3.156   6.054  2.8250  0.0124 -0.4846
   41MOL    H2822508   2.385   3.273   5.987  1.0252 -0.9475  1.0082
   41MOL    H2922509   1.629   3.431   5.757 -0.4565  0.7268 -1.6807
   41MOL    O3022510   2.951   3.210   5.852  0.2075 -0.4935 -0.3875
   41MOL    C3122511   3.070   3.151   5.891 -0.0766 -0.5560  0.1031
   41MOL    C3222512   3.169   3.154   5.779  0.0312 -0.1012 -0.7671
   41MOL    C3322513   3.153   3.043   5.670 -0.4529  0.1676  0.3381
   41MOL    C3422514   3.266   3.043   5.572 -0.0512 -0.3936 -0.2194
   41MOL    O3522515   3.240   3.146   5.473 -0.2989  0.4197 -1.0051
   41MOL    C3622516   3.325   3.165   5.369  0.2359 -0.0548 -0.5329
   41MOL    O3722517   3.413   3.088   5.345  0.0970 -0.2402  0.3836
   41MOL    C3822518   3.288   3.277   5.280  0.4292 -0.1759 -0.2770
   41MOL    C3922519   3.164   3.343   5.291  0.4320 -0.2181 -0.6722
   41MOL    C4022520   3.136   3.443   5.193 -0.3454 -0.4692  0.2476
   41MOL    C4122521   3.222   3.488   5.091 -0.6232 -0.6953  0.0238
   41MOL    C4222522   3.182   3.600   4.998  0.5283  0.0079 -0.8016
   41MOL    O4322523   3.257   3.642   4.911 -0.2385 -0.9771 -0.3282
   41MOL    C4422524   3.341   3.422   5.089 -0.0429  0.2970 -0.5921
   41MOL    C4522525   3.377   3.319   5.179 -0.0628  0.7701 -0.1059
   41MOL    H4622526   3.103   3.218   5.971  1.5177 -0.8116 -0.3291
   41MOL    H4722527   3.061   3.051   5.932 -0.0835 -0.1951  0.9977
   41MOL    H4822528   3.269   3.138   5.818 -0.5505  0.3830  0.9472
   41MOL    H4922529   3.174   3.255   5.737  0.2037  0.3244  0.2787
   41MOL    H5022530   3.154   2.944   5.715  0.6937  1.1751  2.5890
   41MOL    H5122531   3.060   3.058   5.615 -0.6400  0.5174  0.7509
   41MOL    H5222532   3.355   3.082   5.622 -1.0653  2.4757 -0.5298
   41MOL    H5322533   3.274   2.947   5.522 -0.5730 -0.7762  0.4311
   41MOL    H5422534   3.086   3.312   5.358  0.7431 -0.7948 -0.5686
   41MOL    H5522535   3.040   3.490   5.209 -0.2956 -0.1377 -0.4161
   41MOL    H5622536   3.425   3.449   5.027  1.7990 -1.0865  1.2489
   41MOL    H5722537   3.465   3.259   5.164 -0.3509  0.0780  0.9310
   41MOL    O5822538   3.053   3.634   5.013  0.4523 -0.4057 -0.7587
   41MOL    C5922539   3.011   3.733   4.925  0.9792 -0.1661  0.2733
   41MOL    C6022540   2.862   3.766   4.956  0.8228 -0.5501 -0.7422
   41MOL    C6122541   2.757   3.659   4.937 -0.2533 -0.7274  1.7388
   41MOL    C6222542   2.763   3.605   4.796 -0.1688 -0.1678  0.8295
   41MOL    O6322543   2.724   3.712   4.698 -0.1125  0.1071  0.8246
   41MOL    C6422544   2.760   3.681   4.571  0.5326 -0.1125 -0.3791
   41MOL    O6522545   2.799   3.568   4.542  0.3931 -1.1077  0.3813
   41MOL    C6622546   2.731   3.790   4.476  0.0643  0.3173 -0.8917
   41MOL    C6722547   2.681   3.915   4.522 -0.7827  0.0294 -0.3151
   41MOL    C6822548   2.663   4.020   4.431  0.3432  0.3496 -0.4949
   41MOL    C6922549   2.697   4.005   4.297 -0.0506 -0.3561  0.3155
   41MOL    C7022550   2.675   4.123   4.201  0.0486 -0.3151 -0.0787
   41MOL    O7122551   2.701   4.109   4.082 -0.2747 -0.0660 -0.1702
   41MOL    C7222552   2.752   3.888   4.252 -0.1698 -0.3394  0.6788
   41MOL    C7322553   2.769   3.784   4.340 -0.0685 -0.0344  0.4059
   41MOL    H7422554   3.066   3.827   4.926  2.4592 -0.9576 -2.2642
   41MOL    H7522555   3.020   3.701   4.822  0.6688  0.6843 -0.0211
   41MOL    H7622556   2.839   3.847   4.887  1.2451 -0.3324 -0.6262
   41MOL    H7722557   2.866   3.821   5.050 -2.6456 -2.3061  0.5046
   41MOL    H7822558   2.781   3.587   5.015 -0.0304 -1.2723  1.1674
   41MOL    H7922559   2.653   3.684   4.958 -0.5734 -0.6036  0.0997
   41MOL    H8022560   2.862   3.568   4.768 -2.0602 -3.6373 -1.7014
   41MOL    H8122561   2.684   3.532   4.779  0.4694 -0.3288 -1.6744
   41MOL    H8222562   2.654   3.933   4.625 -1.3995  0.5598 -0.5645
   41MOL    H8322563   2.624   4.109   4.479 -0.0369 -1.2594  2.2990
   41MOL    H8422564   2.783   3.880   4.148  0.7675 -0.6557  0.9801
   41MOL    H8522565   2.796   3.690   4.293  2.2438 -0.4048  2.3332
   41MOL    O8622566   2.634   4.241   4.261  0.0775  0.1314 -0.2716
   41MOL    C8722567   2.595   4.350   4.182 -0.6201 -0.3634  0.6910
   41MOL    C8822568   2.605   4.469   4.275  1.0490 -0.5089  0.3979
   41MOL    C8922569   2.543   4.593   4.207 -0.0527  0.1751 -0.5930
   41MOL    C9022570   2.509   4.712   4.301  0.2877 -0.6225 -0.2423
   41MOL    O9122571   2.404   4.676   4.389 -0.1766  0.5341  0.4477
   41MOL    C9222572   2.337   4.780   4.453  0.3548 -0.0611  0.7451
   41MOL    O9322573   2.372   4.896   4.443  0.3258 -0.2369 -0.5332
   41MOL    C9422574   2.232   4.736   4.549 -0.1207  0.5293 -0.0727
   41MOL    C9522575   2.186   4.823   4.658  0.8621  0.4440 -0.0804
   41MOL    C9622576   2.100   4.770   4.754  0.3292 -0.0563  0.8856
   41MOL    C9722577   2.060   4.633   4.747 -0.8545 -0.3059  0.7980
   41MOL    C9822578   1.959   4.590   4.848 -0.3712  0.4773  0.1855
   41MOL    O9922579   1.871   4.503   4.814  0.1736  0.0406 -0.1007
   41MOL   C10022580   2.086   4.560   4.634 -0.4561  0.3674  0.1728
   41MOL   C10122581   2.168   4.608   4.534  0.7308 -0.4848  0.0534
   41MOL   H10222582   2.666   4.373   4.103 -0.1844 -0.8012  0.9571
   41MOL   H10322583   2.497   4.335   4.136  1.1760 -0.2258 -3.3349
   41MOL   H10422584   2.709   4.494   4.295  1.3728 -0.8295 -0.7860
   41MOL   H10522585   2.553   4.432   4.363  0.3830 -1.2276 -0.2791
   41MOL   H10622586   2.599   4.627   4.120  2.6680  0.6889  1.3182
   41MOL   H10722587   2.451   4.558   4.159  1.4356 -0.1475 -3.2868
   41MOL   H10822588   2.594   4.756   4.355  0.1206  1.2475 -1.4625
   41MOL   H10922589   2.475   4.787   4.230 -0.9102 -0.4899  0.4590
   41MOL   H11022590   2.229   4.920   4.674  0.7691  0.7070 -1.4383
   41MOL   H11122591   2.069   4.830   4.837  3.6240  2.4325  0.4345
   41MOL   H11222592   2.041   4.463   4.617  0.9151 -0.2884  0.2222
   41MOL   H11322593   2.190   4.538   4.455 -1.4812 -0.8156 -0.2992
   41MOL   O11422594   1.978   4.646   4.970  0.6893 -0.1558  0.0267
   41MOL   C11522595   1.913   4.583   5.080  0.3477 -0.2097 -0.4650
   41MOL   C11622596   1.783   4.655   5.126  0.1532 -0.7022 -0.1867
   41MOL   C11722597   1.670   4.668   5.017 -0.7736  0.0201 -0.0177
   41MOL   C11822598   1.568   4.773   5.066 -0.2613 -0.5144  0.3870
   41MOL   O11922599   1.478   4.806   4.962  1.2246  0.2342 -0.8629
   41MOL   C12022600   1.342   4.823   4.990  0.1957  0.2774  0.3472
   41MOL   O12122601   1.300   4.833   5.109  0.2658 -0.5397 -0.1761
   41MOL   C12222602   1.251   4.812   4.869  0.0448  0.4128  0.4647
   41MOL   C12322603   1.113   4.816   4.897  0.3651  0.9507 -0.2519
   41MOL   C12422604   1.023   4.816   4.797  0.0881  0.3237  0.4073
   41MOL   C12522605   1.065   4.820   4.659 -0.7246 -0.2003  0.1748
   41MOL   C12622606   0.964   4.826   4.549  0.0150  0.8855  0.0780
   41MOL   O12722607   0.840   4.805   4.567 -0.3715 -0.5076 -0.2732
   41MOL   C12822608   1.203   4.824   4.628  0.3613  0.1006  0.2645
   41MOL   C12922609   1.294   4.810   4.733  0.6038 -0.3031 -0.7983
   41MOL   H13022610   1.878   4.483   5.053 -0.6039 -0.2264  0.7659
   41MOL   H13122611   1.973   4.569   5.170 -0.0321  2.2976  0.2205
   41MOL   H13222612   1.812   4.758   5.147 -0.6380 -0.9232  2.1048
   41MOL   H13322613   1.737   4.615   5.216  0.7853  2.4952  1.6566
   41MOL   H13422614   1.709   4.686   4.916  1.3158 -2.7491  0.2153
   41MOL   H13522615   1.606   4.580   5.005 -1.4771  0.5434 -0.0809
   41MOL   H13622616   1.515   4.718   5.144  0.1820 -2.4382 -0.6462
   41MOL   H13722617   1.624   4.857   5.108  0.9736 -0.2531 -1.7356
   41MOL   H13822618   1.076   4.816   4.999 -1.3349 -0.6307 -0.8205
   41MOL   H13922619   0.917   4.822   4.816 -0.2154 -1.5363 -0.6092
   41MOL   H14022620   1.250   4.841   4.532  0.4975 -1.3864  0.0544
   41MOL   H14122621   1.399   4.816   4.708  0.8675  0.1722  0.3876
   41MOL   O14222622   1.021   4.851   4.428  0.8550  0.1821 -0.3994
   41MOL   C14322623   0.944   4.880   4.315  0.3334 -0.8608 -0.3921
   41MOL   C14422624   0.886   4.764   4.238 -0.7135 -0.8249 -0.6085
   41MOL   C14522625   0.987   4.695   4.144 -0.4770  0.5552  0.4338
   41MOL   C14622626   0.945   4.564   4.080  0.8334  0.7376 -0.0989
   41MOL   O14722627   0.831   4.579   3.986 -0.2046 -0.5427 -0.3632
   41MOL   C14822628   0.855   4.602   3.862  0.5900  0.3136  0.0629
   41MOL   O14922629   0.969   4.596   3.813 -0.3376 -0.3221  0.6930
   41MOL   C15022630   0.732   4.643   3.785  0.6401 -0.2932  0.3142
   41MOL   C15122631   0.608   4.676   3.844 -0.7181 -0.1914 -0.3171
   41MOL   C15222632   0.495   4.701   3.764 -0.2040 -0.4375  0.2185
   41MOL   C15322633   0.507   4.718   3.626  0.0606 -0.3303 -1.0444
   41MOL   C15422634   0.390   4.748   3.540  0.7305  0.6040 -0.2116
   41MOL   O15522635   0.401   4.780   3.426  0.1118  0.2958  0.4079
   41MOL   C15622636   0.633   4.700   3.571 -1.0082 -0.3521  0.4499
   41MOL   C15722637   0.747   4.670   3.648 -0.0203  0.1276 -0.8220
   41MOL   H15822638   0.858   4.940   4.345  0.2446 -1.9611  1.6104
   41MOL   H15922639   1.008   4.940   4.251  0.8037 -1.7858 -0.7991
   41MOL   H16022640   0.802   4.809   4.183 -1.6128 -2.9880 -1.0406
   41MOL   H16122641   0.838   4.687   4.297 -0.7737 -0.0030  0.4324
   41MOL   H16222642   1.037   4.762   4.074  1.6123 -1.0191  0.3431
   41MOL   H16322643   1.066   4.661   4.212  0.7929 -0.2353 -1.3841
   41MOL   H16422644   1.027   4.517   4.025  0.8112  0.1867  0.3432
   41MOL   H16522645   0.924   4.491   4.157 -1.4186 -0.2795 -1.6303
   41MOL   H16622646   0.593   4.662   3.950  0.0395  2.7822  0.2062
   41MOL   H16722647   0.401   4.722   3.814 -0.7188  0.6096 -1.1585
   41MOL   H16822648   0.654   4.721   3.467  2.5226 -0.7307  1.0283
   41MOL   H16922649   0.838   4.659   3.591 -0.1480 -0.9385 -0.8273
   41MOL   O17022650   0.274   4.731   3.610  0.0957 -0.0271  0.1699
   41MOL   C17122651   0.145   4.752   3.557 -0.2544  0.1557  0.3290
   41MOL   C17222652   0.101   4.887   3.609  0.4476  0.1556 -0.1282
   41MOL   C17322653   0.105   4.902   3.761 -0.4070  0.6942 -0.3843
   41MOL   C17422654   0.221   4.966   3.830 -0.1396  0.4518 -0.0788
   41MOL   O17522655   0.191   4.989   3.965  0.0621 -0.6227 -0.4340
   41MOL   C17622656   0.192   5.112   4.016  0.6239 -0.1233 -0.7621
   41MOL   O17722657   0.211   5.211   3.949  0.8289  0.5118  0.2085
   41MOL   C17822658   0.144   5.114   4.155 -0.1198 -0.8307 -0.3731
   41MOL   C17922659   0.140   5.236   4.230  0.2805 -0.1557  0.4598
   41MOL   C18022660   0.071   5.254   4.350  0.3405 -0.6756 -0.4896
   41MOL   C18122661   0.002   5.137   4.406 -0.1259 -0.2461 -0.0059
   41MOL   C18222662   8.017   5.158   4.525 -0.0854 -0.2446  0.0626
   41MOL   O18322663   7.940   5.079   4.577 -0.4218  0.6412  0.1214
   41MOL   C18422664   0.023   5.012   4.344  0.0623  0.0177  0.2709
   41MOL   C18522665   0.094   5.003   4.222 -0.3364 -0.2289 -0.4191
   41MOL   H18622666   0.149   4.748   3.448  0.2502  2.0056  0.2538
   41MOL   H18722667   0.078   4.681   3.604  0.8553  1.6958  4.4084
   41MOL   H18822668   8.097   4.897   3.575  0.4664 -0.5024 -0.4036
   41MOL   H18922669   0.149   4.970   3.558 -1.1873  0.1791 -1.6637
   41MOL   H19022670   0.030   4.978   3.781 -1.1988 -0.7501  2.4136
   41MOL   H19122671   0.078   4.812   3.817  0.8622 -0.8570 -2.1835
   41MOL   H19222672   0.302   4.894   3.841 -1.0717 -0.6470 -0.3494
   41MOL   H19322673   0.253   5.060   3.784 -1.0131  1.4797  1.3571
   41MOL   H19422674   0.177   5.327   4.185  0.7069 -0.6165 -0.1244
   41MOL   H19522675   0.070   5.351   4.398  2.8443 -0.7348 -0.2580
   41MOL   H19622676   8.083   4.921   4.388  0.0144 -1.9436 -3.6006
   41MOL   H19722677   0.099   4.905   4.176 -1.4585 -0.2503 -0.4919
   41MOL   O19822678   8.042   5.275   4.573  0.3511 -0.1831  0.8947
   41MOL   C19922679   7.984   5.323   4.688  1.0478 -0.7312  0.3374
   41MOL   C20022680   7.837   5.361   4.680 -0.0040 -0.5761 -0.0678
   41MOL   C20122681   7.786   5.442   4.809 -0.2240  0.2558 -0.1449
   41MOL   C20222682   7.723   5.359   4.916  0.3078 -0.3219 -1.0829
   41MOL   O20322683   7.820   5.269   4.957  0.0199 -0.0365  0.1171
   41MOL   C20422684   7.806   5.218   5.081 -1.1692 -0.2763 -0.4832
   41MOL   O20522685   7.720   5.257   5.163  0.1349  0.4630  0.0944
   41MOL   C20622686   7.915   5.120   5.122  0.3005 -1.0093 -0.5179
   41MOL   C20722687   8.038   5.101   5.054  0.1195 -0.2516  0.9511
   41MOL   C20822688   0.033   5.001   5.093  0.1336 -0.3820 -1.3042
   41MOL   C20922689   8.096   4.915   5.198  0.0800 -0.1210  0.3239
   41MOL   C21022690   0.089   4.816   5.258  0.4014 -0.2259 -0.4480
   41MOL   O21122691   0.069   4.770   5.373 -0.8338  0.4145  0.1341
   41MOL   C21222692   7.972   4.923   5.263  0.2046 -0.1362 -0.6517
   41MOL   C21322693   7.883   5.031   5.226 -0.6943 -0.3682 -0.3291
   41MOL   H21422694   7.999   5.250   4.768 -2.0896 -2.1387 -0.2633
   41MOL   H21522695   8.031   5.418   4.711 -0.6834 -0.1442  1.5444
   41MOL   H21622696   7.790   5.264   4.664  0.2268 -0.5980 -0.6332
   41MOL   H21722697   7.835   5.418   4.586 -0.8061 -1.7623 -0.7764
   41MOL   H21822698   7.867   5.495   4.860  2.1209 -0.7668 -2.6419
   41MOL   H21922699   7.721   5.517   4.764  1.1106  2.4205  1.4100
   41MOL   H22022700   7.690   5.427   4.995  0.2060 -0.5327 -0.9398
   41MOL   H22122701   7.629   5.310   4.889 -1.2168  0.9060  1.6940
   41MOL   H22222702   8.057   5.164   4.969  1.0074 -0.4690  0.9755
   41MOL   H22322703   0.125   4.986   5.037 -0.5498  0.6160 -2.7201
   41MOL   H22422704   7.951   4.872   5.356 -1.3049 -0.0105 -0.9137
   41MOL   H22522705   7.785   5.042   5.270  0.2905  0.9038  1.6032
   41MOL   O22622706   0.193   4.786   5.185 -0.3346  0.4579 -0.1267
   41MOL   C22722707   0.301   4.715   5.250  0.0806 -0.2552  0.5177
   41MOL   C22822708   0.424   4.714   5.161 -0.1584  0.1197 -0.0697
   41MOL   C22922709   0.470   4.853   5.125  0.9883  0.1038  0.0794
   41MOL   C23022710   0.514   4.937   5.245 -0.4115 -0.2650  0.2564
   41MOL   O23122711   0.487   5.074   5.216  0.4012  0.2237 -0.0491
   41MOL   C23222712   0.363   5.129   5.247 -0.2689 -0.7883  0.4355
   41MOL   O23322713   0.279   5.065   5.310 -0.7950  0.0494  0.3486
   41MOL   C23422714   0.343   5.255   5.178 -0.6114 -0.2490  0.1135
   41MOL   C23522715   0.212   5.301   5.157  0.0959  0.3008 -0.1003
   41MOL   C23622716   0.193   5.422   5.082  0.4131 -0.1075  0.9085
   41MOL   C23722717   0.296   5.506   5.038 -0.0486 -1.1018  0.3287
   41MOL   C23822718   0.266   5.635   4.971 -0.5912 -0.4826  0.2837
   41MOL   O23922719   0.348   5.722   4.936 -0.4368  0.1367  0.0062
   41MOL   C24022720   0.428   5.468   5.071 -0.3333  0.3289 -0.2195
   41MOL   C24122721   0.449   5.342   5.137  0.2566 -0.3755 -0.5149
   41MOL   H24222722   0.320   4.755   5.349 -2.3099  0.0239  0.9014
   41MOL   H24322723   0.271   4.610   5.258 -1.5733  0.0842 -0.7742
   41MOL   H24422724   0.407   4.660   5.068 -0.5849 -1.4025  0.8648
   41MOL   H24522725   0.499   4.653   5.213 -1.6408 -0.7647  1.0658
   41MOL   H24622726   0.539   4.847   5.041  0.2902  4.1008 -0.8583
   41MOL   H24722727   0.381   4.903   5.087  1.4413 -0.2785 -1.5381
   41MOL   H24822728   0.455   4.916   5.335 -0.4414 -2.9405 -0.3463
   41MOL   H24922729   0.620   4.925   5.267  0.1353  2.8212 -0.4400
   41MOL   H25022730   0.132   5.243   5.200 -0.8817  0.4755 -1.6527
   41MOL   H25122731   0.092   5.452   5.057  1.1764  1.7467  0.0129
   41MOL   H25222732   0.514   5.528   5.044  1.2083 -1.2063  1.0951
   41MOL   H25322733   0.552   5.314   5.155  0.1041 -0.2309  0.6654
   41MOL   O25422734   0.136   5.658   4.961  0.1288 -0.2100  0.1880
   41MOL   C25522735   0.073   5.785   4.927 -0.1981  0.0230 -0.1967
   41MOL   C25622736   8.052   5.764   4.833  0.3619 -0.0799 -0.2143
   41MOL   C25722737   8.090   5.739   4.689  1.1033 -0.5519  0.1606
   41MOL   C25822738   7.983   5.760   4.572  0.3316  0.0443 -0.4878
   41MOL   O25922739   8.060   5.734   4.458 -0.2354  0.2899 -0.0891
   41MOL   C26022740   8.011   5.646   4.370  0.3049 -0.4086 -0.0339
   41MOL   O26122741   7.907   5.583   4.379 -0.4928  0.0330 -0.0106
   41MOL   C26222742   0.001   5.635   4.258 -0.2660  0.7892 -0.3220
   41MOL   C26322743   8.059   5.559   4.145  0.2152 -0.0188  0.0717
   41MOL   C26422744   0.039   5.538   4.032 -0.9179 -0.5847  0.2266
   41MOL   C26522745   0.176   5.582   4.036  0.1973  1.1709 -0.2465
   41MOL   C26622746   0.270   5.550   3.922  0.3791 -0.3745  0.8705
   41MOL   O26722747   0.383   5.594   3.922  0.3522 -0.4933  0.1092
   41MOL   C26822748   0.218   5.662   4.144  0.1057 -0.2539 -0.1523
   41MOL   C26922749   0.135   5.682   4.258  0.1952  0.6819 -0.3447
   41MOL   H27022750   0.035   5.832   5.018 -0.3953 -1.2549  0.3940
   41MOL   H27122751   0.146   5.854   4.885 -0.2052 -0.1323 -0.4641
   41MOL   H27222752   8.000   5.859   4.838  2.0826  0.9052 -0.3932
   41MOL   H27322753   7.980   5.691   4.870  0.0736 -0.1732 -0.9691
   41MOL   H27422754   0.074   5.809   4.679  1.7464 -1.2768  0.3982
   41MOL   H27522755   0.048   5.648   4.668  2.7908  0.1319  1.6732
   41MOL   H27622756   7.898   5.692   4.580  0.2134  0.3876  1.5728
   41MOL   H27722757   7.936   5.859   4.569 -1.7937 -0.9707 -2.3323
   41MOL   H27822758   7.960   5.518   4.138  0.7499 -1.7581  2.0487
   41MOL   H27922759   0.008   5.475   3.950  1.6969  0.1643 -1.3858
   41MOL   H28022760   0.318   5.703   4.140 -0.5401  1.3385 -0.2148
   41MOL   H28122761   0.164   5.754   4.332 -1.0811  1.9118 -1.0138
   41MOL   O28222762   0.209   5.482   3.827 -0.2353  0.0725  0.1706
   41MOL   C28322763   0.259   5.457   3.696 -0.0752 -0.4196 -0.2378
   41MOL   C28422764   0.135   5.411   3.615  0.4833 -0.3898  0.2599
   41MOL   C28522765   0.066   5.292   3.666 -0.2847 -0.6886 -0.0527
   41MOL   C28622766   8.041   5.252   3.573 -0.0712  1.0466 -0.4272
   41MOL   O28722767   0.008   5.190   3.464  0.3325  0.5023  0.1663
   41MOL   C28822768   8.034   5.127   3.371 -0.0558  0.6995 -0.0517
   41MOL   O28922769   7.912   5.146   3.359 -0.7510 -0.1529 -0.2659
   41MOL   C29022770   0.016   5.052   3.268 -0.0839  0.0273  0.3305
   41MOL   C29122771   8.055   4.991   3.154 -0.2769  0.0829 -0.0422
   41MOL   C29222772   0.031   4.920   3.061  0.1398 -0.4365  0.2940
   41MOL   C29322773   0.177   4.910   3.074  0.2745  0.1761  0.7002
   41MOL   C29422774   0.265   4.848   2.970  0.1569 -0.2503  0.6858
   41MOL   O29522775   0.383   4.841   2.977  0.3590 -0.1795  0.3527
   41MOL   C29622776   0.234   4.978   3.179 -0.6777 -0.4074  0.2786
   41MOL   C29722777   0.156   5.053   3.272  0.3283 -0.4999 -0.3638
   41MOL   H29822778   0.308   5.548   3.662 -3.4514  1.7560  0.5669
   41MOL   H29922779   0.333   5.377   3.700  0.8675  0.5205  1.5892
   41MOL   H30022780   0.164   5.397   3.511 -3.4232  0.9400 -1.0947
   41MOL   H30122781   0.061   5.491   3.622  1.9527  1.1215 -0.9674
   41MOL   H30222782   0.138   5.213   3.689  0.7538  1.3529  4.2533
   41MOL   H30322783   0.024   5.313   3.764 -1.4646  2.2197 -1.1291
   41MOL   H30422784   7.980   5.183   3.631  0.4860  1.2980  0.4696
   41MOL   H30522785   7.975   5.333   3.542 -0.3823  1.2321  0.6856
   41MOL   H30622786   7.948   5.006   3.152 -0.3996 -0.8104 -0.4523
   41MOL   H30722787   8.072   4.873   2.982  0.5713  0.5505 -0.6186
   41MOL   H30822788   0.341   4.990   3.185 -0.5733 -0.7052 -1.0081
   41MOL   H30922789   0.211   5.107   3.348 -2.0529 -1.3744  2.0626
   41MOL   O31022790   0.197   4.802   2.865  0.5609  0.2955 -0.3435
   41MOL   C31122791   0.261   4.740   2.749  0.5148  0.0508  0.2432
   41MOL   C31222792   0.145   4.706   2.658 -0.1948  0.4869 -0.0861
   41MOL   C31322793   0.046   4.601   2.715  0.3368  0.1717  0.0222
   41MOL   C31422794   8.024   4.567   2.614 -0.5284  0.3472 -0.0592
   41MOL   O31522795   8.069   4.519   2.490 -0.0100  0.4010  0.4216
   41MOL   C31622796   7.973   4.514   2.391 -0.0677  0.6477 -0.0053
   41MOL   O31722797   7.854   4.516   2.413 -0.6132  0.3538  0.0144
   41MOL   C31822798   8.030   4.506   2.252 -0.1502 -0.3158 -0.2868
   41MOL   C31922799   0.057   4.564   2.223 -0.0854 -0.0342 -0.2907
   41MOL   C32022800   0.101   4.559   2.091 -0.2480  0.7509 -0.2401
   41MOL   C32122801   0.031   4.491   1.991 -0.0793  0.2369 -0.1033
   41MOL   C32222802   0.098   4.486   1.857  0.8689  0.3596  0.3392
   41MOL   O32322803   0.217   4.512   1.826 -0.1117  0.2469  0.5087
   41MOL   C32422804   7.999   4.433   2.018  0.2361 -0.5320 -0.2506
   41MOL   C32522805   7.945   4.444   2.147 -0.2939  0.6510  0.3562
   41MOL   H32622806   0.325   4.823   2.718 -1.9044  2.0172  0.3372
   41MOL   H32722807   0.319   4.655   2.785 -0.2755 -1.1486 -1.2422
   41MOL   H32822808   0.186   4.670   2.563 -1.5732 -0.7965 -0.2221
   41MOL   H32922809   0.094   4.799   2.633 -1.6769 -0.0818  0.7389
   41MOL   H33022810   0.106   4.514   2.739 -0.2783  0.5757  3.2184
   41MOL   H33122811   0.002   4.642   2.806  2.2337  1.2649  0.4633
   41MOL   H33222812   7.956   4.488   2.646 -0.9496  1.6075  2.2626
   41MOL   H33322813   7.970   4.661   2.601 -0.5240  0.5022  1.0237
   41MOL   H33422814   0.115   4.610   2.302  1.1626  0.8480 -1.6996
   41MOL   H33522815   0.196   4.601   2.060 -0.6816  1.2059 -0.9698
   41MOL   H33622816   7.947   4.378   1.942 -0.8824  0.1785  0.0040
   41MOL   H33722817   7.848   4.405   2.172  0.4896 -2.1740 -0.7452
   41MOL   O33822818   0.005   4.455   1.771  0.1591  0.3831  0.5590
   41MOL   C33922819   0.047   4.416   1.640 -0.1971 -0.3253 -0.0566
   41MOL   C34022820   8.023   4.346   1.570 -0.3268 -0.3298 -0.4067
   41MOL   C34122821   7.905   4.445   1.539 -0.3345 -0.1798 -0.3102
   41MOL   C34222822   7.785   4.380   1.485 -0.1560 -0.2604 -0.8710
   41MOL   O34322823   7.739   4.292   1.590  0.3993 -1.2095  0.1096
   41MOL   C34422824   7.618   4.236   1.587  0.4821 -0.5043  0.3526
   41MOL   O34522825   7.534   4.270   1.506 -0.9087  0.4100  0.0272
   41MOL   C34622826   7.583   4.159   1.707 -0.6590 -0.2072 -1.1358
   41MOL   C34722827   7.662   4.157   1.825 -0.2076 -0.3551 -0.1036
   41MOL   C34822828   7.640   4.067   1.935 -0.0448 -0.3373 -0.3153
   41MOL   C34922829   7.524   3.984   1.937 -0.0119  0.3059  0.4928
   41MOL   C35022830   7.495   3.892   2.050 -0.1353  1.0048  0.4420
   41MOL   O35122831   7.385   3.838   2.057 -0.1001  0.2189  0.1043
   41MOL   C35222832   7.433   3.999   1.827  0.1551 -0.3135  0.3237
   41MOL   C35322833   7.463   4.083   1.712 -0.4333  0.1693  0.4293
   41MOL   H35422834   0.083   4.496   1.575 -1.0398  0.3543  0.3069
   41MOL   H35522835   0.132   4.349   1.656 -1.0721 -0.9484  2.2746
   41MOL   H35622836   7.982   4.266   1.631 -1.2850  0.2731 -0.2494
   41MOL   H35722837   8.051   4.307   1.472 -0.0299 -0.1456 -0.3968
   41MOL   H35822838   7.871   4.496   1.629  0.7890 -0.8663  0.5152
   41MOL   H35922839   7.943   4.526   1.478  0.9706  0.8087  1.7684
   41MOL   H36022840   7.719   4.466   1.473  1.5095  1.8894  4.1029
   41MOL   H36122841   7.800   4.319   1.396 -0.8711 -0.0949 -1.1162
   41MOL   H36222842   7.742   4.230   1.822 -0.7524  0.3420  1.6967
   41MOL   H36322843   7.699   4.071   2.025  0.7745  1.8729 -0.9288
   41MOL   H36422844   7.344   3.940   1.818  0.3957 -0.5322 -0.6248
   41MOL   H36522845   7.393   4.086   1.630 -0.3135  2.0956  0.3821
   41MOL   O36622846   7.600   3.873   2.134  0.4461 -0.4984 -0.5203
   41MOL   C36722847   7.593   3.776   2.229  0.2778  0.2274 -0.6227
   41MOL   C36822848   7.654   3.636   2.185 -0.3708 -0.6583  0.3516
   41MOL   C36922849   7.610   3.525   2.269 -0.2653  0.3399 -0.4442
   41MOL   C37022850   7.689   3.408   2.236 -0.0517  0.1019  0.3474
   41MOL   O37122851   7.654   3.304   2.323  0.0243  0.8609  0.2433
   41MOL   C37222852   7.739   3.212   2.363  0.1703 -0.3590  0.3190
   41MOL   O37322853   7.849   3.195   2.307 -0.0403  0.1520  0.0699
   41MOL   C37422854   7.684   3.126   2.474  0.3279  0.4897 -0.3720
   41MOL   C37522855   7.563   3.164   2.540 -0.1955 -0.8757 -0.2543
   41MOL   C37622856   7.521   3.088   2.647 -0.0612  0.1319 -0.1552
   41MOL   C37722857   7.587   2.984   2.700  0.1131 -0.8015  0.2269
   41MOL   C37822858   7.539   2.921   2.828 -0.1716  0.2506 -0.7719
   41MOL   O37922859   7.425   2.930   2.871  0.0810  0.1684 -0.1272
   41MOL   C38022860   7.706   2.942   2.632 -0.4789  0.1914 -0.0136
   41MOL   C38122861   7.755   3.014   2.514  0.3602  0.7013 -0.0885
   41MOL   H38222862   7.631   3.813   2.324 -2.3996 -0.6166  0.8228
   41MOL   H38322863   7.491   3.758   2.264 -0.1758  1.0507 -1.4832
   41MOL   H38422864   7.763   3.641   2.177 -0.4810  2.1259  0.0301
   41MOL   H38522865   7.621   3.615   2.083  2.8475  2.2603 -1.4115
   41MOL   H38622866   7.606   3.541   2.376  3.4420 -0.3068 -0.1317
   41MOL   H38722867   7.508   3.491   2.251  0.1796 -0.3100 -1.8831
   41MOL   H38822868   7.671   3.372   2.135 -1.9160 -1.9003  1.3644
   41MOL   H38922869   7.796   3.429   2.247 -0.0220  0.8284 -1.2580
   41MOL   H39022870   7.505   3.246   2.501  0.7081 -0.4020 -0.6192
   41MOL   H39122871   7.430   3.126   2.691  0.8010 -0.0945  1.9082
   41MOL   H39222872   7.765   2.857   2.660 -0.3846 -0.1118 -1.1262
   41MOL   H39322873   7.850   2.988   2.469 -0.2829  1.4162 -1.8989
   41MOL   O39422874   7.638   2.845   2.882  0.4106 -0.7153 -0.0418
   41MOL   C39522875   7.615   2.774   3.002 -0.0751 -0.4901 -0.1008
   41MOL   C39622876   7.739   2.788   3.095  0.7035 -0.6146 -0.6680
   41MOL   C39722877   7.723   2.702   3.226 -0.2160 -0.3863 -0.4100
   41MOL   C39822878   7.844   2.697   3.322  0.2920  0.5618  0.0358
   41MOL   O39922879   7.833   2.596   3.429 -0.2343  0.1545 -0.3351
   41MOL   C40022880   7.942   2.564   3.504  0.2551  0.6833 -0.3476
   41MOL   O40122881   8.054   2.611   3.487 -0.2752 -0.2033  0.1074
   41MOL   C40222882   7.914   2.458   3.611 -0.6571  0.1935  0.7075
   41MOL   C40322883   8.014   2.412   3.697 -1.0847 -0.0742  0.2539
   41MOL   C40422884   7.975   2.321   3.800 -0.5272  0.0355 -0.2206
   41MOL   C40522885   7.842   2.276   3.811  0.1814  0.3219  0.8889
   41MOL   C40622886   7.801   2.178   3.912  0.2409  0.7041  0.0457
   41MOL   O40722887   7.870   2.096   3.971 -0.1090  0.5801  0.0958
   41MOL   C40822888   7.747   2.318   3.719  0.1770  0.2881 -1.1363
   41MOL   C40922889   7.784   2.405   3.617 -0.3272 -1.2570  0.4775
   41MOL   H41022890   7.529   2.818   3.054  0.9426  1.3594  0.0776
   41MOL   H41122891   7.603   2.669   2.980  0.4770 -0.6357  0.2800
   41MOL   H41222892   7.744   2.892   3.127 -0.6785 -0.9873  0.8343
   41MOL   H41322893   7.837   2.760   3.056  1.7682 -1.9059  2.7227
   41MOL   H41422894   7.630   2.721   3.280 -0.3619  0.4624 -0.9561
   41MOL   H41522895   7.708   2.599   3.193 -0.2015 -0.0046 -1.6159
   41MOL   H41622896   7.923   2.665   3.255 -0.5166 -0.8610 -0.2615
   41MOL   H41722897   7.871   2.788   3.374  0.0971  0.5957  0.0780
   41MOL   H41822898   0.015   2.451   3.685 -1.1518  0.8980  2.5164
   41MOL   H41922899   8.048   2.289   3.874  0.6046 -0.0858 -1.3786
   41MOL   H42022900   7.642   2.297   3.731  0.4164  0.2565  1.0686
   41MOL   H42122901   7.713   2.447   3.548  0.8363  1.6677  0.9974
   41MOL   O42222902   7.668   2.188   3.942  0.0532 -0.2538  0.3962
   41MOL   C42322903   7.605   2.129   4.055 -0.3536 -0.6857 -0.1765
   41MOL   C42422904   7.567   2.225   4.161  0.2179 -0.2974 -0.2869
   41MOL   C42522905   7.435   2.305   4.132 -0.0700 -0.6025 -0.0889
   41MOL   C42622906   7.380   2.400   4.249 -0.3268  0.1156 -0.3397
   41MOL   O42722907   7.277   2.482   4.202  0.6312 -0.4101  0.1806
   41MOL   C42822908   7.227   2.579   4.291 -0.4517 -0.0877  0.9362
   41MOL   O42922909   7.254   2.579   4.408  0.5580  0.2092  0.0908
   41MOL   C43022910   7.132   2.680   4.229 -0.6697  0.1819  0.3868
   41MOL   C43122911   7.105   2.678   4.087  0.7025  0.8011 -0.7497
   41MOL   C43222912   7.011   2.770   4.031 -0.1259 -0.3176 -0.2825
   41MOL   C43322913   6.951   2.870   4.114 -0.4666 -0.2350 -0.1295
   41MOL   C43422914   6.845   2.960   4.050 -0.3439 -0.1866  0.2048
   41MOL   O43522915   6.784   2.927   3.950 -0.0060 -0.0721 -0.1658
   41MOL   C43622916   6.981   2.871   4.254 -0.0491  0.4035 -0.3860
   41MOL   C43722917   7.063   2.776   4.306  0.0512  1.0200  0.0360
   41MOL   H43822918   7.515   2.074   4.025 -0.3223 -0.3880 -0.8159
   41MOL   H43922919   7.665   2.047   4.097 -0.9785 -0.7295  0.6440
   41MOL   H44022920   7.644   2.301   4.171 -1.0998  1.0725 -0.3194
   41MOL   H44122921   7.551   2.177   4.257  3.1310 -1.9417 -0.5622
   41MOL   H44222922   7.449   2.367   4.043 -0.3046 -0.7774 -0.2475
   41MOL   H44322923   7.360   2.236   4.094 -3.3559  3.2382 -0.8619
   41MOL   H44422924   7.335   2.332   4.321 -2.1878  0.7539 -0.8416
   41MOL   H44522925   7.462   2.461   4.286 -0.0030 -0.4166 -0.1832
   41MOL   H44622926   7.156   2.602   4.029 -0.5473 -0.6957  0.0558
   41MOL   H44722927   6.980   2.758   3.929  2.4003 -1.1858 -0.9805
   41MOL   H44822928   6.936   2.934   4.329  1.7889 -0.9639  1.9245
   41MOL   H44922929   7.071   2.778   4.413 -3.3153  1.2588  0.3193
   41MOL   O45022930   6.828   3.072   4.121  0.3613  0.2939  0.6018
   41MOL   C45122931   6.722   3.166   4.093  0.0498  0.1320  0.1083
   41MOL   C45222932   6.599   3.143   4.185  0.4060  0.4598 -0.1627
   41MOL   C45322933   6.512   3.272   4.192  0.0498  0.8412 -0.0066
   41MOL   C45422934   6.377   3.244   4.257  0.3230  0.6326  0.4293
   41MOL   O45522935   6.307   3.152   4.170 -0.8697  0.3271  0.5390
   41MOL   C45622936   6.187   3.108   4.212  0.0406 -0.2754 -0.4935
   41MOL   O45722937   6.142   3.152   4.320 -0.1095  0.2970  0.9840
   41MOL   C45822938   6.120   3.010   4.123 -0.6836 -0.2918 -0.3302
   41MOL   C45922939   5.990   2.965   4.164  0.7552  0.0646  0.0549
   41MOL   C46022940   5.918   2.880   4.081 -0.7263  0.8936  0.2291
   41MOL   C46122941   5.975   2.828   3.963  0.2288  0.3641 -0.9984
   41MOL   C46222942   5.903   2.741   3.871 -0.4409 -0.3944  0.1926
   41MOL   O46322943   5.951   2.700   3.766 -0.2960  0.0176 -0.6376
   41MOL   C46422944   6.099   2.881   3.924 -0.2671 -0.6077 -0.3614
   41MOL   C46522945   6.177   2.958   4.010 -0.3500 -0.9202  0.2655
   41MOL   H46622946   6.757   3.269   4.104 -1.5517  0.8802 -1.4684
   41MOL   H46722947   6.684   3.156   3.991 -0.5069  0.5302  0.2750
   41MOL   H46822948   6.635   3.127   4.286 -1.5078 -0.2092  0.4397
   41MOL   H46922949   6.549   3.048   4.171 -0.4431  0.6808  1.2893
   41MOL   H47022950   6.559   3.346   4.256  0.4767  1.8049 -1.4176
   41MOL   H47122951   6.494   3.311   4.092 -2.5674 -1.2408 -0.3985
   41MOL   H47222952   6.395   3.218   4.361  2.2267  1.8625  0.4390
   41MOL   H47322953   6.322   3.337   4.268 -0.2117  0.1872  1.5408
   41MOL   H47422954   5.940   2.992   4.257  0.0197  1.4700 -0.7220
   41MOL   H47522955   5.820   2.852   4.117 -0.1810 -2.4666 -0.6995
   41MOL   H47622956   6.146   2.831   3.840 -0.8147 -3.1006  0.7647
   41MOL   H47722957   6.274   2.983   3.969 -0.5183  3.1710  2.0861
   41MOL   O47822958   5.783   2.716   3.915 -0.0375  0.0653  0.0526
   41MOL   C47922959   5.696   2.615   3.853 -0.4895  0.1436 -0.3477
   41MOL   C48022960   5.603   2.699   3.765  0.2976  0.5024 -0.3468
   41MOL   C48122961   5.510   2.797   3.852 -0.3711 -0.3187  0.6803
   41MOL   C48222962   5.428   2.721   3.954  0.0589 -0.4867 -0.5448
   41MOL   O48322963   5.505   2.700   4.071 -0.2884  0.1395  0.0867
   41MOL   C48422964   5.451   2.666   4.187 -0.5992  0.1037  0.9576
   41MOL   O48522965   5.330   2.642   4.207  0.1741  0.4027 -0.0028
   41MOL   C48622966   5.554   2.644   4.291 -0.0426  0.1066 -0.0681
   41MOL   C48722967   5.693   2.642   4.256 -0.3432  0.1584 -1.3462
   41MOL   C48822968   5.790   2.598   4.352  0.4903  0.1425  0.2935
   41MOL   C48922969   5.747   2.559   4.480 -0.3390 -0.2403  0.6831
   41MOL   C49022970   5.841   2.500   4.574  0.4193 -1.0290  0.4640
   41MOL   O49122971   5.964   2.486   4.553  0.2611  0.3994  1.0783
   41MOL   C49222972   5.609   2.563   4.517  0.7009 -0.3744  0.5470
   41MOL   C49322973   5.511   2.603   4.420  1.4723 -0.3392  0.0552
   41MOL   H49422974   5.756   2.537   3.806  0.4508  0.1195  0.8664
   41MOL   H49522975   5.640   2.564   3.931 -1.2796 -0.5943 -1.3989
   41MOL   H49622976   5.528   2.631   3.724 -0.5774 -0.1338  2.1606
   41MOL   H49722977   5.652   2.747   3.681 -1.1175  2.3134 -0.1701
   41MOL   H49822978   5.569   2.864   3.914  0.9239  2.0663 -2.9685
   41MOL   H49922979   5.446   2.851   3.781  0.6601 -0.4879 -0.4032
   41MOL   H50022980   5.330   2.767   3.969  1.6231  3.1300 -0.9983
   41MOL   H50122981   5.401   2.624   3.911  0.7941 -0.9073 -0.0736
   41MOL   H50222982   5.730   2.673   4.159  0.4679  0.5139 -0.9263
   41MOL   H50322983   5.892   2.586   4.317  0.7275 -0.9036  1.2948
   41MOL   H50422984   5.570   2.533   4.613  1.2759 -1.3860  0.4710
   41MOL   H50522985   5.406   2.603   4.443  1.2406 -0.2801 -0.9659
   41MOL   O50622986   5.790   2.491   4.703  0.8309 -0.3166 -0.3348
   41MOL   C50722987   5.880   2.431   4.796  0.4512  0.6585  0.1660
   41MOL   C50822988   5.798   2.360   4.906  0.0834  0.2563  0.8251
   41MOL   C50922989   5.732   2.235   4.861 -0.9547 -0.1494  0.7860
   41MOL   C51022990   5.597   2.244   4.786 -0.4761  0.2550 -0.7373
   41MOL   O51122991   5.495   2.183   4.867 -0.3398 -1.0781 -0.7307
   41MOL   C51222992   5.365   2.186   4.823  0.3670  0.3826  0.2218
   41MOL   O51322993   5.333   2.234   4.713  0.4117  0.4251 -0.5978
   41MOL   C51422994   5.270   2.153   4.932 -0.0629 -0.6107  0.5025
   41MOL   C51522995   5.133   2.129   4.899 -0.5309 -0.0560  0.4664
   41MOL   C51622996   5.049   2.091   5.004 -1.0838  0.0632  0.4555
   41MOL   C51722997   5.096   2.063   5.137  0.2438  0.0948  0.0599
   41MOL   C51822998   5.002   2.027   5.246  0.0860 -0.5313 -0.3830
   41MOL   O51922999   5.030   2.023   5.365  0.4676 -0.2403 -0.4167
   41MOL   C52023000   5.236   2.080   5.164  0.2354  0.6524  0.2279
   41MOL   C52123001   5.321   2.117   5.059 -0.4067  0.2306 -0.4455
   41MOL   H52223002   5.952   2.357   4.761  0.6423  1.3134 -0.8647
   41MOL   H52323003   5.935   2.511   4.846  0.1152 -0.8312  3.0015
   41MOL   H52423004   5.711   2.413   4.945  0.4859 -0.5775  2.9101
   41MOL   H52523005   5.857   2.327   4.991 -1.2233 -1.1041  1.2360
   41MOL   H52623006   5.806   2.171   4.812 -0.1768  0.4804  1.1350
   41MOL   H52723007   5.699   2.196   4.957  0.6654 -2.2698  0.5259
   41MOL   H52823008   5.568   2.349   4.795  1.9890  0.7455  2.4926
   41MOL   H52923009   5.603   2.223   4.679  2.5110  3.2538 -1.2487
   41MOL   H53023010   5.095   2.138   4.798  0.0243 -0.6114  0.2013
   41MOL   H53123011   4.947   2.083   4.970 -1.9293  1.5301  2.5804
   41MOL   H53223012   5.273   2.076   5.265  0.7503  0.2559  0.0263
   41MOL   H53323013   5.425   2.124   5.085 -0.9094  0.7685  1.5416
   41MOL   O53423014   4.879   1.994   5.199  0.1211 -0.6879 -0.0758
   41MOL   C53523015   4.779   1.945   5.286  0.1008  0.0427 -0.1652
   41MOL   C53623016   4.700   1.834   5.210  0.1207 -0.3827  0.2531
   41MOL   C53723017   4.604   1.737   5.280 -0.5906 -0.0337  0.7316
   41MOL   C53823018   4.461   1.797   5.294  0.2310  0.0528 -0.8660
   41MOL   O53923019   4.402   1.700   5.382 -0.2468 -0.3216  0.1020
   41MOL   C54023020   4.272   1.695   5.398  0.4795  0.5144 -0.8338
   41MOL   O54123021   4.186   1.767   5.344  0.1058 -0.3166  0.2255
   41MOL   C54223022   4.232   1.584   5.493  0.0226 -0.0332 -0.1386
   41MOL   C54323023   4.098   1.528   5.483 -0.0134 -0.2167 -0.0122
   41MOL   C54423024   4.060   1.424   5.566  0.0867 -0.2009 -0.1374
   41MOL   C54523025   4.159   1.381   5.661 -0.0728  0.7064  0.2583
   41MOL   C54623026   4.131   1.261   5.744 -0.0050 -0.1894 -0.0256
   41MOL   O54723027   4.208   1.220   5.835  0.1088  0.5723  0.2163
   41MOL   C54823028   4.282   1.439   5.677 -0.0507 -0.6203 -0.5805
   41MOL   C54923029   4.324   1.540   5.592 -0.0920  0.1703 -0.0014
   41MOL   H55023030   4.825   1.901   5.374  1.7738 -1.0544 -1.5774
   41MOL   H55123031   4.711   2.024   5.318  0.3444  0.7968 -1.4594
   41MOL   H55223032   4.781   1.775   5.168  0.1980  0.0983 -0.2887
   41MOL   H55323033   4.658   1.871   5.117  2.0146  1.9425  0.2818
   41MOL   H55423034   4.601   1.642   5.229 -1.5671  0.8223 -0.8408
   41MOL   H55523035   4.649   1.716   5.377  0.0323 -2.2691 -0.0232
   41MOL   H55623036   4.455   1.893   5.345 -1.2310 -0.0151 -0.8886
   41MOL   H55723037   4.408   1.809   5.199  1.0980 -2.2309 -1.6717
   41MOL   H55823038   4.028   1.558   5.406 -0.4966 -0.0869  0.4758
   41MOL   H55923039   3.968   1.368   5.557  2.0598 -3.8608  1.2975
   41MOL   H56023040   4.350   1.396   5.749 -0.3347  2.8930  1.8923
   41MOL   H56123041   4.425   1.578   5.595 -0.8090  2.0855  0.8221
   41MOL   H56223042   4.037   1.211   5.721  0.3635 -0.9494  0.0836
   42MOL     O123043   0.492   5.845   1.600  0.5779 -0.1280 -0.1342
   42MOL     C223044   0.363   5.790   1.576 -0.0026 -0.6226 -0.3386
   42MOL     C323045   0.268   5.781   1.697 -0.3716 -0.0454  0.2860
   42MOL     C423046   0.249   5.921   1.756  0.0930 -0.0249  0.4543
   42MOL     C523047   0.141   5.913   1.871  0.9850 -0.0148 -0.4557
   42MOL     O623048   0.020   5.862   1.839  0.2663 -0.0976  0.3352
   42MOL     C723049   8.022   5.953   1.806 -0.1581  0.5080 -0.3132
   42MOL     O823050   8.043   6.056   1.746 -0.3912 -0.4831  0.3211
   42MOL     C923051   7.888   5.907   1.843  0.0223 -0.0274 -0.2502
   42MOL    C1023052   7.859   5.776   1.886  0.8382  0.4029 -0.2562
   42MOL    C1123053   7.725   5.746   1.922 -0.2279 -0.5817  0.5272
   42MOL    C1223054   7.623   5.842   1.932 -0.5920  0.0904  0.4134
   42MOL    C1323055   7.488   5.809   1.991 -0.5832  0.8367 -0.2057
   42MOL    O1423056   7.395   5.889   1.986 -0.2172 -0.3267 -0.0202
   42MOL    C1523057   7.658   5.974   1.902  0.3755 -0.6240  0.4611
   42MOL    C1623058   7.788   6.006   1.853 -0.8004  0.1750 -0.0640
   42MOL    H1723059   0.320   5.852   1.498  1.6271 -0.7455 -1.3662
   42MOL    H1823060   0.374   5.688   1.541 -3.4926 -1.4243  0.7363
   42MOL    H1923061   0.299   5.707   1.771  1.1646 -2.3965 -2.5899
   42MOL    H2023062   0.174   5.737   1.664  1.3270 -2.2819 -1.7873
   42MOL    H2123063   0.348   5.957   1.784 -0.4483 -0.5965  3.3249
   42MOL    H2223064   0.216   5.981   1.672  0.3995 -2.1034 -1.1875
   42MOL    H2323065   0.186   5.853   1.950  0.5627  0.8210  0.4269
   42MOL    H2423066   0.135   6.016   1.907  1.2559  0.5750 -2.0275
   42MOL    H2523067   7.932   5.697   1.874  1.7434  1.3830 -1.2501
   42MOL    H2623068   7.701   5.642   1.939 -0.9407 -0.6893 -1.0451
   42MOL    H2723069   7.583   6.052   1.903 -0.2192 -1.1785 -0.0728
   42MOL    H2823070   7.810   6.110   1.833  2.4486 -0.4070  0.1846
   42MOL    H2923071   0.488   5.937   1.620 -1.1248 -0.5446  1.5825
   42MOL    O3023072   7.485   5.689   2.046  0.4515  0.2396  0.2370
   42MOL    C3123073   7.371   5.641   2.115 -0.3900  0.0984 -0.9461
   42MOL    C3223074   7.419   5.549   2.230 -0.7632  0.0365 -0.2533
   42MOL    C3323075   7.311   5.455   2.286  0.0110  0.1217  0.3293
   42MOL    C3423076   7.353   5.388   2.409  0.6353  0.0844  0.0007
   42MOL    O3523077   7.469   5.309   2.381  0.1279 -0.3344  0.3352
   42MOL    C3623078   7.508   5.215   2.472  0.0858  1.0949 -0.1713
   42MOL    O3723079   7.436   5.184   2.571 -0.5916 -0.6660 -0.4947
   42MOL    C3823080   7.633   5.152   2.437 -0.0938 -1.6480 -0.0920
   42MOL    C3923081   7.703   5.187   2.316 -0.1358  0.1865 -0.0706
   42MOL    C4023082   7.822   5.122   2.279 -0.0753 -0.2052  0.1156
   42MOL    C4123083   7.878   5.026   2.363 -0.1894 -0.0323 -0.3785
   42MOL    C4223084   8.005   4.959   2.325  0.4775 -0.4225  0.6132
   42MOL    O4323085   8.059   4.869   2.384  0.6296  1.0743 -0.1855
   42MOL    C4423086   7.813   4.983   2.487  0.0255  0.3200  0.2681
   42MOL    C4523087   7.697   5.056   2.526 -0.7617  0.2667  0.4382
   42MOL    H4623088   7.314   5.726   2.151 -0.7312 -0.3143 -0.5031
   42MOL    H4723089   7.308   5.583   2.047 -0.6241  1.5943 -2.0466
   42MOL    H4823090   7.462   5.613   2.308 -0.6203  0.6269 -0.8105
   42MOL    H4923091   7.509   5.493   2.204 -1.2422 -1.3087  0.9212
   42MOL    H5023092   7.220   5.512   2.306 -1.6436 -2.2808 -0.0699
   42MOL    H5123093   7.276   5.378   2.217 -0.8189  0.9379 -0.1634
   42MOL    H5223094   7.376   5.462   2.485  1.2886  0.2012 -0.3074
   42MOL    H5323095   7.275   5.320   2.441  0.7358 -0.3470 -0.6480
   42MOL    H5423096   7.667   5.264   2.249 -0.2809 -2.1036 -2.6960
   42MOL    H5523097   7.867   5.151   2.186 -0.6645  0.7107  0.1068
   42MOL    H5623098   7.866   4.918   2.555  3.7103  1.2488 -1.5694
   42MOL    H5723099   7.663   5.048   2.628  1.4259 -1.6223  1.0493
   42MOL    O5823100   8.052   5.010   2.204 -0.2388  0.8105  0.2442
   42MOL    C5923101   0.059   4.939   2.131 -0.2926  0.2839  0.2452
   42MOL    C6023102   0.146   5.047   2.062 -0.5144  0.6849 -0.5842
   42MOL    C6123103   0.233   4.980   1.953 -0.3782 -0.5361 -0.8155
   42MOL    C6223104   0.277   5.099   1.862  0.0548  0.1017  0.1739
   42MOL    O6323105   0.373   5.052   1.770 -0.9420  0.4456  0.0209
   42MOL    C6423106   0.501   5.037   1.803 -0.0212  0.1747  0.4535
   42MOL    O6523107   0.542   5.083   1.911 -0.0857  0.3480  0.1986
   42MOL    C6623108   0.584   4.956   1.710  0.0856 -0.0613  0.3207
   42MOL    C6723109   0.539   4.901   1.584  0.0528  0.0286 -0.7415
   42MOL    C6823110   0.627   4.830   1.503  0.2692 -0.0588 -0.5690
   42MOL    C6923111   0.754   4.805   1.539 -0.1430  0.4593  0.2614
   42MOL    C7023112   0.837   4.714   1.454  0.7314  0.1598  0.3669
   42MOL    O7123113   0.799   4.633   1.366  1.0084  0.0090 -0.0533
   42MOL    C7223114   0.806   4.862   1.656  0.1003  0.3017  0.5440
   42MOL    C7323115   0.721   4.937   1.743 -0.3697 -0.4991 -0.2419
   42MOL    H7423116   0.125   4.884   2.198 -0.6594 -0.8641 -0.3189
   42MOL    H7523117   0.003   4.873   2.064  0.8989  0.3359 -0.8308
   42MOL    H7623118   0.206   5.096   2.139 -3.5107  0.3620  2.0855
   42MOL    H7723119   0.084   5.126   2.021 -0.8096  0.4834 -0.5321
   42MOL    H7823120   0.315   4.933   2.007  0.3553  0.4851 -1.0431
   42MOL    H7923121   0.172   4.909   1.897  0.0967 -1.0309 -0.7043
   42MOL    H8023122   0.198   5.152   1.808  1.3084  2.8085  0.9423
   42MOL    H8123123   0.316   5.176   1.928  1.5607  0.5293 -1.1956
   42MOL    H8223124   0.437   4.916   1.551 -0.4272 -3.8651 -1.2899
   42MOL    H8323125   0.590   4.793   1.408  2.8626 -1.1319 -1.2123
   42MOL    H8423126   0.906   4.834   1.687  0.3041 -0.6198 -0.8932
   42MOL    H8523127   0.762   4.988   1.829  0.7048 -0.7793 -0.5801
   42MOL    O8623128   0.966   4.745   1.468 -0.1500 -0.2976  0.0084
   42MOL    C8723129   1.079   4.675   1.416 -0.4884  0.2129 -0.6109
   42MOL    C8823130   1.100   4.542   1.496  0.2493 -0.4706  0.2475
   42MOL    C8923131   1.130   4.553   1.646 -0.1610 -0.3133 -0.3127
   42MOL    C9023132   1.164   4.416   1.706 -0.2045  0.0345  0.8193
   42MOL    O9123133   1.208   4.427   1.842 -0.0572 -0.1903  0.5320
   42MOL    C9223134   1.122   4.448   1.944 -0.0240  0.1624 -0.4423
   42MOL    O9323135   1.005   4.407   1.942  0.0651 -0.6581 -0.0035
   42MOL    C9423136   1.184   4.530   2.055  0.6841 -0.0736 -0.0181
   42MOL    C9523137   1.100   4.564   2.170 -0.2306  0.2863  0.5337
   42MOL    C9623138   1.150   4.641   2.279 -0.3264  0.2106 -0.2120
   42MOL    C9723139   1.280   4.690   2.274  0.4337 -1.0435 -0.3672
   42MOL    C9823140   1.325   4.788   2.383 -0.6153  0.6332 -0.5777
   42MOL    O9923141   1.441   4.835   2.380 -0.0156  0.0952 -0.4896
   42MOL   C10023142   1.364   4.653   2.169 -0.8259  0.4942 -0.5613
   42MOL   C10123143   1.318   4.576   2.058  0.0495 -0.4279 -0.3230
   42MOL   H10223144   1.054   4.640   1.315 -0.1426  0.0665 -0.6445
   42MOL   H10323145   1.162   4.745   1.419 -0.2239 -0.1371  0.5409
   42MOL   H10423146   1.197   4.507   1.460  1.6223  0.6610  2.7099
   42MOL   H10523147   1.018   4.473   1.479  1.5684 -1.6271 -1.6194
   42MOL   H10623148   1.214   4.621   1.660 -0.7030  0.0072  1.6100
   42MOL   H10723149   1.049   4.605   1.697 -1.3612 -0.5321 -1.9485
   42MOL   H10823150   1.105   4.328   1.680  0.8487  0.3881 -3.1236
   42MOL   H10923151   1.253   4.395   1.647 -0.2201  1.3087  0.3443
   42MOL   H11023152   0.998   4.528   2.168  0.5024 -1.8291 -0.5811
   42MOL   H11123153   1.086   4.656   2.365 -0.4604  2.7440 -0.7138
   42MOL   H11223154   1.468   4.681   2.168 -0.3730 -1.1574 -1.5349
   42MOL   H11323155   1.384   4.548   1.977 -0.4946  0.1905 -0.9850
   42MOL   O11423156   1.232   4.810   2.481  0.0869 -0.5897  0.6240
   42MOL   C11523157   1.253   4.905   2.579 -0.7747  0.2329 -0.1217
   42MOL   C11623158   1.261   5.049   2.512  0.0826  0.5115  0.2512
   42MOL   C11723159   1.245   5.167   2.602 -0.0399  0.5334 -0.2435
   42MOL   C11823160   1.107   5.181   2.664  0.8335 -0.1832  0.1411
   42MOL   O11923161   1.111   5.287   2.756  0.1658  0.4428  0.4175
   42MOL   C12023162   1.015   5.314   2.839  0.6720  0.2722  0.0843
   42MOL   O12123163   0.915   5.254   2.851 -0.1083 -0.2416  0.1218
   42MOL   C12223164   1.055   5.427   2.933  0.5117  0.1032 -0.0964
   42MOL   C12323165   0.985   5.435   3.057 -0.1307  0.2334 -0.0939
   42MOL   C12423166   1.031   5.532   3.149 -0.1088  0.9624  0.7407
   42MOL   C12523167   1.132   5.627   3.122  0.3202 -0.2504 -0.0775
   42MOL   C12623168   1.164   5.726   3.228 -0.1346  0.0007  0.1639
   42MOL   O12723169   1.093   5.748   3.329 -0.0977  0.1033  0.4419
   42MOL   C12823170   1.203   5.618   2.999  0.3526  0.0674  0.2762
   42MOL   C12923171   1.164   5.514   2.909 -1.0188  0.5405  0.3135
   42MOL   H13023172   1.161   4.904   2.639 -0.0098 -0.4274  1.0533
   42MOL   H13123173   1.329   4.883   2.653 -1.2836  0.1405  0.3796
   42MOL   H13223174   1.180   5.060   2.440 -0.3747  3.8688  1.1963
   42MOL   H13323175   1.358   5.062   2.465  0.2121  2.0826  0.9281
   42MOL   H13423176   1.324   5.160   2.676 -0.8811  2.2298  0.8394
   42MOL   H13523177   1.261   5.263   2.553  2.5350  0.7321  0.9193
   42MOL   H13623178   1.031   5.196   2.587  1.8404 -1.1665 -1.0549
   42MOL   H13723179   1.080   5.094   2.724  2.2641 -1.8090 -1.5245
   42MOL   H13823180   0.897   5.376   3.077 -0.0476 -0.5225 -1.8154
   42MOL   H13923181   0.980   5.535   3.244  2.6153 -2.1488  2.4315
   42MOL   H14023182   1.291   5.678   2.978  0.8364 -1.6888 -3.0807
   42MOL   H14123183   1.228   5.501   2.823  0.8388 -1.6340  1.9684
   42MOL   O14223184   1.277   5.784   3.199 -0.4354 -0.4573 -0.9442
   42MOL   C14323185   1.352   5.853   3.306 -0.9456  0.4181  1.0077
   42MOL   C14423186   1.290   5.988   3.341 -0.8489  0.1045 -0.2933
   42MOL   C14523187   1.318   6.098   3.230  0.2171 -0.3689 -0.0580
   42MOL   C14623188   1.271   6.229   3.286  0.3595  0.7735  0.4065
   42MOL   O14723189   1.340   6.343   3.227  0.0672 -0.1774 -0.2577
   42MOL   C14823190   1.262   6.450   3.190 -0.1331  0.4651 -0.0149
   42MOL   O14923191   1.137   6.440   3.166 -0.6213  0.1827  0.7893
   42MOL   C15023192   1.324   6.589   3.200  0.0979 -0.2094 -0.4752
   42MOL   C15123193   1.238   6.699   3.182 -0.3207 -0.7998 -0.5720
   42MOL   C15223194   1.297   6.829   3.196 -1.0500  0.0723  0.5055
   42MOL   C15323195   1.427   6.853   3.246 -0.1918  0.1992  0.3748
   42MOL   C15423196   1.479   6.991   3.270  0.0425  0.2555  0.2445
   42MOL   O15523197   1.587   7.016   3.319 -0.5411 -0.0264  0.3067
   42MOL   C15623198   1.506   6.736   3.266 -0.1269  0.3949  0.2705
   42MOL   C15723199   1.456   6.608   3.245  0.4131 -0.3575  0.1366
   42MOL   H15823200   1.346   5.785   3.391  0.5655 -0.7004  0.2403
   42MOL   H15923201   1.457   5.857   3.275 -0.5754 -0.7354  2.0577
   42MOL   H16023202   1.330   6.014   3.439  2.0649 -0.3262 -1.3237
   42MOL   H16123203   1.183   5.974   3.359 -0.9408  2.4795  1.2441
   42MOL   H16223204   1.425   6.113   3.213 -0.4690  1.5957 -3.1907
   42MOL   H16323205   1.281   6.066   3.133  1.5227 -0.8469 -0.4111
   42MOL   H16423206   1.167   6.224   3.253  1.2756 -0.7415 -2.4746
   42MOL   H16523207   1.272   6.237   3.395 -1.7515 -0.1311  0.5222
   42MOL   H16623208   1.139   6.697   3.139 -0.1772 -0.0485 -0.9528
   42MOL   H16723209   1.244   6.914   3.155 -0.3352 -0.3215 -1.2625
   42MOL   H16823210   1.605   6.758   3.304  0.2284  1.1338 -1.0565
   42MOL   H16923211   1.517   6.522   3.269 -0.8431 -1.7942 -1.6819
   42MOL   O17023212   1.385   7.084   3.239  0.1088 -0.8401 -0.1109
   42MOL   C17123213   1.414   7.219   3.275 -0.3577  0.3241 -0.1763
   42MOL   C17223214   1.320   7.314   3.199  0.3218 -0.3852  0.3348
   42MOL   C17323215   1.329   7.463   3.221  0.2680 -0.6384 -0.3387
   42MOL   C17423216   1.462   7.520   3.175  0.3809 -0.0119 -0.4751
   42MOL   O17523217   1.477   7.506   3.042  0.0752 -0.1348  0.8451
   42MOL   C17623218   1.559   7.418   2.990 -0.1094  0.4158  0.5978
   42MOL   O17723219   1.639   7.350   3.058  0.6410 -0.0770  0.0407
   42MOL   C17823220   1.532   7.393   2.844  0.1392 -0.2988  0.3795
   42MOL   C17923221   1.600   7.282   2.789  0.6634  0.0750  0.0704
   42MOL   C18023222   1.572   7.251   2.651 -0.6833  0.3229  0.7339
   42MOL   C18123223   1.489   7.324   2.570  0.7177 -0.3101  0.2139
   42MOL   C18223224   1.466   7.287   2.429  0.6774  0.6840 -0.1872
   42MOL   O18323225   1.510   7.182   2.378 -0.3212 -0.1397  0.2450
   42MOL   C18423226   1.436   7.442   2.627  0.5010 -0.3093 -0.2793
   42MOL   C18523227   1.450   7.478   2.763 -0.3313  0.4592  0.5538
   42MOL   H18623228   1.392   7.241   3.379 -4.4771 -2.1168 -0.4345
   42MOL   H18723229   1.519   7.244   3.258 -0.1715 -0.5849 -0.3828
   42MOL   H18823230   1.219   7.276   3.212 -0.8726  2.4095 -0.3579
   42MOL   H18923231   1.329   7.286   3.094  1.2113  0.4823  0.1686
   42MOL   H19023232   1.256   7.521   3.166  0.3153  0.6385  0.9002
   42MOL   H19123233   1.311   7.496   3.324 -0.1397 -1.4213 -0.1523
   42MOL   H19223234   1.465   7.627   3.194  0.3353  0.0511 -0.8327
   42MOL   H19323235   1.548   7.488   3.235 -0.5089  1.1617  1.4972
   42MOL   H19423236   1.669   7.227   2.850 -0.7008 -1.9739 -0.1538
   42MOL   H19523237   1.620   7.165   2.606 -0.4303  2.5917 -3.5581
   42MOL   H19623238   1.384   7.507   2.560 -0.6361 -0.4690  0.4355
   42MOL   H19723239   1.408   7.571   2.797 -0.5622  0.6439 -0.2167
   42MOL   O19823240   1.394   7.376   2.357  0.2110 -0.0806 -0.7634
   42MOL   C19923241   1.377   7.355   2.221 -0.1107  0.2342 -0.5403
   42MOL   C20023242   1.272   7.446   2.168  0.0323 -0.3634  0.1753
   42MOL   C20123243   1.235   7.416   2.020  0.1184  1.0577  0.2097
   42MOL   C20223244   1.179   7.282   1.994  0.7723 -0.1625 -0.4505
   42MOL   O20323245   1.038   7.277   2.030 -0.0153  0.1053 -0.1080
   42MOL   C20423246   0.965   7.166   2.036  0.7934 -0.6546  0.7603
   42MOL   O20523247   1.002   7.048   2.020 -0.4648 -0.2077  0.5436
   42MOL   C20623248   0.817   7.198   2.057  0.0294 -1.0894 -1.0199
   42MOL   C20723249   0.717   7.105   2.035 -0.1284 -0.5165 -0.0839
   42MOL   C20823250   0.580   7.140   2.046 -0.8069 -0.4167 -0.6664
   42MOL   C20923251   0.540   7.269   2.087 -0.4544  0.0095 -0.4900
   42MOL   C21023252   0.397   7.292   2.113 -0.2261 -0.5748  0.2776
   42MOL   O21123253   0.318   7.201   2.129  0.1185  0.5155  0.0359
   42MOL   C21223254   0.642   7.367   2.108  0.5038 -0.0533  0.5164
   42MOL   C21323255   0.777   7.330   2.096  0.0850  0.0580  0.4556
   42MOL   H21423256   1.471   7.365   2.167  0.2543 -0.8807 -0.1367
   42MOL   H21523257   1.343   7.252   2.207 -0.8693 -0.0975  3.3397
   42MOL   H21623258   1.295   7.552   2.173 -1.6599  0.0741 -0.7889
   42MOL   H21723259   1.187   7.427   2.233  0.8053 -0.5424  1.1481
   42MOL   H21823260   1.169   7.493   1.980 -0.0688  1.5266  1.3966
   42MOL   H21923261   1.324   7.438   1.960  0.5094 -0.5636  0.1925
   42MOL   H22023262   1.183   7.265   1.886  0.3086 -0.8639 -0.3636
   42MOL   H22123263   1.239   7.201   2.034  0.6844  0.1169  0.2493
   42MOL   H22223264   0.741   7.008   1.993  3.9811 -0.4737  1.9210
   42MOL   H22323265   0.502   7.068   2.025 -0.1642 -0.8927 -1.4670
   42MOL   H22423266   0.605   7.465   2.132  0.4590 -0.2997  1.4872
   42MOL   H22523267   0.851   7.406   2.115 -0.4597  1.0310 -1.1709
   42MOL   O22623268   0.361   7.421   2.135  0.4783  0.4611 -0.3348
   42MOL   C22723269   0.222   7.450   2.120  0.3328 -0.1685  0.0264
   42MOL   C22823270   0.140   7.423   2.250  0.1864  0.1030  0.9435
   42MOL   C22923271   0.146   7.536   2.351 -0.2071 -0.0603  0.0614
   42MOL   C23023272   0.036   7.643   2.327  0.0078  0.1061 -0.1323
   42MOL   O23123273   8.004   7.587   2.338 -0.4351 -1.1068  0.0372
   42MOL   C23223274   7.944   7.544   2.458  0.2017 -0.7310  0.3578
   42MOL   O23323275   8.009   7.544   2.562  0.0625 -0.9119 -0.6300
   42MOL   C23423276   7.805   7.493   2.437  0.4954 -0.3842  0.1520
   42MOL   C23523277   7.727   7.541   2.333  0.4291 -0.4237 -0.0176
   42MOL   C23623278   7.596   7.492   2.326 -0.2652  0.1399  0.4225
   42MOL   C23723279   7.537   7.409   2.425  0.0202  0.3122 -0.9085
   42MOL   C23823280   7.396   7.359   2.425  0.6001  0.5683 -0.1752
   42MOL   O23923281   7.329   7.337   2.326 -0.3383  0.6840 -0.0520
   42MOL   C24023282   7.619   7.361   2.531 -0.0975 -0.8214 -0.5157
   42MOL   C24123283   7.757   7.403   2.539 -0.3306  0.0053  0.4894
   42MOL   H24223284   0.222   7.557   2.100 -1.0415  0.4706  3.1465
   42MOL   H24323285   0.173   7.413   2.030 -0.9518  0.1367  0.5888
   42MOL   H24423286   0.172   7.333   2.302 -2.4510 -1.7474 -0.4853
   42MOL   H24523287   0.036   7.413   2.218  0.2929  0.6662  0.4062
   42MOL   H24623288   0.142   7.510   2.456 -2.6143  0.0920  0.0559
   42MOL   H24723289   0.244   7.583   2.351 -0.6261  0.9154  2.6468
   42MOL   H24823290   0.046   7.725   2.398 -0.0770 -0.3553  0.4156
   42MOL   H24923291   0.042   7.675   2.223 -0.8797  1.9001  0.3580
   42MOL   H25023292   7.763   7.610   2.258  0.0802  0.0769  0.2725
   42MOL   H25123293   7.532   7.523   2.244 -1.5650 -1.8543  0.6420
   42MOL   H25223294   7.597   7.290   2.610  2.5581  0.4145  1.4361
   42MOL   H25323295   7.822   7.362   2.614  1.9512  1.3604 -0.6930
   42MOL   O25423296   7.357   7.346   2.553 -0.4218 -0.4499 -0.1145
   42MOL   C25523297   7.235   7.286   2.585 -0.2534 -0.7499  0.4670
   42MOL   C25623298   7.265   7.188   2.708 -0.0227  0.1109  0.8470
   42MOL   C25723299   7.296   7.266   2.837 -1.0737 -0.2035 -0.2829
   42MOL   C25823300   7.268   7.174   2.963  0.2242  0.3165  0.4406
   42MOL   O25923301   7.342   7.055   2.964 -0.2141  0.2262 -0.1911
   42MOL   C26023302   7.477   7.059   2.997  0.7001 -0.1032 -0.3472
   42MOL   O26123303   7.542   7.160   3.027 -0.5235  0.4423  0.0444
   42MOL   C26223304   7.541   6.926   2.980  0.4253  0.6670  0.0144
   42MOL   C26323305   7.465   6.818   2.937  0.5567  0.0208 -0.5300
   42MOL   C26423306   7.518   6.687   2.918 -0.3925 -0.1728  0.3466
   42MOL   C26523307   7.653   6.664   2.953  0.2220  0.0391 -0.3942
   42MOL   C26623308   7.713   6.533   2.915 -0.3791 -0.2225 -0.0083
   42MOL   O26723309   7.836   6.519   2.907  0.2201  0.2831 -0.0899
   42MOL   C26823310   7.734   6.771   3.007  0.0016  0.0136 -0.2447
   42MOL   C26923311   7.671   6.899   3.018 -0.1798 -0.2740 -0.1589
   42MOL   H27023312   7.156   7.359   2.601  1.0428  0.1752  2.8738
   42MOL   H27123313   7.200   7.230   2.499 -0.1788 -0.4567  0.2463
   42MOL   H27223314   7.339   7.112   2.680 -0.2245  0.7084 -1.4093
   42MOL   H27323315   7.176   7.126   2.718  1.5575 -2.2918  0.5297
   42MOL   H27423316   7.401   7.289   2.825 -0.6510 -2.1873 -0.5572
   42MOL   H27523317   7.251   7.365   2.851 -0.7119 -0.4159  2.8428
   42MOL   H27623318   7.303   7.237   3.045  1.2278  0.6429 -0.2196
   42MOL   H27723319   7.160   7.170   2.973  0.0985 -1.8279 -1.3214
   42MOL   H27823320   7.360   6.830   2.916  0.1195 -3.1721 -0.3816
   42MOL   H27923321   7.455   6.607   2.881 -1.9520  0.0823  2.3666
   42MOL   H28023322   7.840   6.763   3.023 -0.4669 -0.7240  2.8518
   42MOL   H28123323   7.720   6.987   3.057 -0.0651 -0.1984 -0.4663
   42MOL   O28223324   7.623   6.434   2.903 -0.0929 -0.4802 -0.1406
   42MOL   C28323325   7.658   6.303   2.896  0.4063 -1.0005  0.0028
   42MOL   C28423326   7.657   6.252   2.753  0.1228  0.2729 -0.5069
   42MOL   C28523327   7.698   6.105   2.738 -0.4144  0.2849 -0.1154
   42MOL   C28623328   7.645   6.016   2.617 -0.3029 -0.3528  0.2539
   42MOL   O28723329   7.691   5.891   2.648  0.9185  0.5600 -0.0270
   42MOL   C28823330   7.634   5.772   2.604 -0.1216 -0.3364  0.9012
   42MOL   O28923331   7.525   5.766   2.547  0.0476 -1.1819 -0.1951
   42MOL   C29023332   7.709   5.654   2.657 -0.0523  0.3900  1.0195
   42MOL   C29123333   7.633   5.531   2.668 -0.1052 -0.3696  0.3915
   42MOL   C29223334   7.697   5.408   2.698 -0.6678  0.7994  0.0208
   42MOL   C29323335   7.833   5.411   2.738  0.1822  0.3836  0.6305
   42MOL   C29423336   7.898   5.283   2.772  0.3469 -0.5235  0.3820
   42MOL   O29523337   7.834   5.184   2.808 -0.3781  0.2169  0.7989
   42MOL   C29623338   7.905   5.531   2.736 -0.1861  0.0074 -0.1521
   42MOL   C29723339   7.844   5.654   2.700 -0.8220  0.6196  0.5250
   42MOL   H29823340   7.756   6.292   2.941  1.1908  0.6894 -1.2561
   42MOL   H29923341   7.581   6.246   2.949  0.2243  0.0499  0.8810
   42MOL   H30023342   7.729   6.312   2.697  0.3549  0.3235 -0.1542
   42MOL   H30123343   7.557   6.247   2.709 -0.5259 -0.2458  1.0024
   42MOL   H30223344   7.804   6.093   2.762 -0.4176 -1.4369 -0.9422
   42MOL   H30323345   7.663   6.047   2.824 -1.1989  0.4890 -0.2941
   42MOL   H30423346   7.536   6.015   2.618 -0.3500  2.2179  0.7134
   42MOL   H30523347   7.685   6.045   2.521 -2.0655  1.2736 -0.0293
   42MOL   H30623348   7.527   5.523   2.648  0.4055 -1.2633 -2.0660
   42MOL   H30723349   7.649   5.311   2.696 -0.6339  0.8046 -2.4007
   42MOL   H30823350   8.009   5.528   2.767 -1.0656  0.2244  3.0251
   42MOL   H30923351   7.897   5.747   2.688 -1.6296  0.9633 -0.5393
   42MOL   O31023352   8.032   5.286   2.772  0.4809 -0.0759  0.3814
   42MOL   C31123353   0.013   5.172   2.786  0.4248  0.2407 -0.0405
   42MOL   C31223354   0.141   5.218   2.857  0.6258  0.3627 -0.3599
   42MOL   C31323355   0.118   5.296   2.988  0.3474  0.5436 -0.7618
   42MOL   C31423356   0.252   5.318   3.054 -0.4632 -0.3850  0.3149
   42MOL   O31523357   0.318   5.436   3.012  0.1135  0.3802  0.2164
   42MOL   C31623358   0.420   5.429   2.920 -0.0563  0.5312 -0.0067
   42MOL   O31723359   0.476   5.330   2.879 -0.3966 -0.3896 -0.0893
   42MOL   C31823360   0.446   5.567   2.871 -0.5098 -0.3117  0.0572
   42MOL   C31923361   0.572   5.589   2.811  0.1483  0.0437 -0.1130
   42MOL   C32023362   0.606   5.718   2.763  0.5596  0.0071 -0.5513
   42MOL   C32123363   0.519   5.825   2.773 -0.2244 -1.0521 -0.1156
   42MOL   C32223364   0.568   5.957   2.719  0.1509  0.2181 -0.3502
   42MOL   O32323365   0.651   5.955   2.632  0.0927 -0.0038 -0.0046
   42MOL   C32423366   0.398   5.807   2.840 -0.1981  0.2770 -0.6517
   42MOL   C32523367   0.367   5.684   2.901 -0.3423 -0.0916  0.2641
   42MOL   H32623368   8.060   5.096   2.844 -0.4880  1.0432  0.2045
   42MOL   H32723369   0.037   5.137   2.686  0.2143 -0.1723  0.0541
   42MOL   H32823370   0.197   5.286   2.792  0.0513  2.4134  1.2632
   42MOL   H32923371   0.204   5.133   2.882  0.5176  0.6243  0.8160
   42MOL   H33023372   0.068   5.386   2.953 -1.3533 -0.1843 -0.2529
   42MOL   H33123373   0.045   5.243   3.049  1.0619  0.8735  0.3955
   42MOL   H33223374   0.235   5.344   3.159  0.1264 -0.4558  0.4321
   42MOL   H33323375   0.310   5.226   3.055 -1.6195 -1.1154  0.5896
   42MOL   H33423376   0.637   5.504   2.798 -0.8744 -0.6106 -1.0922
   42MOL   H33523377   0.705   5.731   2.723  1.5341  0.0591  1.7966
   42MOL   H33623378   0.339   5.896   2.858 -0.0895  0.3367 -0.5910
   42MOL   H33723379   0.278   5.683   2.961  0.3676  3.8040  1.5625
   42MOL   O33823380   0.510   6.061   2.770  0.3219 -0.6551  0.2811
   42MOL   C33923381   0.532   6.189   2.713 -0.0971 -0.3367  0.3576
   42MOL   C34023382   0.511   6.307   2.815  0.4728 -0.0830  0.6559
   42MOL   C34123383   0.378   6.322   2.863 -0.1687  0.0061 -0.2184
   42MOL   C34223384   0.363   6.407   2.991 -0.3529  0.2866  0.4196
   42MOL   O34323385   0.228   6.406   3.036  0.1056  0.0577  0.2169
   42MOL   C34423386   0.189   6.471   3.150 -0.2278 -0.2734 -0.2279
   42MOL   O34523387   0.257   6.547   3.215 -0.5921  0.4645  0.0900
   42MOL   C34623388   0.049   6.456   3.176 -0.1256  0.0658 -0.0743
   42MOL   C34723389   8.080   6.334   3.155 -0.2691  0.2634  0.5356
   42MOL   C34823390   7.938   6.334   3.170  0.2910 -0.7309 -0.0711
   42MOL   C34923391   7.871   6.444   3.233  0.4308  1.0695 -0.7953
   42MOL   C35023392   7.730   6.433   3.271  0.5157  0.0448  0.2715
   42MOL   O35123393   7.654   6.359   3.208  0.6814 -0.1898  0.3055
   42MOL   C35223394   7.943   6.560   3.261 -0.0347 -0.1589  0.0921
   42MOL   C35323395   8.078   6.565   3.234  0.2576 -0.2526  0.6838
   42MOL   H35423396   0.640   6.183   2.698  0.0946 -0.9661  1.9562
   42MOL   H35523397   0.472   6.209   2.624 -0.2320 -0.6138  0.3839
   42MOL   H35623398   0.545   6.399   2.769  2.0648 -1.3359 -0.7313
   42MOL   H35723399   0.585   6.293   2.894  1.1245 -0.8540 -0.0841
   42MOL   H35823400   0.320   6.372   2.785 -0.8113 -0.9275 -0.3592
   42MOL   H35923401   0.325   6.227   2.872  0.1728 -0.1749 -0.1333
   42MOL   H36023402   0.407   6.355   3.076  1.2659  0.6724 -0.1624
   42MOL   H36123403   0.404   6.508   2.978 -1.8418  0.8532 -0.0382
   42MOL   H36223404   0.025   6.246   3.111 -1.6915 -0.6090  0.8400
   42MOL   H36323405   7.887   6.241   3.147 -0.5299  0.5272 -3.7001
   42MOL   H36423406   7.893   6.647   3.302  0.5050  0.8078 -1.2363
   42MOL   H36523407   0.036   6.656   3.251  1.0089 -0.5231 -0.2545
   42MOL   O36623408   7.687   6.527   3.353 -0.2170 -0.1649 -0.2946
   42MOL   C36723409   7.545   6.535   3.380  0.7046 -0.6561  0.3130
   42MOL   C36823410   7.524   6.679   3.436 -0.0378  0.1087 -0.3671
   42MOL   C36923411   7.490   6.784   3.332  0.5018  0.3194 -0.1036
   42MOL   C37023412   7.369   6.747   3.241  0.5511 -0.6705 -0.3730
   42MOL   O37123413   7.261   6.696   3.323  0.4233  0.4966  0.1880
   42MOL   C37223414   7.139   6.662   3.267 -0.5225 -0.0023  0.7849
   42MOL   O37323415   7.097   6.700   3.157  0.3995 -0.2113 -0.3650
   42MOL   C37423416   7.065   6.566   3.355 -0.0769  0.0972  0.2169
   42MOL   C37523417   7.117   6.523   3.476  0.7976  0.1300 -0.6578
   42MOL   C37623418   7.035   6.426   3.548  0.4050  0.1656  0.4322
   42MOL   C37723419   6.906   6.380   3.505 -0.6408 -0.2324  0.1139
   42MOL   C37823420   6.830   6.272   3.582  0.0590  0.7447 -0.3398
   42MOL   O37923421   6.712   6.243   3.558  0.3041  0.6575 -0.0043
   42MOL   C38023422   6.866   6.422   3.375 -0.2779 -0.2693  0.1787
   42MOL   C38123423   6.946   6.513   3.297 -0.1489  0.6097 -0.1189
   42MOL   H38223424   7.497   6.524   3.283  0.5256 -0.9786  0.4362
   42MOL   H38323425   7.513   6.453   3.444  0.2496 -0.8066 -0.1061
   42MOL   H38423426   7.618   6.709   3.484  0.1843 -1.8453  0.4539
   42MOL   H38523427   7.453   6.668   3.518  0.6707 -2.1299 -0.0334
   42MOL   H38623428   7.471   6.876   3.387  2.3631 -0.0446  1.2020
   42MOL   H38723429   7.576   6.798   3.266  2.1263 -0.4213  1.7706
   42MOL   H38823430   7.339   6.843   3.198  0.7527 -0.5048 -0.1476
   42MOL   H38923431   7.391   6.673   3.164  1.4746 -2.2510  1.3537
   42MOL   H39023432   7.209   6.561   3.520 -0.9858  3.3781  0.4276
   42MOL   H39123433   7.070   6.367   3.632 -1.8065 -0.3017  1.0401
   42MOL   H39223434   6.766   6.394   3.345 -0.1997 -0.6907  0.3047
   42MOL   H39323435   6.908   6.558   3.206 -2.0393  0.1360  0.3996
   42MOL   O39423436   6.900   6.217   3.691  0.4526 -0.1697  0.3357
   42MOL   C39523437   6.824   6.147   3.788 -0.1589  0.6558 -0.0919
   42MOL   C39623438   6.900   6.090   3.911 -0.3572 -0.9848  0.8203
   42MOL   C39723439   6.821   5.999   3.994 -0.2092 -0.8877 -0.6111
   42MOL   C39823440   6.885   5.972   4.130 -0.3075 -0.2324 -0.1030
   42MOL   O39923441   6.796   5.903   4.217  0.0746  0.4297  0.4888
   42MOL   C40023442   6.813   5.778   4.259 -0.1679  0.2510 -1.1180
   42MOL   O40123443   6.906   5.707   4.222 -0.4341 -0.3184 -0.5223
   42MOL   C40223444   6.716   5.741   4.364  0.3480 -0.1946  0.5318
   42MOL   C40323445   6.584   5.802   4.369 -0.1936 -0.9275  0.9273
   42MOL   C40423446   6.491   5.776   4.471 -0.3361 -0.1606  0.3516
   42MOL   C40523447   6.528   5.684   4.573  0.0514 -0.9790 -0.0694
   42MOL   C40623448   6.443   5.652   4.690 -0.6455 -0.0558 -0.2438
   42MOL   O40723449   6.484   5.615   4.803 -0.3577 -0.7222 -0.2092
   42MOL   C40823450   6.660   5.633   4.568  0.4320  0.1684  0.5386
   42MOL   C40923451   6.749   5.639   4.462 -0.1709  0.4010  0.8488
   42MOL   H41023452   6.734   6.202   3.816  1.0414  1.0482  3.1963
   42MOL   H41123453   6.784   6.060   3.736  2.2477 -0.0838 -0.7335
   42MOL   H41223454   6.938   6.173   3.971  0.6206  0.2281 -1.4115
   42MOL   H41323455   6.982   6.028   3.875  1.3918  2.2807 -1.0957
   42MOL   H41423456   6.723   6.044   4.006 -0.3459 -1.1698 -0.6655
   42MOL   H41523457   6.798   5.903   3.947 -1.2401 -0.2819 -1.3469
   42MOL   H41623458   6.975   5.911   4.120  1.0457  1.7919 -0.6946
   42MOL   H41723459   6.924   6.062   4.178 -1.8053  0.1500  0.3998
   42MOL   H41823460   6.557   5.882   4.302 -0.3528 -1.2461  0.6102
   42MOL   H41923461   6.394   5.823   4.469 -1.7750 -3.0060  0.3304
   42MOL   H42023462   6.689   5.565   4.648  2.7695 -0.1840 -0.5623
   42MOL   H42123463   6.846   5.593   4.477  0.0614  0.1087 -1.2751
   42MOL   O42223464   6.323   5.663   4.654 -0.5377 -0.3242  0.0744
   42MOL   C42323465   6.222   5.669   4.748  0.1852  0.6239  0.0319
   42MOL   C42423466   6.144   5.542   4.724  0.4469  0.1260  0.4210
   42MOL   C42523467   6.012   5.558   4.807  0.3010 -0.4590  0.6555
   42MOL   C42623468   5.933   5.428   4.809 -0.5463  0.5350 -0.4700
   42MOL   O42723469   5.998   5.346   4.897 -0.2355  0.2044  0.4588
   42MOL   C42823470   5.967   5.342   5.029 -0.1687  0.0173  0.3988
   42MOL   O42923471   5.878   5.414   5.075 -0.7602 -0.2842  0.3682
   42MOL   C43023472   6.034   5.238   5.110  0.3089  0.0800 -0.0799
   42MOL   C43123473   6.132   5.152   5.061 -0.5115  0.2377 -0.0111
   42MOL   C43223474   6.202   5.059   5.140  0.1441 -0.4817  0.1663
   42MOL   C43323475   6.149   5.038   5.269  0.4909 -0.5366 -0.1953
   42MOL   C43423476   6.219   4.935   5.350 -0.1243  0.3093 -0.0631
   42MOL   O43523477   6.258   4.828   5.296 -0.6390 -0.4157  0.3556
   42MOL   C43623478   6.042   5.116   5.321 -0.0281 -0.1114  0.0670
   42MOL   C43723479   5.994   5.219   5.241  0.0598 -0.3971 -0.1066
   42MOL   H43823480   6.245   5.693   4.852  0.8017 -1.1728  0.3251
   42MOL   H43923481   6.155   5.748   4.715 -0.0409  0.4345  0.0398
   42MOL   H44023482   6.202   5.453   4.747  0.0808  0.1624  1.5189
   42MOL   H44123483   6.113   5.549   4.620 -0.3342  0.9143  0.6952
   42MOL   H44223484   6.035   5.602   4.904 -0.2144 -0.6075  0.8489
   42MOL   H44323485   5.949   5.634   4.760 -0.0708 -0.9685  0.3346
   42MOL   H44423486   5.829   5.441   4.841  0.2287  0.8387  2.0014
   42MOL   H44523487   5.942   5.382   4.711  0.8566 -2.4280  0.9826
   42MOL   H44623488   6.155   5.162   4.957 -3.6420  0.6238 -0.7223
   42MOL   H44723489   6.280   4.997   5.098  0.0559 -0.1080 -0.5665
   42MOL   H44823490   5.997   5.099   5.417 -2.2517  0.6297 -0.8155
   42MOL   H44923491   5.914   5.279   5.282  1.5255  1.0484  0.7135
   42MOL   O45023492   6.236   4.968   5.482 -0.5024 -0.2416  0.1504
   42MOL   C45123493   6.296   4.874   5.576  1.0807 -0.0277 -0.4166
   42MOL   C45223494   6.182   4.823   5.674 -0.5459  1.1873  0.2313
   42MOL   C45323495   6.224   4.763   5.804  0.5821  0.2893 -0.5060
   42MOL   C45423496   6.270   4.865   5.915 -0.5746  0.7787  0.0500
   42MOL   O45523497   6.291   4.796   6.032 -0.9595  0.6256 -0.3760
   42MOL   C45623498   6.339   4.852   6.131  0.6595  0.3197  0.1872
   42MOL   O45723499   6.368   4.970   6.144 -0.6314  0.1321 -0.4404
   42MOL   C45823500   6.358   4.756   6.243 -0.8827  0.3291  0.9125
   42MOL   C45923501   6.389   4.806   6.371 -0.3543 -0.1904 -0.0722
   42MOL   C46023502   6.412   4.716   6.479  0.2818 -0.1768  0.9162
   42MOL   C46123503   6.371   4.579   6.469 -0.3432 -0.1633 -0.7948
   42MOL   C46223504   6.372   4.487   6.591 -0.2865 -0.2066 -0.4053
   42MOL   O46323505   6.416   4.528   6.702  0.3455  0.2310 -0.0123
   42MOL   C46423506   6.351   4.528   6.339 -0.5590 -0.2405 -0.2345
   42MOL   C46523507   6.349   4.614   6.229  0.1896 -0.2624 -0.4622
   42MOL   H46623508   6.358   4.801   5.524  0.3379 -1.9318  1.2979
   42MOL   H46723509   6.379   4.928   5.621  1.9796 -0.9785 -0.9260
   42MOL   H46823510   6.120   4.751   5.621  0.8919  0.4476 -0.4806
   42MOL   H46923511   6.122   4.911   5.696 -1.6433  1.1303 -2.3935
   42MOL   H47023512   6.134   4.716   5.843  0.9456 -0.6642 -0.8171
   42MOL   H47123513   6.301   4.686   5.793 -0.6383 -1.4058  2.3285
   42MOL   H47223514   6.356   4.924   5.882  1.6404 -2.4475 -0.2094
   42MOL   H47323515   6.192   4.939   5.930 -0.7586  0.8296 -1.1698
   42MOL   H47423516   6.392   4.912   6.392  1.1184 -0.8489  3.3992
   42MOL   H47523517   6.442   4.759   6.574 -0.0829  0.2840  0.8258
   42MOL   H47623518   6.337   4.423   6.316 -3.9462  0.1151  0.0794
   42MOL   H47723519   6.335   4.576   6.129 -1.4347 -0.5427 -0.1433
   42MOL   O47823520   6.313   4.371   6.563 -0.0326  0.4960  1.0030
   42MOL   C47923521   6.291   4.278   6.663  0.0780  0.0648  0.4458
   42MOL   C48023522   6.151   4.214   6.629  0.6338 -0.3755 -0.1652
   42MOL   C48123523   6.134   4.124   6.504 -0.6369  0.3353 -0.5337
   42MOL   C48223524   5.984   4.136   6.454  0.4871 -0.5832 -0.1910
   42MOL   O48323525   5.946   4.259   6.400 -0.6118 -0.0859  0.0151
   42MOL   C48423526   6.004   4.310   6.287 -0.8696 -0.0280  0.7362
   42MOL   O48523527   6.066   4.239   6.211  0.3724 -0.2408  0.5599
   42MOL   C48623528   5.995   4.466   6.273  0.6489  0.2204 -0.2769
   42MOL   C48723529   6.005   4.523   6.149  0.2686  0.4711 -0.2334
   42MOL   C48823530   6.008   4.660   6.132  0.1055 -0.2592 -0.7340
   42MOL   C48923531   5.997   4.741   6.247  0.1148 -0.0941 -0.5713
   42MOL   C49023532   5.980   4.888   6.230 -0.5841  0.3313  0.1858
   42MOL   O49123533   6.009   4.972   6.313 -0.0573 -0.1520  0.0762
   42MOL   C49223534   5.977   4.682   6.378 -0.5289 -0.0465  0.4533
   42MOL   C49323535   5.970   4.542   6.386 -0.2763  0.5276  0.1436
   42MOL   H49423536   6.367   4.203   6.641  1.2870  1.4213 -0.0803
   42MOL   H49523537   6.297   4.318   6.765  1.0872  0.3153  0.2888
   42MOL   H49623538   6.076   4.293   6.622  1.3552  0.2787 -0.7331
   42MOL   H49723539   6.111   4.150   6.707 -0.7502  0.8321  0.1478
   42MOL   H49823540   6.195   4.169   6.425 -0.7416  2.0315  0.3165
   42MOL   H49923541   6.169   4.022   6.517 -0.0426  0.7032  0.8599
   42MOL   H50023542   5.964   4.052   6.387 -0.7225  0.4116 -1.1056
   42MOL   H50123543   5.921   4.109   6.538  0.3832  1.1502  0.3038
   42MOL   H50223544   6.019   4.451   6.070 -1.4703  0.5361 -0.6132
   42MOL   H50323545   6.013   4.704   6.033 -1.3932  0.2023 -0.6236
   42MOL   H50423546   5.967   4.739   6.469  1.3542 -1.0702  1.3462
   42MOL   H50523547   5.965   4.493   6.482  0.5941 -0.2589 -0.2061
   42MOL   O50623548   5.923   4.914   6.109 -0.3798 -0.2796 -0.2762
   42MOL   C50723549   5.903   5.048   6.065  0.5017 -0.6049 -0.7375
   42MOL   C50823550   5.755   5.085   6.090 -0.5139 -0.2795  0.3047
   42MOL   C50923551   5.694   5.197   6.007 -0.1188 -0.0770 -0.0108
   42MOL   C51023552   5.548   5.225   6.040  0.2993 -1.0884  0.1384
   42MOL   O51123553   5.482   5.330   5.972  0.1840 -0.3652  0.3082
   42MOL   C51223554   5.411   5.314   5.857 -0.2659 -0.5074 -0.2949
   42MOL   O51323555   5.402   5.211   5.794  0.0483  0.1737  0.0785
   42MOL   C51423556   5.327   5.429   5.829 -0.7224 -0.3230 -0.2756
   42MOL   C51523557   5.318   5.548   5.900 -0.2152 -0.9921  0.5159
   42MOL   C51623558   5.243   5.658   5.852 -0.9699 -0.5488 -0.2203
   42MOL   C51723559   5.167   5.652   5.729 -0.3687  0.6562 -0.9723
   42MOL   C51823560   5.093   5.772   5.677 -0.1011  0.6921 -0.4898
   42MOL   O51923561   5.026   5.762   5.575 -0.4449 -0.0907 -0.4677
   42MOL   C52023562   5.160   5.526   5.664 -0.2793  0.6141  0.1063
   42MOL   C52123563   5.242   5.417   5.714 -0.2383  0.2116 -0.7477
   42MOL   H52223564   5.968   5.118   6.118  0.2544 -0.7637 -0.2158
   42MOL   H52323565   5.908   5.050   5.957  0.1163  0.2774 -0.7481
   42MOL   H52423566   5.738   5.109   6.195 -0.3664  1.1349  0.0184
   42MOL   H52523567   5.698   4.995   6.064  1.4929 -1.5785  0.2755
   42MOL   H52623568   5.744   5.293   6.022 -2.5031  1.2507 -0.2975
   42MOL   H52723569   5.698   5.160   5.905 -0.5746  0.9182 -0.3943
   42MOL   H52823570   5.497   5.129   6.045 -0.5587 -0.6141  0.5926
   42MOL   H52923571   5.552   5.253   6.146  0.0860 -1.7215  0.3152
   42MOL   H53023572   5.380   5.557   5.988  2.6961  0.5130 -1.6259
   42MOL   H53123573   5.248   5.755   5.899  1.5518 -2.0602  2.8212
   42MOL   H53223574   5.118   5.515   5.565 -2.0909  0.8212  0.8271
   42MOL   H53323575   5.249   5.331   5.649  0.4432 -0.4362  0.1730
   42MOL   O53423576   5.108   5.883   5.752  0.3143 -0.1677 -0.3976
   42MOL   C53523577   5.044   6.001   5.715 -0.7011  0.4263  0.1332
   42MOL   C53623578   5.115   6.130   5.766  0.6183 -0.1024 -0.1587
   42MOL   C53723579   5.142   6.122   5.912 -0.0156  0.0742 -0.1730
   42MOL   C53823580   5.230   6.228   5.962 -0.1937  0.0247 -0.2299
   42MOL   O53923581   5.265   6.221   6.101  0.5566 -0.5951  0.7169
   42MOL   C54023582   5.174   6.254   6.201  0.7550  0.0108 -0.4830
   42MOL   O54123583   5.056   6.279   6.175 -0.0027  0.2500 -0.2152
   42MOL   C54223584   5.244   6.265   6.334  0.6053  0.0469  0.1588
   42MOL   C54323585   5.176   6.324   6.443  0.6041 -0.9672 -0.0357
   42MOL   C54423586   5.234   6.336   6.569 -0.6525  0.4366  0.1509
   42MOL   C54523587   5.369   6.301   6.587 -0.3094 -0.1261 -0.4319
   42MOL   C54623588   5.438   6.335   6.722 -0.2773  0.1064  0.1516
   42MOL   O54723589   5.384   6.366   6.830 -0.2526 -0.0267 -0.2655
   42MOL   C54823590   5.443   6.251   6.481  0.7795 -0.8068 -0.4395
   42MOL   C54923591   5.384   6.239   6.353  0.0230  0.6446 -0.0877
   42MOL   H55023592   5.031   6.005   5.607 -0.2958  0.9707  0.1017
   42MOL   H55123593   4.946   5.999   5.763 -0.8111  2.7595  0.0623
   42MOL   H55223594   5.049   6.215   5.750 -0.5369 -0.4728  2.3328
   42MOL   H55323595   5.203   6.148   5.705  0.4111  0.4610 -0.2944
   42MOL   H55423596   5.051   6.110   5.970 -0.2288 -0.8804 -0.6806
   42MOL   H55523597   5.202   6.036   5.940  0.8275  0.9159  0.6052
   42MOL   H55623598   5.325   6.226   5.909 -0.2984 -0.5626 -0.3958
   42MOL   H55723599   5.187   6.323   5.928 -1.6392 -0.2836  0.6956
   42MOL   H55823600   5.074   6.354   6.428  0.5633 -1.1118 -0.0427
   42MOL   H55923601   5.173   6.379   6.647 -1.1321 -0.2752  0.1754
   42MOL   H56023602   5.548   6.233   6.498  1.3266  1.5542 -1.0346
   42MOL   H56123603   5.455   6.214   6.275  1.2158 -1.4494  1.5981
   42MOL   H56223604   5.547   6.326   6.726 -0.3343 -0.2987  0.9494
   43MOL     O123605   4.055   7.999   2.571  0.0220 -0.4884 -0.0008
   43MOL     C223606   3.962   7.956   2.468  0.2001  0.0851 -0.0202
   43MOL     C323607   3.890   7.825   2.507  0.4782 -0.9199 -0.2921
   43MOL     C423608   3.803   7.856   2.635  0.0463  0.0410 -0.1955
   43MOL     C523609   3.686   7.965   2.617  0.4717  0.5786 -0.8867
   43MOL     O623610   3.598   7.951   2.728  0.3831 -0.0467 -0.0208
   43MOL     C723611   3.492   8.032   2.737 -0.6966  0.5706  0.1555
   43MOL     O823612   3.453   0.007   2.644 -0.6092  0.2535 -0.3215
   43MOL     C923613   3.432   8.026   2.878 -0.2557 -0.6900  0.6126
   43MOL    C1023614   3.304   8.082   2.899  0.5558  0.1446 -0.2513
   43MOL    C1123615   3.238   8.082   3.021  0.3184  0.1528 -0.5450
   43MOL    C1223616   3.298   8.016   3.131  1.4439 -0.0748  0.3031
   43MOL    C1323617   3.228   7.997   3.261 -0.2235 -0.0445  0.0318
   43MOL    O1423618   3.273   7.920   3.349 -0.6132 -0.4269  0.0309
   43MOL    C1523619   3.427   7.969   3.118  0.2539  0.5856  0.1809
   43MOL    C1623620   3.491   7.965   2.995 -0.4305 -1.3682 -1.0871
   43MOL    H1723621   3.885   8.028   2.440  0.8156  0.3896 -0.9685
   43MOL    H1823622   4.000   7.940   2.367 -0.5767 -3.2303  0.1674
   43MOL    H1923623   3.960   7.741   2.516  0.3706 -1.0250 -0.4376
   43MOL    H2023624   3.828   7.803   2.421  1.9247  0.5057 -1.7473
   43MOL    H2123625   3.762   7.761   2.667  1.0524  0.4705  2.5251
   43MOL    H2223626   3.863   7.898   2.716  1.2453  1.5687 -1.8196
   43MOL    H2323627   3.732   8.062   2.598  2.5800  0.0604  1.3442
   43MOL    H2423628   3.626   7.950   2.528 -0.2147 -0.4328 -0.2631
   43MOL    H2523629   3.252   0.017   2.810 -2.5312 -1.5808  0.8472
   43MOL    H2623630   3.145   0.037   3.037 -1.6334 -2.8460 -1.5195
   43MOL    H2723631   3.480   7.941   3.208 -0.5435  3.7210  1.7148
   43MOL    H2823632   3.592   7.930   2.979  0.1041 -0.4351  0.1682
   43MOL    H2923633   4.125   7.935   2.570  1.3953  0.9262  1.1494
   43MOL    O3023634   3.112   8.056   3.269 -0.1498  0.1909 -0.4805
   43MOL    C3123635   3.044   8.060   3.387 -0.3836  0.0782 -0.7074
   43MOL    C3223636   3.096   0.059   3.491  0.0505  0.3464 -0.2589
   43MOL    C3323637   3.016   0.056   3.631 -0.1158 -0.5786  0.3856
   43MOL    C3423638   3.083   0.137   3.740 -0.1438 -0.0008 -0.6569
   43MOL    O3523639   3.081   0.274   3.717  0.0169 -0.1008  0.2072
   43MOL    C3623640   3.130   0.368   3.799  0.8797  0.3811  0.4606
   43MOL    O3723641   3.161   0.341   3.917  0.0779 -0.2546  0.4885
   43MOL    C3823642   3.124   0.505   3.746  1.0125  0.0725  0.1649
   43MOL    C3923643   3.093   0.542   3.610  0.1907  0.3863 -0.0064
   43MOL    C4023644   3.084   0.677   3.578 -0.2153  0.2968  0.4140
   43MOL    C4123645   3.108   0.779   3.674 -0.2304 -0.4871 -0.7885
   43MOL    C4223646   3.106   0.923   3.632  0.0296  0.8869 -0.0682
   43MOL    O4323647   3.078   0.958   3.519  0.4901 -0.2291 -0.7542
   43MOL    C4423648   3.137   0.739   3.804 -0.9388  0.2991 -0.9095
   43MOL    C4523649   3.151   0.606   3.846 -0.0835 -0.6516 -0.1201
   43MOL    H4623650   2.946   8.093   3.353 -0.3003 -0.4661 -1.5028
   43MOL    H4723651   3.034   7.966   3.443  2.0175  0.2958  0.1510
   43MOL    H4823652   3.090   0.159   3.448 -2.2583  0.7048  0.8186
   43MOL    H4923653   3.197   0.034   3.525 -1.3018 -2.3579  2.0948
   43MOL    H5023654   2.916   0.099   3.628  0.6778  1.2804 -0.3246
   43MOL    H5123655   3.006   8.055   3.674 -2.3461 -0.1393  0.9340
   43MOL    H5223656   3.012   0.124   3.822  1.5093 -1.4467  0.5889
   43MOL    H5323657   3.176   0.097   3.782 -0.1582  0.8174  0.1821
   43MOL    H5423658   3.070   0.464   3.540  1.7852  0.7255 -0.9273
   43MOL    H5523659   3.067   0.704   3.475  0.6051  3.3562  1.0460
   43MOL    H5623660   3.154   0.820   3.874  0.2301 -0.4972 -0.2670
   43MOL    H5723661   3.183   0.579   3.945 -0.9504 -1.5831 -0.0849
   43MOL    O5823662   3.134   1.015   3.729  0.6572 -0.6046  0.4253
   43MOL    C5923663   3.146   1.157   3.695  0.3416 -0.3493 -0.4054
   43MOL    C6023664   3.294   1.186   3.659  0.0232  0.0698 -0.2473
   43MOL    C6123665   3.392   1.156   3.777 -0.0578  0.0504  0.1578
   43MOL    C6223666   3.538   1.206   3.772  0.3600  0.0644 -0.2439
   43MOL    O6323667   3.531   1.339   3.820 -0.3842 -0.1458  0.3386
   43MOL    C6423668   3.618   1.430   3.795  0.2603 -0.0545  0.2431
   43MOL    O6523669   3.710   1.417   3.715  0.2381 -0.3843  0.0759
   43MOL    C6623670   3.613   1.547   3.877 -0.1153 -0.4755  0.2406
   43MOL    C6723671   3.722   1.636   3.868 -0.5968 -0.0035 -1.0288
   43MOL    C6823672   3.722   1.752   3.955 -0.0917 -0.0860  0.8059
   43MOL    C6923673   3.619   1.772   4.053 -0.1023  0.4553  0.6495
   43MOL    C7023674   3.620   1.884   4.142  0.1986  0.5657  0.3735
   43MOL    O7123675   3.714   1.954   4.178 -0.4599  0.1870 -0.2915
   43MOL    C7223676   3.518   1.675   4.062 -0.1207  0.8104  0.3796
   43MOL    C7323677   3.515   1.563   3.978 -1.0364 -0.2507 -0.3624
   43MOL    H7423678   3.076   1.179   3.614 -0.3239 -0.7608  0.0575
   43MOL    H7523679   3.112   1.221   3.776 -0.3310 -0.6673 -0.4273
   43MOL    H7623680   3.304   1.292   3.633  0.5202  1.0918  3.7271
   43MOL    H7723681   3.310   1.127   3.569  0.2214 -0.4406  0.1208
   43MOL    H7823682   3.338   1.172   3.871 -2.3691 -0.5481 -1.0174
   43MOL    H7923683   3.396   1.047   3.779 -0.9122  0.0234  0.8780
   43MOL    H8023684   3.596   1.149   3.845 -2.7872 -0.4425  1.9071
   43MOL    H8123685   3.585   1.199   3.673  1.5606 -3.7525  0.5117
   43MOL    H8223686   3.808   1.625   3.805  0.1674  2.1134 -0.3988
   43MOL    H8323687   3.807   1.819   3.944  0.6937 -1.4838 -2.3149
   43MOL    H8423688   3.452   1.683   4.147 -1.9566  0.6691 -0.9807
   43MOL    H8523689   3.437   1.491   3.997 -0.4418 -1.2476 -1.6156
   43MOL    O8623690   3.490   1.917   4.182 -0.5975 -0.2632  0.3754
   43MOL    C8723691   3.477   2.034   4.251  0.2368  0.2387  0.6459
   43MOL    C8823692   3.325   2.044   4.272  0.1561  0.9255  0.2039
   43MOL    C8923693   3.257   1.951   4.365  0.6482  0.7518  0.5659
   43MOL    C9023694   3.316   1.932   4.499 -0.2965 -0.8843  0.2342
   43MOL    O9123695   3.274   2.036   4.583  0.6031 -0.1357 -0.0452
   43MOL    C9223696   3.363   2.133   4.615  0.0952 -0.8847  0.3768
   43MOL    O9323697   3.484   2.115   4.599 -0.1766  0.4264 -0.0983
   43MOL    C9423698   3.301   2.255   4.656 -0.0918 -0.5688 -0.5386
   43MOL    C9523699   3.166   2.281   4.635 -0.1011 -0.5187 -0.2473
   43MOL    C9623700   3.099   2.392   4.683 -0.6223  0.0970 -0.5390
   43MOL    C9723701   3.186   2.487   4.748 -0.4618  0.4415  0.1054
   43MOL    C9823702   3.127   2.619   4.808  0.1463 -0.0543 -0.2077
   43MOL    O9923703   3.192   2.719   4.837 -0.2793  0.2705 -0.6009
   43MOL   C10023704   3.323   2.475   4.760 -0.8208  0.6376  0.0770
   43MOL   C10123705   3.382   2.355   4.720 -0.1350  0.6912 -0.3910
   43MOL   H10223706   3.535   2.010   4.340 -0.2388 -0.2563  0.8286
   43MOL   H10323707   3.518   2.123   4.205  0.9225 -0.5129 -0.1987
   43MOL   H10423708   3.285   2.033   4.172 -0.8535  0.0027  0.6990
   43MOL   H10523709   3.304   2.147   4.303 -0.1218  0.8577  0.2375
   43MOL   H10623710   3.153   1.981   4.380  0.5318  1.3357 -1.2849
   43MOL   H10723711   3.243   1.848   4.330  1.1270  0.3109  1.6770
   43MOL   H10823712   3.274   1.842   4.543 -1.0808  0.1974  1.7249
   43MOL   H10923713   3.422   1.905   4.501  0.5379  2.2125  1.9516
   43MOL   H11023714   3.102   2.205   4.591 -2.3977  1.6481 -0.7436
   43MOL   H11123715   2.995   2.418   4.673 -0.4047  0.6497 -1.4153
   43MOL   H11223716   3.379   2.559   4.800  2.0273 -0.0122 -2.3149
   43MOL   H11323717   3.488   2.344   4.740  0.3820  0.2579 -3.1640
   43MOL   O11423718   2.991   2.610   4.831  0.7852 -0.7223  0.6250
   43MOL   C11523719   2.914   2.717   4.875  0.4154  0.0082 -0.3674
   43MOL   C11623720   2.852   2.792   4.753 -0.2263 -0.5861  0.0332
   43MOL   C11723721   2.761   2.905   4.803  0.3970  0.1713 -0.1119
   43MOL   C11823722   2.687   2.990   4.695  0.3885 -0.2879  0.2657
   43MOL   O11923723   2.611   3.084   4.760  0.2645 -0.0898 -0.4467
   43MOL   C12023724   2.494   3.061   4.811  0.2130  1.1298 -0.6580
   43MOL   O12123725   2.444   2.945   4.819  0.4073  0.4209 -0.2272
   43MOL   C12223726   2.433   3.185   4.861  0.2730  0.2262  0.6608
   43MOL   C12323727   2.292   3.185   4.881  0.0814 -0.2458  0.3285
   43MOL   C12423728   2.226   3.302   4.921  0.0163 -0.2996 -0.0355
   43MOL   C12523729   2.312   3.417   4.952  0.2203 -0.6395  0.5623
   43MOL   C12623730   2.255   3.539   5.009 -0.0260 -1.1898 -0.8694
   43MOL   O12723731   2.328   3.635   5.046 -0.0844  0.1239 -0.1168
   43MOL   C12823732   2.452   3.408   4.934 -0.2535 -0.8340  0.0827
   43MOL   C12923733   2.513   3.295   4.892 -0.5870 -0.4047  0.1257
   43MOL   H13023734   2.841   2.686   4.950  0.1248 -1.0074 -1.0571
   43MOL   H13123735   2.972   2.787   4.935  0.3011 -0.6756  0.5573
   43MOL   H13223736   2.802   2.722   4.686  0.5928 -0.2002 -1.0084
   43MOL   H13323737   2.927   2.832   4.684 -1.7512  0.8307 -0.8660
   43MOL   H13423738   2.687   2.855   4.866  0.7324 -0.6189 -0.3379
   43MOL   H13523739   2.817   2.978   4.862  0.7252 -1.0163  1.0681
   43MOL   H13623740   2.767   3.049   4.651 -0.8988  0.8691 -0.5541
   43MOL   H13723741   2.630   2.938   4.617 -0.3014  0.7774  0.0592
   43MOL   H13823742   2.235   3.094   4.869  1.5044 -0.8442 -2.2198
   43MOL   H13923743   2.120   3.301   4.941  0.4259 -1.6409  2.2222
   43MOL   H14023744   2.515   3.496   4.941  0.3770 -1.2616 -0.2442
   43MOL   H14123745   2.619   3.296   4.873 -0.4438  0.2764  0.9721
   43MOL   O14223746   2.119   3.541   5.014 -0.1430  0.1409  0.3046
   43MOL   C14323747   2.058   3.663   5.019 -0.4107  0.3803  0.2258
   43MOL   C14423748   1.909   3.631   5.012  0.3265 -0.0926  0.4026
   43MOL   C14523749   1.816   3.757   5.014  0.4994  0.5165 -0.0493
   43MOL   C14623750   1.666   3.723   5.021 -0.4580  0.4152  0.0945
   43MOL   O14723751   1.599   3.844   5.033  0.0845 -0.1500 -0.4755
   43MOL   C14823752   1.475   3.862   4.990 -0.2971 -0.1755  0.1014
   43MOL   O14923753   1.421   3.777   4.922  0.2025 -0.0915  0.3729
   43MOL   C15023754   1.429   4.002   5.023 -0.2146 -1.2893 -0.0793
   43MOL   C15123755   1.295   4.043   4.998 -0.2210  0.1884  0.0838
   43MOL   C15223756   1.250   4.173   5.035  0.2041 -0.7101 -0.1546
   43MOL   C15323757   1.344   4.264   5.098  0.8345 -0.0558 -0.6694
   43MOL   C15423758   1.312   4.400   5.139 -0.1368  0.1733 -0.0230
   43MOL   O15523759   1.398   4.488   5.145 -0.1243 -0.4397 -0.4382
   43MOL   C15623760   1.480   4.228   5.101 -0.4581  0.8068 -0.1639
   43MOL   C15723761   1.518   4.098   5.071 -0.1297 -0.2676 -0.0830
   43MOL   H15823762   2.087   3.716   5.110  1.2344 -0.7362  0.3661
   43MOL   H15923763   2.081   3.726   4.933 -1.9359  1.2087  0.4123
   43MOL   H16023764   1.885   3.562   5.093 -0.8772 -0.7823 -0.5271
   43MOL   H16123765   1.886   3.578   4.920  0.4000  1.9458 -0.8225
   43MOL   H16223766   1.855   3.807   5.104  0.0746 -2.0762  1.6266
   43MOL   H16323767   1.833   3.818   4.926 -0.2120 -0.3466 -0.7806
   43MOL   H16423768   1.620   3.667   4.939  0.5597 -1.1125  0.5770
   43MOL   H16523769   1.641   3.648   5.095  1.6620 -1.5384 -1.1207
   43MOL   H16623770   1.227   3.965   4.967 -2.0970  2.2040 -1.0121
   43MOL   H16723771   1.144   4.192   5.025  0.7887  1.3225 -3.4546
   43MOL   H16823772   1.558   4.292   5.139 -0.5093  1.7068 -1.5292
   43MOL   H16923773   1.617   4.066   5.100 -0.1114 -1.0259 -0.9369
   43MOL   O17023774   1.185   4.423   5.148  0.6340  0.0238 -0.5903
   43MOL   C17123775   1.133   4.556   5.166  0.0173  0.1289 -0.1460
   43MOL   C17223776   1.056   4.570   5.295 -0.2814  0.7734 -0.2870
   43MOL   C17323777   0.970   4.692   5.314 -0.2056 -0.0240 -0.0706
   43MOL   C17423778   1.056   4.823   5.326  0.1588  0.8637 -0.1199
   43MOL   O17523779   0.963   4.916   5.380  0.1347 -0.5579  0.0981
   43MOL   C17623780   0.978   5.052   5.375 -0.6832 -0.7462 -0.1368
   43MOL   O17723781   1.079   5.109   5.333 -0.1841  0.4242  0.1498
   43MOL   C17823782   0.854   5.124   5.426  0.2710  0.3820 -0.3300
   43MOL   C17923783   0.815   5.252   5.385 -0.5972 -0.5414 -0.8450
   43MOL   C18023784   0.691   5.309   5.433  0.6160 -0.9160 -0.4406
   43MOL   C18123785   0.601   5.242   5.515  0.1353  0.5605  0.0709
   43MOL   C18223786   0.482   5.305   5.569 -0.5002 -0.5376 -0.4510
   43MOL   O18323787   0.440   5.412   5.523 -0.3644  0.3140 -0.0086
   43MOL   C18423788   0.634   5.108   5.546  0.4350 -0.3391  0.0493
   43MOL   C18523789   0.757   5.057   5.501  0.2443  0.2226  0.1828
   43MOL   H18623790   1.211   4.632   5.160 -0.9597  0.9920 -3.0710
   43MOL   H18723791   1.077   4.584   5.076  1.1582  1.2517 -0.5237
   43MOL   H18823792   1.113   4.548   5.386 -0.3975 -0.8017 -0.5759
   43MOL   H18923793   0.983   4.489   5.294  0.1877  0.3521 -0.7909
   43MOL   H19023794   0.899   4.718   5.235 -1.0009  1.6297  1.1682
   43MOL   H19123795   0.912   4.693   5.406 -0.1132  2.1716 -0.0211
   43MOL   H19223796   1.146   4.805   5.384  1.5812  0.0811 -2.4724
   43MOL   H19323797   1.087   4.866   5.231  3.1590  0.9385  0.8494
   43MOL   H19423798   0.869   5.319   5.319 -0.6731 -0.7785 -1.1469
   43MOL   H19523799   0.661   5.407   5.399 -2.0773 -1.0892  1.2817
   43MOL   H19623800   0.572   5.058   5.620 -0.8288 -2.1671 -2.1820
   43MOL   H19723801   0.781   4.955   5.528  0.8584 -0.5374 -3.0417
   43MOL   O19823802   0.432   5.248   5.677  0.2348 -0.0656  0.3440
   43MOL   C19923803   0.309   5.295   5.742 -0.2804  0.2367  0.2351
   43MOL   C20023804   0.180   5.236   5.678  0.7248  0.0136 -0.4119
   43MOL   C20123805   0.169   5.087   5.690 -0.0355 -0.2706  0.8052
   43MOL   C20223806   0.069   5.016   5.598  0.0392 -0.2720  0.0452
   43MOL   O20323807   8.035   5.062   5.617 -0.1510  0.0875  0.0111
   43MOL   C20423808   7.977   5.146   5.532 -0.9332  0.0029 -0.1688
   43MOL   O20523809   8.036   5.204   5.440 -0.0677 -0.0056  0.2410
   43MOL   C20623810   7.840   5.183   5.559  0.1754 -0.3222 -0.2244
   43MOL   C20723811   7.775   5.126   5.669 -0.1248 -0.4229  0.7532
   43MOL   C20823812   7.641   5.143   5.701 -0.6044  0.0600 -0.1482
   43MOL   C20923813   7.567   5.237   5.619  0.3777  0.3187  0.5924
   43MOL   C21023814   7.431   5.281   5.652  0.3784  0.3895  0.4985
   43MOL   O21123815   7.376   5.379   5.596 -0.2110  0.3793 -0.0900
   43MOL   C21223816   7.628   5.282   5.501  0.0786 -0.0043  0.3182
   43MOL   C21323817   7.762   5.258   5.473  0.6028 -0.0742  0.2464
   43MOL   H21423818   0.318   5.257   5.844  1.1572  0.0695  0.0600
   43MOL   H21523819   0.311   5.404   5.748 -0.1453  0.1836  1.3764
   43MOL   H21623820   0.165   5.269   5.576 -1.4475 -1.3065 -0.5284
   43MOL   H21723821   0.098   5.263   5.744  1.6002  0.9692  0.3166
   43MOL   H21823822   0.267   5.042   5.677  0.6382  1.1649  0.8088
   43MOL   H21923823   0.137   5.060   5.791 -1.0320  3.2807  1.5411
   43MOL   H22023824   0.092   5.029   5.492  2.0556 -2.2682  0.2006
   43MOL   H22123825   0.080   4.909   5.614  3.0905 -0.1484 -0.9602
   43MOL   H22223826   7.832   5.065   5.738  0.9189  0.5452  0.7584
   43MOL   H22323827   7.602   5.100   5.792  0.5986  0.2702  0.4660
   43MOL   H22423828   7.575   5.348   5.433 -1.5956 -2.0222 -0.3591
   43MOL   H22523829   7.809   5.301   5.386 -1.0677 -1.6910 -1.4888
   43MOL   O22623830   7.359   5.205   5.732  0.3403 -0.4435 -0.2961
   43MOL   C22723831   7.217   5.230   5.754 -0.5888 -0.2960  0.1390
   43MOL   C22823832   7.122   5.161   5.657 -0.7443 -0.5990  0.3046
   43MOL   C22923833   7.106   5.221   5.523  0.0445  0.0552 -0.6773
   43MOL   C23023834   7.050   5.369   5.528 -0.6990 -0.1586 -0.1708
   43MOL   O23123835   7.043   5.422   5.395  0.3290  0.0098  0.0770
   43MOL   C23223836   7.004   5.549   5.372 -0.1442  0.4342  0.5040
   43MOL   O23323837   6.979   5.628   5.460  0.2924  0.4473 -0.2352
   43MOL   C23423838   6.984   5.584   5.226  0.4702 -0.3596  0.2100
   43MOL   C23523839   7.022   5.503   5.120 -0.2823  0.4698 -0.5909
   43MOL   C23623840   7.009   5.546   4.987 -1.0712 -0.7995 -0.3471
   43MOL   C23723841   6.945   5.668   4.955 -0.0760  0.1315 -0.4790
   43MOL   C23823842   6.928   5.713   4.816  0.7555 -0.2166  0.0219
   43MOL   O23923843   6.944   5.639   4.717 -0.1183 -0.2800  0.6775
   43MOL   C24023844   6.897   5.743   5.063 -0.1405  0.0574 -0.2720
   43MOL   C24123845   6.923   5.707   5.195 -0.8185  0.9024 -0.1397
   43MOL   H24223846   7.184   5.210   5.855 -2.3556  2.0791  0.0460
   43MOL   H24323847   7.210   5.338   5.747  0.4590 -0.1680  0.9357
   43MOL   H24423848   7.020   5.163   5.696 -0.6039  1.1835  0.6179
   43MOL   H24523849   7.157   5.058   5.657  0.4146 -0.2171  0.1052
   43MOL   H24623850   7.206   5.210   5.480  0.2316 -1.8198  0.1632
   43MOL   H24723851   7.052   5.157   5.453  1.0084 -1.5265 -0.0173
   43MOL   H24823852   6.949   5.375   5.569 -0.5889  0.9396 -0.0462
   43MOL   H24923853   7.115   5.440   5.579 -0.7956  0.8672 -1.4325
   43MOL   H25023854   7.078   5.413   5.138 -0.6845  0.1331 -1.0225
   43MOL   H25123855   7.053   5.486   4.908 -0.2359  1.9563 -2.0260
   43MOL   H25223856   6.845   5.835   5.042 -0.8926 -0.7136 -1.9179
   43MOL   H25323857   6.881   5.770   5.273  2.5689  1.2514  1.4807
   43MOL   O25423858   6.905   5.843   4.809  0.3437  0.2573 -0.0860
   43MOL   C25523859   6.860   5.900   4.687  0.4064  0.2036 -0.0078
   43MOL   C25623860   6.711   5.924   4.704  0.2710  0.1646 -0.0286
   43MOL   C25723861   6.665   6.040   4.785 -0.0349 -0.0444  0.4375
   43MOL   C25823862   6.516   6.018   4.839 -0.5342  0.6381  0.0730
   43MOL   O25923863   6.528   5.934   4.959 -0.2192 -0.7113  0.1151
   43MOL   C26023864   6.509   5.983   5.078 -0.1252 -0.4678  0.2934
   43MOL   O26123865   6.463   6.095   5.101  0.5105 -0.7459  0.4805
   43MOL   C26223866   6.527   5.881   5.189 -0.0904 -0.7123  0.1639
   43MOL   C26323867   6.495   5.909   5.321  0.4216  0.5907 -0.4438
   43MOL   C26423868   6.500   5.818   5.423  0.4421 -0.5705  0.3466
   43MOL   C26523869   6.544   5.685   5.397 -0.1727 -0.5699 -0.1038
   43MOL   C26623870   6.570   5.593   5.509 -0.0178  0.1289  0.0697
   43MOL   O26723871   6.581   5.475   5.492 -0.2722 -0.7428 -0.3446
   43MOL   C26823872   6.580   5.652   5.263 -0.4934 -0.0566 -0.7262
   43MOL   C26923873   6.563   5.748   5.161  0.4039  0.5320 -0.6467
   43MOL   H27023874   6.903   5.999   4.672  2.1580 -0.5344  0.0766
   43MOL   H27123875   6.870   5.841   4.595 -1.8684 -0.6660  0.2727
   43MOL   H27223876   6.669   5.838   4.757 -0.2414 -0.1472 -0.9313
   43MOL   H27323877   6.662   5.932   4.607 -3.1349  0.0348  1.5831
   43MOL   H27423878   6.735   6.048   4.869 -1.4862  0.1186  1.6437
   43MOL   H27523879   6.670   6.133   4.729  0.6822  0.3717  1.1758
   43MOL   H27623880   6.479   6.117   4.865  2.7207  2.4771 -1.8834
   43MOL   H27723881   6.457   5.979   4.757 -0.3799  0.7631 -0.0995
   43MOL   H27823882   6.471   6.009   5.355 -3.1225  0.2807 -1.8735
   43MOL   H27923883   6.477   5.858   5.521 -2.0352 -1.7317  0.2718
   43MOL   H28023884   6.622   5.554   5.247  1.2219  1.1159 -3.7986
   43MOL   H28123885   6.576   5.708   5.061  0.8600 -1.9753  0.3591
   43MOL   O28223886   6.586   5.650   5.628 -0.2235 -0.4282  0.3772
   43MOL   C28323887   6.586   5.575   5.745 -0.2872  0.2964 -0.1769
   43MOL   C28423888   6.465   5.603   5.846 -0.1214  0.8563  0.5009
   43MOL   C28523889   6.325   5.591   5.780 -0.2307 -0.4567  0.1296
   43MOL   C28623890   6.283   5.721   5.714  0.8160  0.2480  0.1681
   43MOL   O28723891   6.220   5.793   5.814 -0.0076 -0.4752  0.1568
   43MOL   C28823892   6.122   5.889   5.786 -0.1091 -0.7357  0.0088
   43MOL   O28923893   6.098   5.930   5.670 -0.6490  0.2744  0.0466
   43MOL   C29023894   6.055   5.952   5.902 -0.6291 -0.3629 -0.0905
   43MOL   C29123895   6.017   6.089   5.905 -0.3858  0.4678 -0.6477
   43MOL   C29223896   5.948   6.143   6.014  0.0925  1.0805 -0.1677
   43MOL   C29323897   5.923   6.056   6.123 -0.0462  0.0395  0.1694
   43MOL   C29423898   5.840   6.101   6.234 -0.7205 -0.0522 -0.3218
   43MOL   O29523899   5.764   6.196   6.235 -0.2783  0.1125  0.1634
   43MOL   C29623900   5.966   5.923   6.123  0.2349 -0.4583  0.5191
   43MOL   C29723901   6.034   5.866   6.017  0.7745 -0.2212 -0.2259
   43MOL   H29823902   6.617   5.471   5.734 -0.0971  0.5313 -2.1588
   43MOL   H29923903   6.677   5.616   5.789 -1.0566 -0.8950  2.5877
   43MOL   H30023904   6.476   5.697   5.899  1.7721  0.4071  0.9644
   43MOL   H30123905   6.488   5.546   5.936  0.2797  1.0806  0.5388
   43MOL   H30223906   6.321   5.522   5.696  2.3905 -0.8791  0.3345
   43MOL   H30323907   6.252   5.557   5.854 -0.7019  1.8745  0.7579
   43MOL   H30423908   6.370   5.777   5.680  0.4582 -0.8955 -2.7956
   43MOL   H30523909   6.214   5.690   5.635  0.1160  0.1673  0.8070
   43MOL   H30623910   6.044   6.152   5.821  1.1563 -0.3571 -0.7961
   43MOL   H30723911   5.916   6.246   6.016  1.6365  1.5591 -0.1996
   43MOL   H30823912   5.960   5.853   6.205  0.8659  1.5519  2.3280
   43MOL   H30923913   6.067   5.764   6.014  0.4736 -0.2735 -3.5885
   43MOL   O31023914   5.848   6.024   6.345  0.5824  0.2684  0.3938
   43MOL   C31123915   5.781   6.068   6.471 -0.3253  0.2888 -0.5569
   43MOL   C31223916   5.892   6.066   6.576 -0.2607  0.4440  0.3272
   43MOL   C31323917   5.912   5.929   6.632 -0.3869 -0.3227  0.0172
   43MOL   C31423918   6.047   5.899   6.695  0.4916  0.4214  0.1722
   43MOL   O31523919   6.141   5.920   6.593  0.0490  0.1879 -0.1950
   43MOL   C31623920   6.268   5.938   6.632  0.0750 -0.3329 -0.1789
   43MOL   O31723921   6.305   5.947   6.748 -0.0317 -0.1019 -0.3611
   43MOL   C31823922   6.364   5.953   6.512  0.0465  0.2986 -0.5568
   43MOL   C31923923   6.317   5.945   6.376 -0.2907 -0.3107  0.8480
   43MOL   C32023924   6.406   5.957   6.264  0.0765 -0.0584 -0.1815
   43MOL   C32123925   6.542   5.981   6.292 -0.0130 -0.1984  0.3175
   43MOL   C32223926   6.643   5.991   6.183 -0.1857 -0.6051 -0.7157
   43MOL   O32323927   6.764   5.991   6.209 -0.1334  0.2550  0.0538
   43MOL   C32423928   6.589   5.986   6.427 -0.2444  0.4229  0.0937
   43MOL   C32523929   6.499   5.970   6.531 -0.0414 -0.4878  0.0271
   43MOL   H32623930   5.758   6.173   6.458  2.7403  0.9694 -0.9470
   43MOL   H32723931   5.690   6.016   6.500  0.3452 -0.3408  0.4608
   43MOL   H32823932   5.867   6.128   6.662 -0.3705  0.9898 -0.0957
   43MOL   H32923933   5.987   6.104   6.539  0.7685 -1.8537  0.5346
   43MOL   H33023934   5.825   5.909   6.696 -0.6844 -2.6534 -1.0495
   43MOL   H33123935   5.888   5.859   6.552 -2.0271 -1.7652  1.7076
   43MOL   H33223936   6.069   5.953   6.787  0.5527  4.2057 -1.9196
   43MOL   H33323937   6.046   5.795   6.726  0.2914  0.3297 -0.1384
   43MOL   H33423938   6.213   5.923   6.358 -0.0002  0.4885 -1.9945
   43MOL   H33523939   6.368   5.944   6.163 -2.0482  1.5010  0.3604
   43MOL   H33623940   6.693   6.000   6.454  0.2909  0.6286 -2.0063
   43MOL   H33723941   6.526   5.972   6.636 -1.3550 -1.7032  0.3928
   43MOL   O33823942   6.596   6.003   6.053  0.4317  0.4943 -0.2048
   43MOL   C33923943   6.686   5.998   5.944 -0.0889 -0.5749 -0.4064
   43MOL   C34023944   6.632   5.953   5.808 -0.3555  0.1482  0.1130
   43MOL   C34123945   6.602   6.077   5.719 -0.1871  0.0334 -0.1595
   43MOL   C34223946   6.458   6.125   5.714 -0.3711  0.2274  0.4132
   43MOL   O34323947   6.419   6.157   5.850  0.0575 -0.0345 -0.7984
   43MOL   C34423948   6.464   6.278   5.904 -0.1419  0.0231 -0.5891
   43MOL   O34523949   6.542   6.357   5.858  0.6195 -0.2074 -0.1872
   43MOL   C34623950   6.404   6.312   6.035 -0.1127 -0.5348 -0.0790
   43MOL   C34723951   6.456   6.415   6.124  0.5332 -0.5491 -0.4171
   43MOL   C34823952   6.395   6.434   6.249  0.1996  0.2010  0.3349
   43MOL   C34923953   6.276   6.368   6.282 -0.0670  0.0867  0.2560
   43MOL   C35023954   6.192   6.393   6.405  0.6074  0.0429  0.6335
   43MOL   O35123955   6.100   6.318   6.435 -0.6473 -0.6022 -0.3630
   43MOL   C35223956   6.230   6.268   6.195 -1.2717 -0.2344  0.7757
   43MOL   C35323957   6.294   6.239   6.076  1.0218 -0.2272 -0.2228
   43MOL   H35423958   6.733   6.096   5.940 -1.8190  0.2722 -0.8367
   43MOL   H35523959   6.762   5.927   5.976  0.8227  0.3706 -0.4575
   43MOL   H35623960   6.544   5.891   5.825 -1.5120  1.7629  0.1575
   43MOL   H35723961   6.700   5.884   5.758 -1.4035  0.4827 -1.8269
   43MOL   H35823962   6.677   6.152   5.744  0.7171 -0.5552 -1.0161
   43MOL   H35923963   6.632   6.045   5.619  2.5644  0.0047  0.6351
   43MOL   H36023964   6.446   6.212   5.649  2.5204 -1.1334 -2.0974
   43MOL   H36123965   6.395   6.047   5.670  0.9043 -1.7566  2.0014
   43MOL   H36223966   6.547   6.467   6.097  0.8318  0.4901  2.3831
   43MOL   H36323967   6.432   6.505   6.322  0.4125  0.2460  0.1847
   43MOL   H36423968   6.138   6.216   6.219 -0.6531 -1.0420  1.4324
   43MOL   H36523969   6.238   6.171   6.014 -0.2064  0.5422  0.0173
   43MOL   O36623970   6.238   6.500   6.473  0.6606  0.0039  0.3674
   43MOL   C36723971   6.159   6.544   6.586 -0.1901 -0.2370 -0.2886
   43MOL   C36823972   6.202   6.479   6.713  0.1178  0.3301 -0.1573
   43MOL   C36923973   6.105   6.499   6.829  0.0282  0.4621 -0.1418
   43MOL   C37023974   6.131   6.426   6.959 -0.8002 -0.0888 -0.1518
   43MOL   O37123975   6.011   6.424   7.043  0.1717 -0.1940 -0.4887
   43MOL   C37223976   5.987   6.343   7.145  0.3004  0.7886  0.0253
   43MOL   O37323977   6.078   6.282   7.208  0.0523 -0.2914  0.0251
   43MOL   C37423978   5.841   6.330   7.178  0.3820  0.0922  0.1908
   43MOL   C37523979   5.743   6.412   7.115 -0.2156 -0.3360  0.5576
   43MOL   C37623980   5.601   6.402   7.130  0.2625  0.4689  0.5240
   43MOL   C37723981   5.556   6.294   7.212 -0.2394 -0.3590  0.0720
   43MOL   C37823982   5.419   6.277   7.250  0.0506 -0.7922 -0.5296
   43MOL   O37923983   5.366   6.176   7.295  0.0572  0.2638  0.0416
   43MOL   C38023984   5.652   6.212   7.280 -0.3187  0.2729 -0.1525
   43MOL   C38123985   5.790   6.226   7.267 -0.5670 -0.1445  0.1157
   43MOL   H38223986   6.173   6.652   6.579  1.5469 -0.4204  0.0927
   43MOL   H38323987   6.051   6.535   6.580 -0.3229 -0.7620  2.3715
   43MOL   H38423988   6.300   6.522   6.733  0.2820 -0.3331  0.4935
   43MOL   H38523989   6.205   6.372   6.694  0.2598 -0.0632  1.9277
   43MOL   H38623990   6.106   6.604   6.858  1.0728  0.1269  1.0761
   43MOL   H38723991   6.005   6.468   6.797  0.4862 -0.6153 -0.5435
   43MOL   H38823992   6.143   6.320   6.936  0.9700 -0.0213  0.3890
   43MOL   H38923993   6.216   6.462   7.018 -0.5913  0.2061 -0.6241
   43MOL   H39023994   5.774   6.493   7.050 -2.2982  1.0016  1.1610
   43MOL   H39123995   5.535   6.462   7.069  1.9361  0.5322 -1.3102
   43MOL   H39223996   5.619   6.132   7.345 -0.8747  1.0378  0.5131
   43MOL   H39323997   5.858   6.154   7.311 -1.0468 -0.1625  0.8235
   43MOL   O39423998   5.350   6.391   7.220 -0.2144  0.6386 -0.5444
   43MOL   C39523999   5.214   6.406   7.256  0.0850 -0.4722  0.1538
   43MOL   C39624000   5.183   6.544   7.215 -0.5768 -0.0558  0.5289
   43MOL   C39724001   5.208   6.576   7.068  0.4633  0.4169 -0.5825
   43MOL   C39824002   5.143   6.709   7.038 -0.3522  0.5247 -0.6217
   43MOL   O39924003   5.173   6.751   6.909 -0.1817 -0.2336 -0.1889
   43MOL   C40024004   5.137   6.870   6.865 -0.1260 -0.3250 -0.7545
   43MOL   O40124005   5.101   6.952   6.947  0.2354 -0.5454  0.0362
   43MOL   C40224006   5.145   6.892   6.718 -0.0080 -0.4807  0.5676
   43MOL   C40324007   5.079   6.999   6.648  0.4023 -0.0094  0.0647
   43MOL   C40424008   5.112   7.017   6.509 -0.2345 -0.6247  0.0227
   43MOL   C40524009   5.193   6.932   6.433 -0.3081 -0.4649  0.1185
   43MOL   C40624010   5.219   6.941   6.287  0.0731  0.2851  0.3872
   43MOL   O40724011   5.305   6.870   6.228 -0.2783  0.0386  0.0924
   43MOL   C40824012   5.253   6.826   6.504  0.4270 -0.4706 -0.1423
   43MOL   C40924013   5.234   6.809   6.642 -0.8095 -0.6821 -0.1654
   43MOL   H41024014   5.143   6.336   7.212 -0.5914  1.2663 -1.5993
   43MOL   H41124015   5.196   6.392   7.363 -1.7463  1.8160  0.1831
   43MOL   H41224016   5.236   6.618   7.276  0.1216 -0.7603  0.7872
   43MOL   H41324017   5.076   6.551   7.232 -0.7076  0.8276 -0.6008
   43MOL   H41424018   5.313   6.582   7.042  0.8084 -0.3128  0.6149
   43MOL   H41524019   5.163   6.495   7.009  3.3323 -1.5384 -0.1595
   43MOL   H41624020   5.036   6.719   7.052 -0.0149 -0.1289  2.9362
   43MOL   H41724021   5.184   6.785   7.105  0.5273  1.4015 -2.1346
   43MOL   H41824022   5.017   7.067   6.705  2.3656  0.8633  1.2270
   43MOL   H41924023   5.072   7.106   6.463  0.2495 -0.8788 -0.8860
   43MOL   H42024024   5.320   6.766   6.444 -2.2690 -2.5630 -1.1457
   43MOL   H42124025   5.291   6.735   6.696  0.3638 -0.2796 -0.8425
   43MOL   O42224026   5.141   7.034   6.221  0.0857  0.0404  0.0027
   43MOL   C42324027   5.154   7.048   6.085 -0.0300 -0.2681  0.8559
   43MOL   C42424028   5.050   6.963   6.012  0.2516  0.0991  0.0368
   43MOL   C42524029   4.910   7.022   6.042  0.0507  0.2903  0.6022
   43MOL   C42624030   4.797   6.945   5.967  0.7149  0.3388 -0.5576
   43MOL   O42724031   4.801   6.990   5.833  0.0628  0.3190  0.4346
   43MOL   C42824032   4.818   6.901   5.731 -0.0824 -0.5461  0.0621
   43MOL   O42924033   4.831   6.779   5.744 -0.1617  0.5909  0.7524
   43MOL   C43024034   4.821   6.973   5.601  0.1902  0.3459 -0.3280
   43MOL   C43124035   4.838   7.113   5.602  0.1302  0.6076  0.5516
   43MOL   C43224036   4.834   7.179   5.480 -0.2279  0.1281  0.7894
   43MOL   C43324037   4.825   7.117   5.355 -0.5800  0.6951  0.2690
   43MOL   C43424038   4.825   7.202   5.234 -0.1087 -0.0687 -0.9847
   43MOL   O43524039   4.886   7.308   5.228 -0.5750 -0.1998 -0.1052
   43MOL   C43624040   4.818   6.978   5.356 -0.6315  0.1803 -0.2945
   43MOL   C43724041   4.812   6.905   5.479 -0.0457  0.3514 -0.2178
   43MOL   H43824042   5.148   7.146   6.037 -1.2382 -0.6175  0.2781
   43MOL   H43924043   5.252   7.017   6.051  0.2816  3.0047 -1.4054
   43MOL   H44024044   5.049   6.859   6.042 -1.0820 -0.5340 -2.0408
   43MOL   H44124045   5.059   6.964   5.903 -0.2954 -0.2329 -0.0137
   43MOL   H44224046   4.891   7.023   6.149 -1.6070  1.1127  0.3139
   43MOL   H44324047   4.908   7.130   6.028  1.2702  0.5853  2.5249
   43MOL   H44424048   4.805   6.837   5.981 -1.3935  0.2855  0.4739
   43MOL   H44524049   4.701   6.974   6.011 -1.1236 -3.3468 -1.9679
   43MOL   H44624050   4.850   7.171   5.692 -0.7957 -0.8257  1.6366
   43MOL   H44724051   4.861   7.283   5.478  0.6933 -0.1214 -0.3723
   43MOL   H44824052   4.819   6.933   5.258 -1.8096 -1.8618  0.6188
   43MOL   H44924053   4.800   6.798   5.482 -1.3685  0.4367 -1.7769
   43MOL   O45024054   4.758   7.152   5.137 -0.3996 -0.2020 -0.3159
   43MOL   C45124055   4.754   7.213   5.012  1.0257  0.5044  0.1291
   43MOL   C45224056   4.834   7.124   4.911 -0.0527  1.2212  0.0669
   43MOL   C45324057   4.778   6.977   4.867 -0.6493 -0.3719  0.3091
   43MOL   C45424058   4.796   6.885   4.980  0.6088 -0.2806 -0.1730
   43MOL   O45524059   4.926   6.877   5.033  0.0916  0.1177  0.4081
   43MOL   C45624060   5.027   6.814   4.968 -0.3179  0.1513 -0.4025
   43MOL   O45724061   5.014   6.765   4.854  0.0273 -0.1045  0.0201
   43MOL   C45824062   5.160   6.825   5.039 -0.3511 -0.1516 -0.7171
   43MOL   C45924063   5.267   6.769   4.977 -0.2311  0.3743 -0.8717
   43MOL   C46024064   5.394   6.776   5.033  0.0278 -0.6369 -0.7528
   43MOL   C46124065   5.417   6.852   5.150 -0.3748 -0.0262 -0.5256
   43MOL   C46224066   5.553   6.863   5.207  0.0963  0.0387  0.3072
   43MOL   O46324067   5.651   6.794   5.170  0.3287 -0.2232  0.1506
   43MOL   C46424068   5.305   6.914   5.211  0.3114 -0.5331 -0.2149
   43MOL   C46524069   5.179   6.899   5.158 -0.0537 -0.0537  0.2950
   43MOL   H46624070   4.652   7.205   4.974  0.5839  1.3546  1.1207
   43MOL   H46724071   4.789   7.316   5.016  4.9664 -0.6965 -1.3499
   43MOL   H46824072   4.932   7.107   4.957 -1.3046  0.2765  2.4929
   43MOL   H46924073   4.860   7.179   4.821 -0.0743 -1.2572 -1.4885
   43MOL   H47024074   4.674   6.981   4.838 -0.1530  2.0075 -1.3135
   43MOL   H47124075   4.837   6.946   4.781  1.7159  1.0782  1.3378
   43MOL   H47224076   4.733   6.925   5.060  0.7388  0.7444 -0.5795
   43MOL   H47324077   4.759   6.786   4.955 -0.1770 -0.0497  0.0706
   43MOL   H47424078   5.247   6.701   4.896  1.9911 -0.4210 -0.7662
   43MOL   H47524079   5.476   6.721   4.989  2.1957  0.8874  1.2322
   43MOL   H47624080   5.316   6.968   5.304  0.3826  1.1181 -1.1607
   43MOL   H47724081   5.095   6.936   5.216 -0.2874  1.0495 -0.7095
   43MOL   O47824082   5.566   6.945   5.307 -0.4326  0.0354  0.2122
   43MOL   C47924083   5.694   6.984   5.360  0.0206  0.6749  0.0080
   43MOL   C48024084   5.686   7.043   5.503 -0.2492 -0.5058 -0.2163
   43MOL   C48124085   5.765   7.168   5.523  0.2388  0.4795 -0.3584
   43MOL   C48224086   5.708   7.301   5.457 -0.2960  0.2400 -0.6870
   43MOL   O48324087   5.706   7.297   5.316 -0.0758 -0.0159  0.4673
   43MOL   C48424088   5.689   7.401   5.247 -0.0671  0.1879 -0.3957
   43MOL   O48524089   5.687   7.513   5.300 -0.2046 -0.1362 -0.5251
   43MOL   C48624090   5.657   7.369   5.111  0.0244  0.3254 -0.1588
   43MOL   C48724091   5.669   7.473   5.019  0.3195 -0.2756  0.1044
   43MOL   C48824092   5.658   7.446   4.882  0.5673 -0.5409 -0.5218
   43MOL   C48924093   5.636   7.320   4.835 -0.1533  0.6303 -0.4626
   43MOL   C49024094   5.636   7.290   4.691 -0.3246  0.1253  0.0038
   43MOL   O49124095   5.682   7.374   4.610 -0.5659 -0.6347  0.2157
   43MOL   C49224096   5.610   7.216   4.933 -0.0107 -0.3471 -0.5596
   43MOL   C49324097   5.628   7.239   5.068 -0.0414 -1.1827 -0.1441
   43MOL   H49424098   5.762   6.899   5.352  0.2892  0.8873  0.0148
   43MOL   H49524099   5.730   7.069   5.302  0.1950 -0.0376 -0.9406
   43MOL   H49624100   5.699   6.967   5.580 -0.2787  0.7485  1.0437
   43MOL   H49724101   5.586   7.083   5.513 -0.0591 -0.2138  0.5850
   43MOL   H49824102   5.771   7.191   5.629  2.1974  0.5198 -0.4451
   43MOL   H49924103   5.868   7.149   5.490  0.2764 -1.8444  1.0523
   43MOL   H50024104   5.603   7.307   5.487  0.8057  2.5554  3.0897
   43MOL   H50124105   5.762   7.386   5.498 -0.3071 -0.0891  0.0204
   43MOL   H50224106   5.672   7.573   5.059 -0.8141 -0.7684  1.4798
   43MOL   H50324107   5.660   7.534   4.819  1.4401  0.6121  1.0793
   43MOL   H50424108   5.582   7.113   4.920  0.1462 -0.8774  2.8952
   43MOL   H50524109   5.630   7.157   5.139  1.5062  0.2638  1.5375
   43MOL   O50624110   5.596   7.168   4.653 -0.9409 -0.0683  0.0831
   43MOL   C50724111   5.621   7.124   4.523  0.0516  0.7915  0.1907
   43MOL   C50824112   5.760   7.056   4.514 -0.0273  0.9373 -0.8253
   43MOL   C50924113   5.795   7.003   4.370  0.6647  0.1951  0.0333
   43MOL   C51024114   5.832   7.116   4.280  0.6588  0.2000  0.8768
   43MOL   O51124115   5.714   7.185   4.236 -0.1554 -0.6411  0.5386
   43MOL   C51224116   5.658   7.155   4.111  0.2307 -0.1381  0.0032
   43MOL   O51324117   5.703   7.079   4.025  0.3328 -0.1532  0.2905
   43MOL   C51424118   5.535   7.238   4.091  0.0390 -0.2086 -0.4361
   43MOL   C51524119   5.475   7.240   3.955  0.0394 -0.4913 -0.7836
   43MOL   C51624120   5.373   7.335   3.929  0.0161 -0.1677  0.0065
   43MOL   C51724121   5.327   7.416   4.032  0.3095  0.2276  0.3213
   43MOL   C51824122   5.211   7.507   3.995  0.1658 -0.1024 -0.3372
   43MOL   O51924123   5.153   7.519   3.886 -0.4073  0.0822 -0.0248
   43MOL   C52024124   5.380   7.403   4.166  0.1096  0.0466  0.3791
   43MOL   C52124125   5.477   7.309   4.194  0.7827 -0.9353  0.2209
   43MOL   H52224126   5.539   7.056   4.500 -0.2452  0.6049  1.7902
   43MOL   H52324127   5.608   7.208   4.455 -0.0709 -0.4619 -1.3596
   43MOL   H52424128   5.746   6.969   4.579 -0.6473  1.3971 -0.3375
   43MOL   H52524129   5.839   7.122   4.548 -0.4358  1.5530 -1.0677
   43MOL   H52624130   5.870   6.925   4.368 -0.6539 -1.0847 -2.0448
   43MOL   H52724131   5.706   6.954   4.330  0.3790  0.8513 -0.1309
   43MOL   H52824132   5.904   7.186   4.322  2.4679 -1.5812  0.8033
   43MOL   H52924133   5.888   7.083   4.193  0.2680 -0.3383  0.8213
   43MOL   H53024134   5.516   7.178   3.877  1.1836  0.1586 -0.7080
   43MOL   H53124135   5.345   7.352   3.826 -0.6573 -1.7582 -0.0814
   43MOL   H53224136   5.333   7.452   4.250 -0.0003 -0.7887  0.7988
   43MOL   H53324137   5.508   7.304   4.297 -0.5210 -0.2933  0.6568
   43MOL   O53424138   5.172   7.577   4.106  0.9302  0.6257  0.4208
   43MOL   C53524139   5.066   7.671   4.091 -0.1466 -0.0454 -0.4319
   43MOL   C53624140   4.982   7.657   4.216  0.0413 -0.0684 -0.1787
   43MOL   C53724141   4.858   7.745   4.229 -0.4901 -0.2074  0.0690
   43MOL   C53824142   4.790   7.728   4.360  0.4883 -0.0549 -0.3984
   43MOL   O53924143   4.664   7.800   4.356 -0.7220 -0.7752  0.1672
   43MOL   C54024144   4.623   7.887   4.449  0.3188  0.4873  0.0223
   43MOL   O54124145   4.682   7.913   4.551 -0.2883 -0.8545  0.2153
   43MOL   C54224146   4.501   7.956   4.409  1.3729 -0.1439  0.5377
   43MOL   C54324147   4.448   7.961   4.283  0.3673  0.6866 -0.3343
   43MOL   C54424148   4.329   8.040   4.257  0.0198 -0.5984 -0.1242
   43MOL   C54524149   4.266   0.018   4.355 -0.6233  0.0157  0.5897
   43MOL   C54624150   4.152   0.103   4.315 -0.0830 -0.5852  0.6212
   43MOL   O54724151   4.086   0.169   4.400 -0.0842  0.0848 -0.1130
   43MOL   C54824152   4.309   0.006   4.484 -0.2648  0.3812 -0.1882
   43MOL   C54924153   4.429   8.027   4.509 -0.2454 -0.3237  1.0186
   43MOL   H55024154   5.111   7.770   4.093  1.4825 -0.6987 -2.4848
   43MOL   H55124155   5.015   7.663   3.995  0.7677  0.1583 -0.9466
   43MOL   H55224156   5.040   7.661   4.308 -1.3180  1.6134  0.6423
   43MOL   H55324157   4.949   7.553   4.223 -0.2172  0.0896  1.0886
   43MOL   H55424158   4.891   7.847   4.212  0.9102 -0.6161  0.2229
   43MOL   H55524159   4.786   7.728   4.149 -1.1015 -0.5725  0.6920
   43MOL   H55624160   4.782   7.624   4.392  1.3510 -0.3357 -1.0733
   43MOL   H55724161   4.854   7.770   4.437 -0.1287  0.8784 -0.3891
   43MOL   H55824162   4.491   7.909   4.199  0.3219 -0.6560  0.4578
   43MOL   H55924163   4.301   8.058   4.155  0.0362 -1.3504 -0.2682
   43MOL   H56024164   4.258   0.053   4.567 -0.6396  0.9939 -0.7611
   43MOL   H56124165   4.474   8.025   4.607 -2.0128 -1.1432  1.8461
   43MOL   H56224166   4.130   0.111   4.209  0.0724 -1.1180  0.5459
   44MOL     O124167   3.858   6.948   6.110  0.3146 -0.0638 -0.0534
   44MOL     C224168   3.872   7.065   6.182  0.3560  0.6352 -0.0987
   44MOL     C324169   4.010   7.067   6.253  0.1832  0.4455  0.3499
   44MOL     C424170   4.129   7.090   6.157 -0.6361  0.2150 -0.1681
   44MOL     C524171   4.264   7.102   6.220 -0.1636 -0.3062 -0.1586
   44MOL     O624172   4.372   7.152   6.135 -0.4181  0.4081  0.4176
   44MOL     C724173   4.460   7.227   6.189 -0.0687  0.3087 -0.3285
   44MOL     O824174   4.462   7.259   6.307 -0.4479  0.2179 -0.5735
   44MOL     C924175   4.566   7.256   6.092 -0.0080 -0.7163  0.2563
   44MOL    C1024176   4.560   7.225   5.956 -0.9110 -0.6968  0.3123
   44MOL    C1124177   4.665   7.271   5.869 -0.1594 -0.5505  0.0818
   44MOL    C1224178   4.774   7.346   5.922 -0.7666 -0.6488  0.9788
   44MOL    C1324179   4.872   7.415   5.831  0.4558  1.0239 -0.1838
   44MOL    O1424180   4.844   7.445   5.716  0.2414 -0.5354 -0.3298
   44MOL    C1524181   4.783   7.364   6.064  0.5409  0.8347  0.3827
   44MOL    C1624182   4.676   7.321   6.147  1.3688 -0.3821  0.5320
   44MOL    H1724183   3.874   7.157   6.123 -2.4640  1.2234  0.6549
   44MOL    H1824184   3.790   7.074   6.254 -0.2735 -0.8627 -0.6208
   44MOL    H1924185   4.020   6.970   6.302 -0.0060  0.1420 -0.2098
   44MOL    H2024186   3.998   7.149   6.324 -2.8216  2.2469 -2.0960
   44MOL    H2124187   4.129   7.016   6.077  1.2794  1.8663 -1.7524
   44MOL    H2224188   4.103   7.183   6.107 -0.0635  0.5652  0.1799
   44MOL    H2324189   4.251   7.178   6.297 -0.4007 -0.0042 -0.4931
   44MOL    H2424190   4.285   7.011   6.276  0.3501  0.1219  0.3484
   44MOL    H2524191   4.479   7.165   5.918 -1.5462  0.2869  0.0960
   44MOL    H2624192   4.652   7.256   5.763 -0.6279 -0.6363  0.1482
   44MOL    H2724193   4.867   7.414   6.110 -1.4214  1.9282  2.9048
   44MOL    H2824194   4.685   7.346   6.251 -1.3539 -2.0693  1.2211
   44MOL    H2924195   3.917   6.960   6.038 -0.5160 -0.0698 -0.7420
   44MOL    O3024196   4.983   7.443   5.893 -0.5387 -0.2036  0.1830
   44MOL    C3124197   5.096   7.493   5.815  0.0799  0.9857 -0.1845
   44MOL    C3224198   5.214   7.404   5.838  0.1447  0.4985 -0.2016
   44MOL    C3324199   5.270   7.397   5.986 -0.4124 -0.0656  0.2908
   44MOL    C3424200   5.390   7.304   6.010  0.1551 -0.1748  0.0442
   44MOL    O3524201   5.483   7.379   5.933 -0.1622  0.0001 -0.4830
   44MOL    C3624202   5.619   7.358   5.940  0.7278 -0.2783  0.7292
   44MOL    O3724203   5.669   7.287   6.025 -0.2912 -0.0995  0.6419
   44MOL    C3824204   5.706   7.446   5.851  0.4969 -0.2827  0.2444
   44MOL    C3924205   5.648   7.535   5.757  0.0119 -0.2120  0.0594
   44MOL    C4024206   5.725   7.621   5.676  0.0009 -0.2278  0.1144
   44MOL    C4124207   5.864   7.615   5.682 -0.4021  0.3150 -0.2031
   44MOL    C4224208   5.945   7.711   5.601  0.5920 -0.0928 -0.2278
   44MOL    O4324209   6.059   7.751   5.637  0.0281 -0.9316 -0.1167
   44MOL    C4424210   5.927   7.523   5.766 -0.3240  0.3249 -0.7305
   44MOL    C4524211   5.848   7.443   5.856  0.6563  0.1458  0.3590
   44MOL    H4624212   5.065   7.486   5.710 -0.0213  1.8529 -0.2203
   44MOL    H4724213   5.118   7.598   5.833  1.1147  0.6926  0.2943
   44MOL    H4824214   5.298   7.441   5.780 -0.0781  0.2503 -0.6919
   44MOL    H4924215   5.194   7.300   5.813 -0.2500  0.2304  1.1817
   44MOL    H5024216   5.293   7.493   6.031 -0.1299  0.7093 -1.4877
   44MOL    H5124217   5.189   7.373   6.055 -1.3598 -1.6756 -1.3303
   44MOL    H5224218   5.417   7.300   6.116  4.1325 -0.6106 -0.8889
   44MOL    H5324219   5.373   7.205   5.968 -2.6570  1.0102 -1.6723
   44MOL    H5424220   5.540   7.530   5.752 -0.0929  1.6415  0.1168
   44MOL    H5524221   5.665   7.673   5.603  2.0481  0.2460 -1.2850
   44MOL    H5624222   6.034   7.515   5.773 -0.6526 -3.4670  1.3910
   44MOL    H5724223   5.895   7.374   5.924 -0.2515  0.7133  1.5810
   44MOL    O5824224   5.885   7.746   5.486 -0.0455 -0.0451 -0.1940
   44MOL    C5924225   5.936   7.849   5.406  0.3900 -0.3542 -0.5111
   44MOL    C6024226   5.862   7.980   5.445 -0.5431 -0.6672  0.2490
   44MOL    C6124227   5.710   7.980   5.444 -0.3497 -0.0303 -0.2194
   44MOL    C6224228   5.649   7.935   5.315 -0.4255  0.2499 -0.2893
   44MOL    O6324229   5.696   8.010   5.204 -0.5319 -0.3616  0.0718
   44MOL    C6424230   5.717   7.946   5.085 -1.0123 -0.0118 -0.5994
   44MOL    O6524231   5.694   7.829   5.057 -0.7290  0.5457  0.2950
   44MOL    C6624232   5.768   8.032   4.973 -0.1310 -0.0737  0.4401
   44MOL    C6724233   5.842   7.983   4.865  0.7959  0.3295  0.4429
   44MOL    C6824234   5.899   8.066   4.769  0.2851 -0.4407  0.1302
   44MOL    C6924235   5.890   0.107   4.776 -0.4202  0.7968 -0.2012
   44MOL    C7024236   5.948   0.193   4.667 -1.0852 -0.2240 -0.7248
   44MOL    O7124237   5.965   0.310   4.692 -0.1245  0.1781 -0.3310
   44MOL    C7224238   5.823   0.160   4.894 -0.3720 -0.0889 -0.1232
   44MOL    C7324239   5.753   0.076   4.981  0.2713  0.9800  0.0926
   44MOL    H7424240   6.042   7.868   5.424  0.3268  2.6786 -2.9971
   44MOL    H7524241   5.909   7.825   5.304 -1.2104 -0.4867 -0.0713
   44MOL    H7624242   5.903   8.049   5.372  1.0689 -0.8706  0.9471
   44MOL    H7724243   5.906   8.013   5.539  0.1592 -0.4638 -0.1454
   44MOL    H7824244   5.666   7.924   5.526 -0.5142  0.7167  0.2054
   44MOL    H7924245   5.673   8.081   5.460 -0.8051 -0.0733 -0.9749
   44MOL    H8024246   5.683   7.831   5.316  1.7906  0.9512  0.7268
   44MOL    H8124247   5.540   7.939   5.320 -0.3596  4.3739 -0.5218
   44MOL    H8224248   5.838   7.877   4.843  0.4557  0.5630 -0.6092
   44MOL    H8324249   5.952   8.020   4.688  1.9851  1.5168  0.0999
   44MOL    H8424250   5.799   0.265   4.895 -2.6057 -0.5918  1.2976
   44MOL    H8524251   5.706   0.116   5.070  2.2160  0.8356  1.2071
   44MOL    O8624252   5.986   0.130   4.552 -0.0326 -0.0296 -0.3502
   44MOL    C8724253   6.032   0.204   4.446  0.8766  0.1688 -0.2119
   44MOL    C8824254   6.180   0.195   4.433  0.2508  0.3614 -0.2783
   44MOL    C8924255   6.244   0.060   4.446 -0.2045  0.1171  0.6655
   44MOL    C9024256   6.392   0.089   4.463  0.1641  0.0765 -0.2015
   44MOL    O9124257   6.417   0.144   4.592  0.1323 -0.0523 -0.2538
   44MOL    C9224258   6.546   0.200   4.626  0.0925  0.8608 -0.2879
   44MOL    O9324259   6.648   0.180   4.561 -0.0351 -0.2559  0.5014
   44MOL    C9424260   6.546   0.283   4.754 -0.2467  0.0991  0.2055
   44MOL    C9524261   6.441   0.271   4.845  0.2946  0.2300 -0.3395
   44MOL    C9624262   6.429   0.368   4.945 -0.4662 -0.2654  0.5688
   44MOL    C9724263   6.532   0.463   4.969 -0.1681 -0.3587 -0.3090
   44MOL    C9824264   6.538   0.563   5.082  0.0211 -0.3641  0.2400
   44MOL    O9924265   6.636   0.639   5.105  1.1167 -0.2472  0.1990
   44MOL   C10024266   6.640   0.467   4.885  0.5417  0.6569 -0.2917
   44MOL   C10124267   6.646   0.377   4.779  0.0831  0.1870  0.6224
   44MOL   H10224268   6.002   0.147   4.358 -1.7851  0.5119  0.4238
   44MOL   H10324269   5.994   0.306   4.443  0.5087  0.1737  2.6902
   44MOL   H10424270   6.206   0.262   4.514  2.1354 -1.7879  0.9769
   44MOL   H10524271   6.204   0.231   4.333  1.5989  2.9353  0.9213
   44MOL   H10624272   6.199   0.009   4.532 -1.2670  1.2808  0.8192
   44MOL   H10724273   6.226   8.090   4.362 -0.6979 -1.4410  2.0086
   44MOL   H10824274   6.443   8.094   4.443 -0.7003 -0.2520 -0.9237
   44MOL   H10924275   6.438   0.155   4.389  2.0454 -1.1201 -0.1182
   44MOL   H11024276   6.365   0.195   4.843  2.1027 -1.6948  1.9496
   44MOL   H11124277   6.351   0.362   5.020 -1.6549 -1.2150 -0.7230
   44MOL   H11224278   6.722   0.535   4.901  0.9537  0.7398 -2.5169
   44MOL   H11324279   6.731   0.386   4.712  0.3209  1.9661  1.1333
   44MOL   O11424280   6.423   0.565   5.149 -0.3081  0.3969  0.1274
   44MOL   C11524281   6.423   0.643   5.271  0.0510 -0.4007  1.0198
   44MOL   C11624282   6.466   0.561   5.394 -0.1739  0.0409 -0.3575
   44MOL   C11724283   6.385   0.432   5.435  0.7293 -0.1387  0.2721
   44MOL   C11824284   6.446   0.382   5.561 -0.2623  0.5033  0.4348
   44MOL   O11924285   6.368   0.268   5.596  0.2699  0.4009  0.5070
   44MOL   C12024286   6.408   0.167   5.670 -0.2765 -0.2083 -0.6545
   44MOL   O12124287   6.527   0.138   5.695  0.3456  0.1824 -0.6507
   44MOL   C12224288   6.295   0.084   5.717  0.2519  0.3325  0.3349
   44MOL   C12324289   6.328   8.063   5.789  0.2436 -0.4922 -0.4433
   44MOL   C12424290   6.233   7.979   5.849  0.9087 -0.1301  1.0011
   44MOL   C12524291   6.096   8.017   5.830 -0.0582  0.2214  0.0337
   44MOL   C12624292   5.990   7.930   5.884  0.1017  0.5159  0.4079
   44MOL   O12724293   5.873   7.941   5.840  0.3654 -0.1977  0.4584
   44MOL   C12824294   6.061   0.037   5.754  0.4815 -0.0274 -0.3429
   44MOL   C12924295   6.162   0.117   5.698  0.5668  0.4291 -0.3779
   44MOL   H13024296   6.475   0.738   5.256  0.3575 -0.8240 -0.7084
   44MOL   H13124297   6.318   0.673   5.271 -0.0763 -0.8463  1.0534
   44MOL   H13224298   6.478   0.617   5.486 -1.1079 -0.1384 -0.1168
   44MOL   H13324299   6.569   0.531   5.373  0.3695  1.2095  0.6519
   44MOL   H13424300   6.278   0.452   5.444  0.2010 -1.9290 -1.6086
   44MOL   H13524301   6.400   0.353   5.361 -0.7672 -0.0750 -0.1143
   44MOL   H13624302   6.548   0.349   5.540  0.0070  1.1626  0.7251
   44MOL   H13724303   6.444   0.450   5.646 -1.5441 -0.4302  1.1764
   44MOL   H13824304   6.431   8.049   5.818  0.1978  0.5251  0.2125
   44MOL   H13924305   6.259   7.895   5.912 -3.4365 -1.7664  0.7808
   44MOL   H14024306   5.958   0.059   5.734  0.5884 -0.1818 -1.1092
   44MOL   H14124307   6.130   0.202   5.641 -2.5232 -0.4042  0.0229
   44MOL   O14224308   6.020   7.839   5.986 -0.4376  0.4935  0.0444
   44MOL   C14324309   5.908   7.771   6.060 -0.1633 -0.1099 -0.2689
   44MOL   C14424310   5.950   7.645   6.146 -0.3880  0.0878  0.0754
   44MOL   C14524311   5.826   7.591   6.216 -0.1278 -0.2600  0.7235
   44MOL   C14624312   5.873   7.508   6.330  0.1107  1.2333 -0.4639
   44MOL   O14724313   5.920   7.376   6.297  0.1887  0.0189  0.0899
   44MOL   C14824314   5.992   7.307   6.385 -0.3059  0.5757 -0.3131
   44MOL   O14924315   6.001   7.338   6.503 -0.3054  0.1778 -0.0265
   44MOL   C15024316   6.065   7.184   6.328 -0.2446  0.4132 -0.0210
   44MOL   C15124317   6.130   7.095   6.420 -0.2433  0.3996  0.1052
   44MOL   C15224318   6.202   6.981   6.371  0.7559  0.3198 -0.2063
   44MOL   C15324319   6.235   6.966   6.240 -0.1456  0.2926  0.9877
   44MOL   C15424320   6.314   6.851   6.186 -0.2308  0.4841  0.1316
   44MOL   O15524321   6.366   6.759   6.253 -0.5441 -0.3659 -0.1000
   44MOL   C15624322   6.172   7.057   6.148  0.5478  0.9067 -0.1461
   44MOL   C15724323   6.080   7.160   6.191  0.5421  0.5491  0.0859
   44MOL   H15824324   5.863   7.853   6.115 -1.6045 -0.6398 -0.6439
   44MOL   H15924325   5.838   7.727   5.990  1.9575 -3.0830 -0.6193
   44MOL   H16024326   6.023   7.681   6.219 -1.4688  1.1530  0.6475
   44MOL   H16124327   6.011   7.584   6.078 -1.2602 -1.1208  0.3691
   44MOL   H16224328   5.762   7.670   6.254  0.1694 -1.3716  3.6673
   44MOL   H16324329   5.764   7.534   6.147  1.0689 -0.2818 -0.3469
   44MOL   H16424330   5.947   7.557   6.394  0.3658 -0.5279  0.6384
   44MOL   H16524331   5.792   7.510   6.403  1.8383  1.1323  1.4967
   44MOL   H16624332   6.119   7.107   6.527 -1.7244 -0.1453  0.0214
   44MOL   H16724333   6.238   6.915   6.448  1.5528  0.4824 -0.4327
   44MOL   H16824334   6.187   7.053   6.041 -0.9724  1.0226 -0.3754
   44MOL   H16924335   6.035   7.221   6.115 -0.1113 -0.6078 -0.4674
   44MOL   O17024336   6.322   6.854   6.048  0.2324  0.2619 -0.7080
   44MOL   C17124337   6.385   6.748   5.978  0.4147 -0.2843 -0.6905
   44MOL   C17224338   6.356   6.766   5.826  0.1066 -0.4628 -0.1972
   44MOL   C17324339   6.400   6.649   5.741 -0.0711 -0.1003  0.0164
   44MOL   C17424340   6.371   6.657   5.591  0.4378  0.8877  0.6076
   44MOL   O17524341   6.435   6.546   5.523  0.7300 -0.1227 -0.4920
   44MOL   C17624342   6.477   6.559   5.389  0.0688 -0.8334 -0.6213
   44MOL   O17724343   6.457   6.652   5.314  0.3619  0.1402 -0.0285
   44MOL   C17824344   6.540   6.430   5.344 -0.2206 -0.9705  0.1378
   44MOL   C17924345   6.606   6.355   5.448 -0.8117  0.1168 -0.5995
   44MOL   C18024346   6.707   6.261   5.415 -0.1665  0.0743  0.2170
   44MOL   C18124347   6.732   6.229   5.275 -0.3500  0.2121 -0.4403
   44MOL   C18224348   6.818   6.120   5.241  0.1345  0.4246  0.7821
   44MOL   O18324349   6.822   6.066   5.127 -0.2344  0.0926 -0.2837
   44MOL   C18424350   6.665   6.298   5.177  0.1177  0.0171  0.2701
   44MOL   C18524351   6.572   6.403   5.210  0.1630 -0.5957 -0.0097
   44MOL   H18624352   6.489   6.738   6.010  0.6376  1.8428 -0.6694
   44MOL   H18724353   6.325   6.668   6.021 -0.5734 -0.8730 -3.1178
   44MOL   H18824354   6.380   6.861   5.778 -1.2282  1.7147  3.1994
   44MOL   H18924355   6.250   6.774   5.799  0.1645 -0.4374 -0.4131
   44MOL   H19024356   6.507   6.633   5.756  0.0346  0.2411 -0.3638
   44MOL   H19124357   6.359   6.556   5.780 -0.4760  1.5705  3.7280
   44MOL   H19224358   6.263   6.655   5.580  0.6355  1.0424 -1.7264
   44MOL   H19324359   6.385   6.757   5.549  2.1130  0.5226  0.2683
   44MOL   H19424360   6.589   6.378   5.552  1.1123  0.4454 -0.3446
   44MOL   H19524361   6.758   6.212   5.497 -1.5948 -0.5762  0.7375
   44MOL   H19624362   6.692   6.293   5.073  3.1582  2.5426  0.8607
   44MOL   H19724363   6.539   6.469   5.132 -0.9750 -0.7885  0.3058
   44MOL   O19824364   6.900   6.080   5.339 -0.4582  0.0030 -0.1137
   44MOL   C19924365   7.017   6.011   5.306 -0.0986 -0.9961 -0.1557
   44MOL   C20024366   7.126   6.118   5.288 -0.8389 -0.2704  0.1317
   44MOL   C20124367   7.250   6.047   5.241  0.3391  0.0367  0.1074
   44MOL   C20224368   7.240   5.981   5.105 -0.3739  0.2053  0.9505
   44MOL   O20324369   7.297   5.850   5.118 -0.4151  0.6511  0.4232
   44MOL   C20424370   7.284   5.768   5.011  0.7240 -0.2193  0.2122
   44MOL   O20524371   7.257   5.808   4.898  0.4914  0.2266 -0.3047
   44MOL   C20624372   7.332   5.626   5.035 -0.8510 -0.2205 -0.0385
   44MOL   C20724373   7.344   5.535   4.930 -0.4110 -0.2511  0.3576
   44MOL   C20824374   7.355   5.400   4.958  0.2570  0.1286 -0.0258
   44MOL   C20924375   7.374   5.354   5.086  0.2891 -0.0758 -0.5715
   44MOL   C21024376   7.392   5.204   5.102  0.5315 -0.1186  0.1773
   44MOL   O21124377   7.412   5.126   5.007  0.2247  0.3708  0.0741
   44MOL   C21224378   7.366   5.441   5.194 -0.0503  0.3965 -0.2053
   44MOL   C21324379   7.352   5.580   5.165 -0.1067  0.6552 -0.1021
   44MOL   H21424380   7.045   5.955   5.396  0.0290 -0.0736  0.3839
   44MOL   H21524381   7.002   5.934   5.230 -0.0300  1.0348 -2.2535
   44MOL   H21624382   7.152   6.160   5.385  3.6217 -1.0758 -0.6303
   44MOL   H21724383   7.083   6.197   5.226 -1.1902 -0.8817 -0.4133
   44MOL   H21824384   7.341   6.108   5.236  0.2130  0.2475  0.3531
   44MOL   H21924385   7.265   5.965   5.312  0.5193  0.6983  0.8444
   44MOL   H22024386   7.133   5.971   5.083  0.0011 -1.8623 -0.0171
   44MOL   H22124387   7.292   6.038   5.029 -2.7139 -0.9122 -1.5806
   44MOL   H22224388   7.332   5.571   4.829 -2.3838  0.2734  0.7645
   44MOL   H22324389   7.359   5.326   4.880 -1.1328  1.2163 -1.1565
   44MOL   H22424390   7.368   5.416   5.299 -1.6955  0.2909 -0.1885
   44MOL   H22524391   7.340   5.651   5.246  0.9905  0.1459  0.5317
   44MOL   O22624392   7.380   5.163   5.229 -0.5426 -0.5583 -0.5630
   44MOL   C22724393   7.419   5.029   5.267 -0.3356 -0.0796 -0.0550
   44MOL   C22824394   7.318   4.922   5.228 -0.0146  0.1552 -0.1124
   44MOL   C22924395   7.187   4.929   5.313  0.0487 -0.0969  0.8924
   44MOL   C23024396   7.067   4.839   5.270  1.0878  0.3371 -0.5764
   44MOL   O23124397   6.979   4.804   5.378  0.2223  0.1180  1.1624
   44MOL   C23224398   7.011   4.701   5.458 -0.3691  0.0027 -0.1584
   44MOL   O23324399   7.117   4.647   5.459 -0.8128  0.2285  0.2559
   44MOL   C23424400   6.907   4.668   5.553 -0.4833  0.0945 -0.1172
   44MOL   C23524401   6.842   4.773   5.616 -0.3191 -0.7648 -0.9869
   44MOL   C23624402   6.751   4.750   5.721  0.1197  0.3793 -0.7627
   44MOL   C23724403   6.716   4.621   5.761 -0.3512 -0.2146  0.0013
   44MOL   C23824404   6.620   4.593   5.869 -0.6264  0.2458  0.3031
   44MOL   O23924405   6.546   4.674   5.925  0.4016  0.0725  0.6547
   44MOL   C24024406   6.780   4.516   5.691  0.3724 -0.3123  0.5165
   44MOL   C24124407   6.877   4.538   5.597 -0.3179 -0.3010  1.1703
   44MOL   H24224408   7.512   5.009   5.215  0.9777 -0.4187  2.3722
   44MOL   H24324409   7.445   5.032   5.372 -2.3324 -0.3042  0.4763
   44MOL   H24424410   7.357   4.820   5.232  0.0869  0.1086 -1.7692
   44MOL   H24524411   7.285   4.927   5.124  0.5610  2.4359 -0.2108
   44MOL   H24624412   7.205   4.927   5.421 -0.1456  0.9914  0.9520
   44MOL   H24724413   7.133   5.023   5.298 -0.4691 -0.3991  0.8588
   44MOL   H24824414   7.005   4.900   5.205 -0.6217 -0.1037  0.5998
   44MOL   H24924415   7.089   4.756   5.203 -0.8463 -0.9260  0.3063
   44MOL   H25024416   6.865   4.876   5.593  0.0618 -1.1025 -2.1299
   44MOL   H25124417   6.697   4.836   5.757 -0.5205 -0.0176 -0.7645
   44MOL   H25224418   6.768   4.418   5.734 -0.7203 -0.3251  0.1988
   44MOL   H25324419   6.943   4.458   5.566  1.5590  0.8323  2.1003
   44MOL   O25424420   6.621   4.458   5.905 -0.1138  0.0107  0.3369
   44MOL   C25524421   6.543   4.403   6.003 -0.0364 -0.2716  0.3331
   44MOL   C25624422   6.419   4.324   5.952  0.2515 -0.2876  0.8359
   44MOL   C25724423   6.324   4.264   6.051 -0.3225  0.0292 -0.7258
   44MOL   C25824424   6.384   4.138   6.124  0.1380 -0.6679  0.2671
   44MOL   O25924425   6.474   4.187   6.230  0.2082  0.0524 -0.3530
   44MOL   C26024426   6.500   4.103   6.333 -0.4300 -0.4253 -0.2338
   44MOL   O26124427   6.469   3.984   6.343 -0.1265  0.5456  0.7486
   44MOL   C26224428   6.577   4.164   6.444  0.6948 -0.0055 -0.2764
   44MOL   C26324429   6.614   4.299   6.436 -0.3939 -0.0747  0.0395
   44MOL   C26424430   6.696   4.359   6.530  0.6224  0.2495 -0.4539
   44MOL   C26524431   6.730   4.291   6.644 -0.4164  0.3510 -0.4624
   44MOL   C26624432   6.820   4.353   6.744 -0.3162  0.5113  0.9122
   44MOL   O26724433   6.847   4.475   6.750  0.2967  0.2477  0.1973
   44MOL   C26824434   6.682   4.157   6.659  0.1541  0.0123 -0.0647
   44MOL   C26924435   6.604   4.088   6.559  0.2246 -0.0297  0.2807
   44MOL   H27024436   6.603   4.338   6.067 -1.0249 -1.0520  0.4804
   44MOL   H27124437   6.501   4.480   6.067  0.7965 -0.6917  1.4023
   44MOL   H27224438   6.458   4.249   5.882 -0.5199 -1.1417  1.3085
   44MOL   H27324439   6.353   4.391   5.897  1.0544 -1.3912 -1.5549
   44MOL   H27424440   6.288   4.341   6.119  0.0313 -1.4338  1.1805
   44MOL   H27524441   6.237   4.243   5.989 -1.0894  1.8725 -0.2969
   44MOL   H27624442   6.309   4.073   6.170 -0.0535  0.3644  1.4448
   44MOL   H27724443   6.437   4.079   6.049  0.9786  0.2845  0.1085
   44MOL   H27824444   6.576   4.351   6.350 -1.3968 -0.1507  0.4276
   44MOL   H27924445   6.730   4.460   6.516  1.4436  0.0320 -0.0507
   44MOL   H28024446   6.699   4.101   6.750 -1.8098  1.3455  1.1485
   44MOL   H28124447   6.574   3.984   6.565 -0.8598  0.2316 -0.4575
   44MOL   O28224448   6.856   4.267   6.833 -0.5044  0.0998  0.3380
   44MOL   C28324449   6.971   4.308   6.910 -0.2071 -0.3717  0.2381
   44MOL   C28424450   7.064   4.190   6.938  0.0588 -0.1035  0.1167
   44MOL   C28524451   7.144   4.146   6.826 -0.2901  0.5128  0.3665
   44MOL   C28624452   7.197   4.006   6.837 -0.0302  0.7360 -0.0142
   44MOL   O28724453   7.242   3.987   6.968  0.0310  0.3068 -0.0680
   44MOL   C28824454   7.290   3.869   7.013  0.0029 -0.3071  0.5894
   44MOL   O28924455   7.284   3.764   6.953  0.4273  0.6299  0.2109
   44MOL   C29024456   7.329   3.886   7.151 -0.0843  0.1788 -0.1894
   44MOL   C29124457   7.322   4.004   7.235  0.0225  0.2817 -0.4435
   44MOL   C29224458   7.380   4.012   7.364  0.2251  0.1355 -0.5522
   44MOL   C29324459   7.445   3.896   7.411  0.3673 -0.1082 -0.3711
   44MOL   C29424460   7.514   3.906   7.541  0.4690  0.8222  0.8338
   44MOL   O29524461   7.464   3.960   7.639  0.0364  0.0279 -0.4842
   44MOL   C29624462   7.450   3.774   7.338 -0.2121  1.3026 -0.3697
   44MOL   C29724463   7.389   3.772   7.211  0.8922  0.0619 -0.7678
   44MOL   H29824464   7.035   4.366   6.844 -0.4027  2.0309  2.1019
   44MOL   H29924465   6.953   4.366   7.000  1.8588  0.8955 -0.1227
   44MOL   H30024466   7.021   4.103   6.988  2.5554 -1.0737  0.6401
   44MOL   H30124467   7.138   4.233   7.006 -0.7966 -0.6744  1.4420
   44MOL   H30224468   7.092   4.150   6.730 -1.4956  0.0921  0.9904
   44MOL   H30324469   7.225   4.219   6.813 -0.5979  0.4079 -2.3200
   44MOL   H30424470   7.112   3.938   6.830 -0.3536  1.1704 -0.3832
   44MOL   H30524471   7.260   3.978   6.752 -3.1557 -3.0935 -1.2006
   44MOL   H30624472   7.286   4.100   7.199  0.6678 -0.2453 -2.5683
   44MOL   H30724473   7.365   4.102   7.421  0.4362  1.2167 -2.1968
   44MOL   H30824474   7.506   3.689   7.373 -2.7940  0.2840  1.4603
   44MOL   H30924475   7.405   3.685   7.149 -0.0815 -2.7896  2.8595
   44MOL   O31024476   7.638   3.843   7.536  0.9671 -0.4704 -0.3520
   44MOL   C31124477   7.730   3.859   7.639 -0.7101 -0.4393 -0.2789
   44MOL   C31224478   7.861   3.807   7.576 -0.3011 -0.1268 -0.5736
   44MOL   C31324479   7.976   3.804   7.671  0.2807  0.1920 -0.1743
   44MOL   C31424480   0.001   3.729   7.620  0.2702 -0.4829 -0.5378
   44MOL   O31524481   0.056   3.810   7.517 -0.8002 -0.3851 -0.3946
   44MOL   C31624482   0.189   3.824   7.488 -0.3941 -0.3486 -0.0769
   44MOL   O31724483   0.284   3.784   7.552  0.2749  0.2608 -0.5759
   44MOL   C31824484   0.202   3.905   7.364  0.1311  0.4712  0.0019
   44MOL   C31924485   0.090   3.975   7.306 -0.1330 -0.1213  0.1758
   44MOL   C32024486   0.109   4.043   7.181  0.2842  0.2119 -0.4538
   44MOL   C32124487   0.239   4.049   7.121  0.2576 -1.0132  0.0103
   44MOL   C32224488   0.251   4.137   7.008  0.4777 -0.2872  0.1256
   44MOL   O32324489   0.321   4.097   6.917 -0.2067 -0.0445 -0.1407
   44MOL   C32424490   0.341   3.973   7.180 -0.6091  0.4424 -0.3107
   44MOL   C32524491   0.327   3.905   7.302  0.6300  0.6330  0.4004
   44MOL   H32624492   7.749   3.962   7.671 -2.1104 -0.1686 -0.3017
   44MOL   H32724493   7.701   3.808   7.731  0.2963  1.8750  1.3707
   44MOL   H32824494   7.891   3.872   7.494  1.1698  1.4270  1.1548
   44MOL   H32924495   7.839   3.705   7.543  0.1636 -0.5730  0.4785
   44MOL   H33024496   7.998   3.908   7.694  1.5725  0.9760 -4.6208
   44MOL   H33124497   7.941   3.759   7.764 -1.8521  0.8540 -0.6418
   44MOL   H33224498   0.063   3.695   7.703 -0.3128  0.9479  0.5071
   44MOL   H33324499   8.054   3.639   7.578  0.1797 -0.8305  0.2750
   44MOL   H33424500   8.092   3.975   7.355 -0.4045 -0.0174 -0.3597
   44MOL   H33524501   0.031   4.115   7.158  0.9388  1.1252  0.1601
   44MOL   H33624502   0.442   3.967   7.143 -0.2968 -1.7099  0.7787
   44MOL   H33724503   0.405   3.846   7.349  0.5440 -0.3169 -0.6207
   44MOL   O33824504   0.175   4.252   7.015  0.2727  0.3071  0.3981
   44MOL   C33924505   0.162   4.340   6.905 -0.2640  0.2010 -0.2275
   44MOL   C34024506   0.074   4.286   6.792  0.3097  0.4803  0.6347
   44MOL   C34124507   8.023   4.271   6.822  0.0269  0.1332  0.2270
   44MOL   C34224508   7.938   4.225   6.703 -0.0816  0.1885 -0.4261
   44MOL   O34324509   7.995   4.109   6.641 -0.0441  0.4054 -0.6986
   44MOL   C34424510   7.995   3.982   6.697 -0.5636 -0.3407 -0.3327
   44MOL   O34524511   7.932   3.951   6.796  0.5768 -0.2251  0.5232
   44MOL   C34624512   8.089   3.883   6.624 -0.1629  0.2805 -0.0244
   44MOL   C34724513   0.064   3.913   6.507  0.0605 -0.4227  0.1132
   44MOL   C34824514   0.158   3.826   6.447 -0.0680  0.2864  0.2713
   44MOL   C34924515   0.174   3.698   6.500 -0.1383  0.0023  0.4235
   44MOL   C35024516   0.276   3.611   6.432  0.4026 -0.5215  0.8907
   44MOL   O35124517   0.316   3.632   6.318 -0.3120 -0.2569  0.6271
   44MOL   C35224518   0.095   3.658   6.608 -0.3520 -0.0758  1.0661
   44MOL   C35324519   0.008   3.752   6.672 -0.0416  0.2319  0.1911
   44MOL   H35424520   0.127   4.440   6.930 -0.7031 -0.0900  0.3160
   44MOL   H35524521   0.263   4.356   6.866 -0.4100 -0.0115 -0.6934
   44MOL   H35624522   0.117   4.191   6.758 -2.6961 -1.0732  0.9941
   44MOL   H35724523   0.083   4.354   6.708  1.1999  0.1486  0.4522
   44MOL   H35824524   8.016   4.198   6.903 -1.6976 -1.5182 -1.3747
   44MOL   H35924525   7.982   4.363   6.864 -0.2261  0.0242  0.2165
   44MOL   H36024526   7.840   4.208   6.749  0.7615 -0.2893  1.2335
   44MOL   H36124527   7.917   4.306   6.634  3.4667  1.4216 -0.1860
   44MOL   H36224528   0.060   4.017   6.481 -1.5576 -0.3074  0.7400
   44MOL   H36324529   0.225   3.863   6.371  1.5178 -1.5927  0.7278
   44MOL   H36424530   0.109   3.561   6.655 -0.6139 -1.2015 -1.1387
   44MOL   H36524531   8.039   3.718   6.749 -2.4352  2.3980 -0.8785
   44MOL   O36624532   0.323   3.520   6.519 -0.4740  0.0454 -0.1030
   44MOL   C36724533   0.445   3.458   6.500  0.3026 -0.0861 -0.2901
   44MOL   C36824534   0.443   3.335   6.596 -0.3440  0.0898  0.0616
   44MOL   C36924535   0.314   3.249   6.576  0.3242  0.3485 -0.0239
   44MOL   C37024536   0.331   3.129   6.673 -0.6654 -0.0037  0.8211
   44MOL   O37124537   0.254   3.135   6.792 -0.1233  0.0604 -0.4518
   44MOL   C37224538   0.313   3.183   6.905  0.3280  0.0954 -1.1975
   44MOL   O37324539   0.410   3.254   6.920  0.2063  0.4565 -0.6997
   44MOL   C37424540   0.225   3.166   7.026  0.1123 -0.0870  0.2608
   44MOL   C37524541   0.242   3.244   7.143  0.5306  0.1518  0.8987
   44MOL   C37624542   0.151   3.235   7.247  0.0131  0.2479 -0.4865
   44MOL   C37724543   0.042   3.148   7.248  0.2641  1.0941  0.2669
   44MOL   C37824544   8.044   3.149   7.361 -0.8099 -0.8141 -0.0784
   44MOL   O37924545   8.048   3.225   7.458  0.3471 -0.3063  0.3705
   44MOL   C38024546   0.031   3.060   7.138 -0.3318 -0.0640  0.2620
   44MOL   C38124547   0.120   3.066   7.028 -0.2343 -0.8742  0.1555
   44MOL   H38224548   0.465   3.440   6.395 -1.8963  0.3194 -0.7970
   44MOL   H38324549   0.530   3.522   6.523  1.5693 -1.9812  0.5321
   44MOL   H38424550   0.432   3.369   6.699  0.9788 -0.9916  0.5843
   44MOL   H38524551   0.534   3.276   6.579  0.5217  1.0328  1.3388
   44MOL   H38624552   0.226   3.309   6.601 -0.2909 -1.3077  1.8763
   44MOL   H38724553   0.305   3.222   6.471  0.0008 -2.0138  0.5849
   44MOL   H38824554   0.296   3.041   6.618 -3.0433  2.5013 -1.8300
   44MOL   H38924555   0.436   3.115   6.701 -0.7585 -0.5599  0.8971
   44MOL   H39024556   0.327   3.311   7.146  0.2052  0.5465  1.4591
   44MOL   H39124557   0.170   3.283   7.342  0.1406 -1.2492  0.2547
   44MOL   H39224558   8.061   2.977   7.140  0.0642 -0.3710  1.9399
   44MOL   H39324559   0.119   2.993   6.948 -0.6637  0.9268 -1.5292
   44MOL   O39424560   7.967   3.049   7.357 -0.3046  0.1278  0.6017
   44MOL   C39524561   7.898   3.000   7.469  0.2779  0.3569  0.1895
   44MOL   C39624562   7.885   2.847   7.444  0.0032 -0.4226  0.5859
   44MOL   C39724563   7.810   2.832   7.307  0.1756  0.4127 -0.4350
   44MOL   C39824564   7.761   2.690   7.274 -0.4497 -0.2054  0.5452
   44MOL   O39924565   7.870   2.620   7.206 -0.4683 -0.4004 -0.0976
   44MOL   C40024566   7.862   2.596   7.072  0.1765  0.9051  0.1266
   44MOL   O40124567   7.769   2.625   7.002  0.6033  0.6258  0.0283
   44MOL   C40224568   7.982   2.526   7.015  0.0757  0.2610 -0.7991
   44MOL   C40324569   8.001   2.513   6.873  0.2258 -0.5843 -0.0555
   44MOL   C40424570   0.020   2.445   6.819  0.1792 -0.4949  0.0305
   44MOL   C40524571   0.121   2.396   6.903  0.8495 -0.4149 -0.3898
   44MOL   C40624572   0.248   2.333   6.854  0.0577  0.3264  0.3144
   44MOL   O40724573   0.354   2.327   6.917  0.1793 -0.2911 -0.3642
   44MOL   C40824574   0.103   2.407   7.042  0.5837  0.4158  0.0603
   44MOL   C40924575   8.084   2.464   7.096 -0.0244  0.0739 -0.5261
   44MOL   H41024576   7.953   3.003   7.564 -0.6324  2.7097  0.6821
   44MOL   H41124577   7.800   3.044   7.483  0.2213  0.9132 -1.8302
   44MOL   H41224578   7.833   2.795   7.524  1.2641  0.3052  1.9191
   44MOL   H41324579   7.988   2.812   7.433 -0.3362 -1.8166  1.7709
   44MOL   H41424580   7.720   2.894   7.309 -0.1728 -0.1617  2.7006
   44MOL   H41524581   7.872   2.875   7.228  0.5476  1.8459  0.6246
   44MOL   H41624582   7.736   2.637   7.366 -0.4078 -1.6460 -0.2630
   44MOL   H41724583   7.668   2.690   7.217 -1.3518 -1.2185  1.9750
   44MOL   H41824584   7.925   2.557   6.810 -0.3467 -2.5356 -0.7740
   44MOL   H41924585   0.013   2.432   6.712 -0.6418  0.8747 -0.0924
   44MOL   H42024586   0.170   2.350   7.104 -0.0990 -1.6202 -1.0196
   44MOL   H42124587   8.063   2.447   7.201  1.7906  0.2031 -0.1204
   44MOL   O42224588   0.238   2.288   6.724 -0.5316  0.4770  0.2243
   44MOL   C42324589   0.353   2.235   6.659 -0.3594 -0.2860 -0.7632
   44MOL   C42424590   0.347   2.296   6.521 -0.0442 -0.1059 -0.1013
   44MOL   C42524591   0.441   2.223   6.424 -0.5463 -0.1010  0.8968
   44MOL   C42624592   0.431   2.248   6.279 -0.6413  0.9039  0.1597
   44MOL   O42724593   0.476   2.383   6.260  0.7444 -0.4547 -0.1824
   44MOL   C42824594   0.457   2.439   6.136  0.3601 -0.8760  0.5822
   44MOL   O42924595   0.409   2.376   6.044 -0.1585 -0.1297  0.2249
   44MOL   C43024596   0.523   2.579   6.120 -0.0249 -0.4652 -0.1796
   44MOL   C43124597   0.600   2.644   6.221 -0.0829 -0.4115 -1.0510
   44MOL   C43224598   0.661   2.771   6.201 -0.1690 -0.3885 -0.2001
   44MOL   C43324599   0.645   2.836   6.080 -0.1274  0.1074  0.7876
   44MOL   C43424600   0.692   2.977   6.062  0.5793 -0.2993  0.8505
   44MOL   O43524601   0.779   3.031   6.134  0.3479  0.2198  0.7366
   44MOL   C43624602   0.591   2.763   5.969 -0.4535  0.5941  0.1555
   44MOL   C43724603   0.535   2.635   5.988 -0.3262  0.6428 -0.6898
   44MOL   H43824604   0.451   2.258   6.702  0.8468 -2.6530 -2.1389
   44MOL   H43924605   0.339   2.126   6.656 -0.3840 -0.3067  0.0494
   44MOL   H44024606   0.374   2.401   6.528 -0.9921 -0.0084  2.5102
   44MOL   H44124607   0.246   2.313   6.486  0.8423  2.0980 -1.6774
   44MOL   H44224608   0.545   2.236   6.454 -0.2934 -1.2430  0.5413
   44MOL   H44324609   0.414   2.117   6.426  0.3698 -0.4647 -2.1389
   44MOL   H44424610   0.493   2.169   6.237 -0.7356  1.5366 -1.2067
   44MOL   H44524611   0.331   2.226   6.241  0.8875  0.4401 -3.8564
   44MOL   H44624612   0.614   2.592   6.315 -0.3636 -1.0031 -1.3328
   44MOL   H44724613   0.714   2.806   6.288  0.0383 -1.5859  0.1503
   44MOL   H44824614   0.591   2.807   5.870  1.9752 -0.0182 -0.1569
   44MOL   H44924615   0.484   2.590   5.903  0.1517  0.8534 -1.0845
   44MOL   O45024616   0.636   3.032   5.952  0.2001 -0.6328  0.0608
   44MOL   C45124617   0.675   3.160   5.902 -0.0138  0.4138 -0.0895
   44MOL   C45224618   0.607   3.167   5.762  0.1449 -0.2876  0.2614
   44MOL   C45324619   0.458   3.208   5.775  0.7723 -0.6332 -0.5701
   44MOL   C45424620   0.358   3.176   5.657 -0.2193 -0.5413 -0.1760
   44MOL   O45524621   0.368   3.035   5.629  0.0411 -0.5759 -0.3469
   44MOL   C45624622   0.414   2.985   5.512  0.2274 -0.5322 -0.4279
   44MOL   O45724623   0.441   3.055   5.414 -0.4692 -0.1601 -0.4035
   44MOL   C45824624   0.408   2.836   5.512  0.6277  0.7667  0.0303
   44MOL   C45924625   0.390   2.756   5.630  0.5112 -0.4841  0.3465
   44MOL   C46024626   0.393   2.616   5.625 -0.7703 -0.4663 -0.5956
   44MOL   C46124627   0.420   2.549   5.508  0.2558  0.1291 -0.3866
   44MOL   C46224628   0.417   2.401   5.502  0.1936 -0.3940  0.6953
   44MOL   O46324629   0.447   2.337   5.404 -0.2438 -0.6903 -0.1274
   44MOL   C46424630   0.436   2.622   5.391 -1.0772  0.3744 -0.2202
   44MOL   C46524631   0.432   2.766   5.390  0.4152  0.4950  0.6319
   44MOL   H46624632   0.660   3.249   5.964  0.1010  0.2327  0.2010
   44MOL   H46724633   0.780   3.161   5.872 -0.2305  0.3268 -0.8496
   44MOL   H46824634   0.621   3.072   5.710 -2.1522 -0.2833 -0.4527
   44MOL   H46924635   0.652   3.255   5.717 -2.7204  2.1285  1.9464
   44MOL   H47024636   0.420   3.167   5.869  0.6555  1.3531  0.2811
   44MOL   H47124637   0.447   3.316   5.786  0.0772 -0.8658  1.2085
   44MOL   H47224638   0.259   3.186   5.702 -0.4068 -3.7036  0.1953
   44MOL   H47324639   0.355   3.241   5.569  0.5348 -0.8684 -0.4466
   44MOL   H47424640   0.390   2.805   5.726  1.7790 -2.2028  1.2732
   44MOL   H47524641   0.377   2.564   5.718 -0.9909  0.7874  0.0710
   44MOL   H47624642   0.456   2.572   5.297  2.6611 -1.0778  1.2436
   44MOL   H47724643   0.432   2.824   5.299 -0.3570  0.5415  0.6576
   44MOL   O47824644   0.399   2.341   5.624  0.1434  0.6341  0.0140
   44MOL   C47924645   0.419   2.206   5.642 -0.3559  0.5952 -0.4284
   44MOL   C48024646   0.547   2.178   5.722  0.1086 -0.0053  0.3889
   44MOL   C48124647   0.669   2.161   5.637 -0.8993 -0.0966  0.3059
   44MOL   C48224648   0.691   2.027   5.562 -0.7258  0.1518  0.2695
   44MOL   O48324649   0.829   2.014   5.516  0.3554  0.3037  0.0573
   44MOL   C48424650   0.931   1.967   5.604  0.1898 -0.0061 -0.2166
   44MOL   O48524651   0.916   1.956   5.729  0.5559  0.1541  0.2102
   44MOL   C48624652   1.057   1.933   5.538  0.3824  0.2763 -0.2631
   44MOL   C48724653   1.173   1.931   5.614  0.2353 -0.2114 -0.0163
   44MOL   C48824654   1.293   1.906   5.555 -0.3904  0.1426 -0.9074
   44MOL   C48924655   1.300   1.874   5.417 -0.0685  0.1367 -0.6742
   44MOL   C49024656   1.428   1.831   5.363  0.5728 -0.0109 -0.5209
   44MOL   O49124657   1.534   1.827   5.429 -0.0395 -0.5030 -0.1090
   44MOL   C49224658   1.183   1.888   5.337 -0.3595 -0.2081 -0.2749
   44MOL   C49324659   1.066   1.922   5.394 -0.1700  0.0864 -0.2605
   44MOL   H49424660   0.336   2.184   5.710 -0.3202  0.1107 -0.5341
   44MOL   H49524661   0.416   2.145   5.551 -3.5516  0.2290 -0.1555
   44MOL   H49624662   0.509   2.094   5.780  0.6083 -0.0488  0.6561
   44MOL   H49724663   0.552   2.254   5.801  0.0493 -0.3455  0.7197
   44MOL   H49824664   0.672   2.246   5.568  1.7675  0.5594  1.1760
   44MOL   H49924665   0.753   2.189   5.700 -0.0492 -1.1160 -0.3673
   44MOL   H50024666   0.663   1.949   5.633 -0.5936  0.7075  0.9375
   44MOL   H50124667   0.636   2.020   5.468  2.0960 -0.1474 -1.4212
   44MOL   H50224668   1.168   1.939   5.722  0.8286  0.7011 -0.0511
   44MOL   H50324669   1.378   1.892   5.620 -0.0223 -1.4415 -1.6903
   44MOL   H50424670   1.189   1.857   5.233 -1.5730 -1.7605  0.0901
   44MOL   H50524671   0.981   1.929   5.328 -1.7428 -2.4105  1.4407
   44MOL   O50624672   1.420   1.824   5.223 -0.2515 -0.4161 -0.3311
   44MOL   C50724673   1.534   1.811   5.147  0.2093  0.4266  0.1035
   44MOL   C50824674   1.491   1.788   5.001 -0.4685 -0.2259 -0.1335
   44MOL   C50924675   1.396   1.894   4.951  0.2351  0.0273 -0.5207
   44MOL   C51024676   1.360   1.868   4.805 -0.1025  0.5084  0.4888
   44MOL   O51124677   1.261   1.956   4.745 -0.2006 -0.2085  0.0725
   44MOL   C51224678   1.286   2.093   4.733  0.2996  0.8296  0.4406
   44MOL   O51324679   1.396   2.137   4.743  0.5982 -0.0537 -0.1339
   44MOL   C51424680   1.163   2.173   4.708 -0.0017  0.0471 -0.3226
   44MOL   C51524681   1.168   2.308   4.661 -0.1541  0.2938  0.7711
   44MOL   C51624682   1.051   2.387   4.648 -0.7784 -0.3362  0.2833
   44MOL   C51724683   0.927   2.343   4.698 -0.7441 -0.2038 -0.1899
   44MOL   C51824684   0.808   2.423   4.680 -1.0257  0.2832 -0.7228
   44MOL   O51924685   0.692   2.386   4.691  0.4645 -0.0728 -0.3166
   44MOL   C52024686   0.921   2.215   4.748  1.0046 -0.2980 -0.2422
   44MOL   C52124687   1.031   2.126   4.749 -0.2463 -0.0238  0.0260
   44MOL   H52224688   1.596   1.899   5.162 -0.8827  1.3304 -0.5247
   44MOL   H52324689   1.594   1.724   5.172 -1.6133 -1.4082 -1.6464
   44MOL   H52424690   1.444   1.690   4.992 -0.6446 -0.0234 -1.4868
   44MOL   H52524691   1.578   1.798   4.937  0.0584  1.7584  0.8594
   44MOL   H52624692   1.302   1.889   5.006  1.4239 -1.3911  1.4344
   44MOL   H52724693   1.433   1.995   4.969 -0.4419 -0.1775  2.1929
   44MOL   H52824694   1.451   1.872   4.744  0.5983  0.6550  1.5252
   44MOL   H52924695   1.338   1.763   4.787  0.5511  0.3320  0.7082
   44MOL   H53024696   1.263   2.353   4.635  0.4219 -0.9408  0.7213
   44MOL   H53124697   1.056   2.486   4.605 -3.2396 -0.5615 -0.6417
   44MOL   H53224698   0.824   2.175   4.772  0.0126  3.4833  2.5998
   44MOL   H53324699   1.022   2.027   4.789  0.8191  0.1546  0.7376
   44MOL   O53424700   0.834   2.552   4.649  0.3281  0.2083 -0.0861
   44MOL   C53524701   0.741   2.650   4.673 -0.3490 -0.2432  0.4492
   44MOL   C53624702   0.806   2.789   4.663 -0.0738  0.5699  0.1038
   44MOL   C53724703   0.695   2.900   4.663  0.4690 -0.1197  0.0868
   44MOL   C53824704   0.626   2.923   4.800  0.2512 -0.8748 -0.8212
   44MOL   O53924705   0.726   2.932   4.906  0.5562 -0.2289 -0.3404
   44MOL   C54024706   0.694   2.949   5.033 -0.0044  0.3882  0.2929
   44MOL   O54124707   0.580   2.957   5.068 -0.5695  0.2235  0.2028
   44MOL   C54224708   0.801   2.938   5.125  0.1978 -0.9362 -1.0838
   44MOL   C54324709   0.930   2.906   5.082  0.2545  0.0341  0.1912
   44MOL   C54424710   1.037   2.873   5.174 -0.2049  0.1588  1.3102
   44MOL   C54524711   1.005   2.884   5.309 -0.1431  0.3826  0.0880
   44MOL   C54624712   1.111   2.852   5.414  0.7495 -0.0327 -0.2669
   44MOL   O54724713   1.222   2.804   5.381  0.5542 -0.0528 -0.9215
   44MOL   C54824714   0.879   2.920   5.352 -0.4860 -0.3565 -0.1832
   44MOL   C54924715   0.777   2.952   5.265  0.7527 -0.3394 -0.1238
   44MOL   H55024716   0.659   2.637   4.602 -1.6000 -0.1938  1.8590
   44MOL   H55124717   0.698   2.639   4.773  0.6708 -1.6337  0.7396
   44MOL   H55224718   0.860   2.791   4.568 -2.1734  1.0535 -1.1252
   44MOL   H55324719   0.882   2.815   4.737 -0.7934 -2.3027  1.9378
   44MOL   H55424720   0.735   2.996   4.631 -0.0557 -0.0714 -0.4186
   44MOL   H55524721   0.619   2.883   4.587  0.5649 -1.9586  0.3814
   44MOL   H55624722   0.572   3.017   4.802  1.9974  0.1518 -0.8161
   44MOL   H55724723   0.560   2.838   4.814 -0.3165 -0.1540  1.0041
   44MOL   H55824724   0.948   2.901   4.976  1.0224 -1.5885  0.3829
   44MOL   H55924725   1.137   2.844   5.145  0.5877  0.8143  3.3083
   44MOL   H56024726   0.861   2.936   5.457  2.7840 -0.5421  0.4689
   44MOL   H56124727   0.678   2.979   5.298  0.8073 -1.0747  0.6663
   44MOL   H56224728   1.093   2.884   5.517  3.2071  0.4413  0.0285
   45MOL     O124729   5.277   1.025   8.054 -0.4240  0.1077  0.0875
   45MOL     C224730   5.270   1.003   7.916 -0.1463 -0.5726 -0.6828
   45MOL     C324731   5.246   1.138   7.843 -0.0288 -0.2742 -0.0237
   45MOL     C424732   5.369   1.213   7.803 -0.7426 -0.3235  0.5496
   45MOL     C524733   5.331   1.343   7.724  0.2763  0.4574 -0.3489
   45MOL     O624734   5.254   1.318   7.605  0.2131  0.1794  0.3522
   45MOL     C724735   5.121   1.340   7.604  0.1416  0.0123  0.1676
   45MOL     O824736   5.059   1.367   7.705 -0.3239 -0.0533 -0.2979
   45MOL     C924737   5.059   1.334   7.463  0.5841 -0.3649 -0.3369
   45MOL    C1024738   5.135   1.338   7.341 -0.0270 -0.5825 -0.2326
   45MOL    C1124739   5.068   1.334   7.214  0.4463 -1.2479  0.1093
   45MOL    C1224740   4.927   1.345   7.211  0.2803 -0.1209 -1.1789
   45MOL    C1324741   4.849   1.345   7.085 -0.3676 -0.3898 -0.0172
   45MOL    O1424742   4.880   1.287   6.984  0.3816 -0.3168  0.3314
   45MOL    C1524743   4.853   1.359   7.335  0.0418 -0.3606  0.4167
   45MOL    C1624744   4.918   1.354   7.462  0.4122 -0.3004  0.4231
   45MOL    H1724745   5.363   0.951   7.893  1.6215  1.8919  0.5479
   45MOL    H1824746   5.189   0.933   7.900  0.1077 -1.2353  0.8154
   45MOL    H1924747   5.187   1.200   7.910  0.4422  0.2739 -0.1139
   45MOL    H2024748   5.179   1.132   7.758 -0.2848 -0.0608  0.1632
   45MOL    H2124749   5.424   1.242   7.892 -0.3955  2.1630 -0.4119
   45MOL    H2224750   5.435   1.148   7.746 -0.9742 -1.1931  1.2600
   45MOL    H2324751   5.279   1.412   7.791 -0.4143 -1.5166  1.1905
   45MOL    H2424752   5.426   1.390   7.697 -0.2944  2.7127  1.4037
   45MOL    H2524753   5.242   1.345   7.347 -0.0772 -0.0591  0.1261
   45MOL    H2624754   5.128   1.338   7.123 -0.6606  0.1500 -0.5859
   45MOL    H2724755   4.748   1.385   7.328  0.4574  1.2326 -0.0183
   45MOL    H2824756   4.867   1.369   7.556  0.0173  1.4789 -0.0513
   45MOL    H2924757   5.279   0.941   8.096  0.5756  0.6243  1.0819
   45MOL    O3024758   4.732   1.412   7.096 -0.6677  0.2014 -0.5152
   45MOL    C3124759   4.655   1.443   6.981 -0.0413  0.2875  0.4086
   45MOL    C3224760   4.538   1.538   7.008 -0.1026  0.2320  1.2618
   45MOL    C3324761   4.588   1.681   7.027  0.3089 -0.7769 -0.3041
   45MOL    C3424762   4.483   1.776   7.072 -0.1912  0.3316 -0.4231
   45MOL    O3524763   4.375   1.763   6.978  0.5083 -0.0072 -1.4329
   45MOL    C3624764   4.288   1.867   6.963 -0.2966  1.5778 -0.7540
   45MOL    O3724765   4.308   1.978   7.014 -0.0049  0.0003  1.0127
   45MOL    C3824766   4.189   1.836   6.850 -0.6479  0.1126 -0.7949
   45MOL    C3924767   4.110   1.943   6.797  0.0961  0.4457  0.1499
   45MOL    C4024768   4.010   1.916   6.709  0.3360  0.2559  0.2415
   45MOL    C4124769   3.997   1.786   6.653 -0.1812 -0.2256  1.0732
   45MOL    C4224770   3.883   1.756   6.566  1.0117 -0.2138 -0.0454
   45MOL    O4324771   3.867   1.652   6.504 -0.3278  0.4758  0.1059
   45MOL    C4424772   4.076   1.681   6.695 -0.2193  0.2120 -0.6772
   45MOL    C4524773   4.172   1.706   6.796 -0.4128  0.3821  1.0005
   45MOL    H4624774   4.705   1.482   6.893 -2.2881  0.3453 -0.8682
   45MOL    H4724775   4.601   1.354   6.948 -0.7005  1.2574 -1.1832
   45MOL    H4824776   4.473   1.506   7.089 -1.2343 -1.0331 -0.1111
   45MOL    H4924777   4.492   1.537   6.909  1.9339 -0.1278  0.2842
   45MOL    H5024778   4.678   1.687   7.088  0.3476 -0.1066 -0.4218
   45MOL    H5124779   4.627   1.709   6.929 -1.8640  1.3692 -0.6103
   45MOL    H5224780   4.439   1.737   7.164 -0.7666  1.2625 -0.2999
   45MOL    H5324781   4.511   1.881   7.076 -1.2226  0.5852  0.1916
   45MOL    H5424782   4.121   2.043   6.835 -0.2463  0.9252 -0.9962
   45MOL    H5524783   3.935   1.991   6.687 -3.0691 -3.1385 -0.3737
   45MOL    H5624784   4.055   1.580   6.661  0.2368 -1.0039  2.5051
   45MOL    H5724785   4.219   1.618   6.838 -1.1420 -0.1105  0.8032
   45MOL    O5824786   3.799   1.859   6.554 -0.4958  0.1678 -0.3353
   45MOL    C5924787   3.684   1.850   6.473 -0.6413  0.7232 -0.1207
   45MOL    C6024788   3.586   1.965   6.506 -0.3252 -0.8399  0.3537
   45MOL    C6124789   3.482   1.974   6.397 -0.3518 -0.1372 -0.0118
   45MOL    C6224790   3.363   2.068   6.431  0.0025 -0.3626  0.1185
   45MOL    O6324791   3.249   2.025   6.361 -0.0371  0.2279 -0.0477
   45MOL    C6424792   3.230   2.067   6.230  0.3702  0.0895  0.4599
   45MOL    O6524793   3.302   2.153   6.182 -0.2245 -0.2640 -0.4235
   45MOL    C6624794   3.127   1.997   6.147 -0.1515  0.3759  0.3716
   45MOL    C6724795   3.052   1.891   6.202 -0.5995 -0.3536  0.2160
   45MOL    C6824796   2.941   1.832   6.143  0.2538  0.2800  0.7567
   45MOL    C6924797   2.918   1.856   6.006 -0.6753 -0.2703 -0.4641
   45MOL    C7024798   2.804   1.797   5.930  0.1164  0.1902 -0.2362
   45MOL    O7124799   2.709   1.753   5.993 -0.3892 -0.3655  0.4290
   45MOL    C7224800   3.002   1.956   5.940 -0.3629 -0.5511  0.6501
   45MOL    C7324801   3.095   2.035   6.011  0.4771 -0.2116  0.8552
   45MOL    H7424802   3.717   1.847   6.369  0.5923 -0.5912  0.3037
   45MOL    H7524803   3.632   1.756   6.490  2.4568 -1.1897 -0.9365
   45MOL    H7624804   3.638   2.060   6.510 -0.7437 -0.6225  0.6822
   45MOL    H7724805   3.543   1.963   6.606  1.0862  2.0839  1.0502
   45MOL    H7824806   3.537   2.000   6.307  0.8844 -1.2997  0.3825
   45MOL    H7924807   3.433   1.878   6.381  1.3563 -0.9859 -0.2393
   45MOL    H8024808   3.356   2.062   6.540  0.9239  2.2877  0.3482
   45MOL    H8124809   3.393   2.171   6.413 -0.3796 -0.2637  0.0450
   45MOL    H8224810   3.079   1.854   6.300 -1.1148 -0.3125  0.3774
   45MOL    H8324811   2.876   1.768   6.201  2.5902 -1.9370  1.0162
   45MOL    H8424812   2.973   1.976   5.838  0.5734 -1.0079  0.2954
   45MOL    H8524813   3.140   2.120   5.964 -1.9416  0.1582 -0.8893
   45MOL    O8624814   2.815   1.802   5.792  0.3636 -0.2718  0.0670
   45MOL    C8724815   2.726   1.750   5.704  0.3915 -0.0309  0.4696
   45MOL    C8824816   2.769   1.766   5.558  0.4276 -0.1502  0.0826
   45MOL    C8924817   2.722   1.890   5.490  0.2728 -0.0785 -0.2394
   45MOL    C9024818   2.795   1.930   5.362  0.4753  1.0190 -0.0411
   45MOL    O9124819   2.780   1.844   5.246  0.0953  0.1836  0.4142
   45MOL    C9224820   2.853   1.735   5.232  0.7646 -0.5181  0.6269
   45MOL    O9324821   2.937   1.695   5.313  0.1268 -0.0620  0.1040
   45MOL    C9424822   2.843   1.678   5.096 -0.7661  0.6284 -0.0727
   45MOL    C9524823   2.916   1.563   5.070 -0.1319  0.0535 -0.6676
   45MOL    C9624824   2.908   1.494   4.951  0.1047  0.0500  0.0266
   45MOL    C9724825   2.818   1.542   4.852 -0.1978  0.0342 -0.1199
   45MOL    C9824826   2.816   1.469   4.722  0.7989 -0.4966 -0.4350
   45MOL    O9924827   2.899   1.390   4.693 -0.0882  0.1732 -0.3468
   45MOL   C10024828   2.744   1.661   4.874 -0.3741  0.0176  1.2262
   45MOL   C10124829   2.760   1.729   4.994 -0.5047 -0.3914  0.5072
   45MOL   H10224830   2.721   1.644   5.727  0.0890 -0.0616  0.2600
   45MOL   H10324831   2.625   1.790   5.715 -0.4519 -1.8305 -0.4184
   45MOL   H10424832   2.721   1.681   5.509 -0.9901  0.5634  0.2171
   45MOL   H10524833   2.877   1.755   5.546  0.2512 -0.1563 -1.5982
   45MOL   H10624834   2.615   1.872   5.481  0.4696 -1.8702  0.7518
   45MOL   H10724835   2.728   1.963   5.571 -0.4186 -2.2218  1.8051
   45MOL   H10824836   2.760   2.028   5.330  0.8571  1.1236 -0.1474
   45MOL   H10924837   2.903   1.937   5.377  0.6418 -1.2582 -0.0373
   45MOL   H11024838   2.985   1.523   5.143 -0.1741  0.2400 -0.5258
   45MOL   H11124839   2.970   1.407   4.937 -1.7591 -1.0374 -1.9271
   45MOL   H11224840   2.673   1.698   4.801  1.2332 -1.5720 -1.2480
   45MOL   H11324841   2.702   1.819   5.002 -0.8445 -0.5963  0.3541
   45MOL   O11424842   2.720   1.511   4.643 -0.2338 -0.2392  0.6301
   45MOL   C11524843   2.699   1.454   4.510 -0.0231  0.3049 -0.4993
   45MOL   C11624844   2.570   1.495   4.449  0.2551 -0.3172  0.6138
   45MOL   C11724845   2.450   1.450   4.533 -0.0882 -0.4626  0.7012
   45MOL   C11824846   2.317   1.517   4.484  0.1985  0.5151  0.4569
   45MOL   O11924847   2.325   1.656   4.437 -0.3129  0.1731 -0.0626
   45MOL   C12024848   2.311   1.765   4.526 -0.3858  0.6525 -0.1744
   45MOL   O12124849   2.306   1.747   4.649 -0.1853 -0.4132  0.1033
   45MOL   C12224850   2.319   1.898   4.452  0.1509  0.2139  0.0425
   45MOL   C12324851   2.334   1.917   4.317 -0.0722  0.0940 -0.5528
   45MOL   C12424852   2.315   2.041   4.257  0.4443 -0.0561 -0.5029
   45MOL   C12524853   2.267   2.148   4.338 -0.0747 -0.3950 -0.0405
   45MOL   C12624854   2.247   2.286   4.283  0.0206  0.0893  0.1551
   45MOL   O12724855   2.237   2.391   4.349 -0.0440 -0.4972 -0.6209
   45MOL   C12824856   2.265   2.137   4.476 -0.3452  0.1586  0.7426
   45MOL   C12924857   2.291   2.012   4.531  0.2526  0.4561  0.0834
   45MOL   H13024858   2.787   1.489   4.457  0.8982 -0.7165  0.3370
   45MOL   H13124859   2.701   1.345   4.518  2.7254  0.3994  0.3868
   45MOL   H13224860   2.562   1.465   4.344 -0.4355  2.6263 -0.2125
   45MOL   H13324861   2.568   1.603   4.439  2.2211 -0.5131 -2.6946
   45MOL   H13424862   2.434   1.342   4.529  1.1811 -0.7038  1.6859
   45MOL   H13524863   2.472   1.485   4.634 -1.3763  3.1233 -0.1825
   45MOL   H13624864   2.281   1.458   4.400 -1.3892 -0.4655  1.7937
   45MOL   H13724865   2.232   1.519   4.552 -0.0774 -0.8073  0.1580
   45MOL   H13824866   2.343   1.829   4.255 -0.1581  0.4539 -1.0810
   45MOL   H13924867   2.338   2.038   4.151  0.2188  2.0235 -0.6231
   45MOL   H14024868   2.251   2.232   4.525  2.0575  1.6834 -1.4039
   45MOL   H14124869   2.314   1.998   4.636  0.8111  0.4352 -0.0422
   45MOL   O14224870   2.247   2.282   4.155  0.0325 -0.3068  0.3689
   45MOL   C14324871   2.171   2.379   4.089  0.8127  0.4067 -0.0200
   45MOL   C14424872   2.125   2.316   3.958  1.3798  0.0585 -0.6968
   45MOL   C14524873   2.024   2.405   3.882  0.7036  0.5652  0.0887
   45MOL   C14624874   1.955   2.316   3.774 -0.5963  0.6888  0.6000
   45MOL   O14724875   2.055   2.261   3.690 -0.3759 -0.2754  0.1302
   45MOL   C14824876   2.020   2.233   3.569  0.1720  0.2688  0.3107
   45MOL   O14924877   1.908   2.207   3.532  0.1006 -0.0041 -0.1504
   45MOL   C15024878   2.129   2.225   3.472  0.3058 -0.2186 -0.1621
   45MOL   C15124879   2.097   2.205   3.337  0.2292 -0.3765 -0.6462
   45MOL   C15224880   2.203   2.196   3.240  0.5075  0.0680  0.4939
   45MOL   C15324881   2.333   2.209   3.278 -0.4628 -0.1223 -0.8948
   45MOL   C15424882   2.445   2.209   3.178  0.0244 -0.1956 -0.4652
   45MOL   O15524883   2.561   2.170   3.196  0.0068  0.1654  0.3139
   45MOL   C15624884   2.363   2.213   3.416 -0.0726  0.5275 -0.6551
   45MOL   C15724885   2.262   2.222   3.515 -0.0090 -0.2711 -0.6831
   45MOL   H15824886   2.082   2.403   4.147  1.7002 -0.1824  1.6519
   45MOL   H15924887   2.225   2.471   4.069  1.6919  0.6172  3.0348
   45MOL   H16024888   2.075   2.220   3.972 -1.9086  1.7603 -0.2098
   45MOL   H16124889   2.217   2.296   3.903  0.1513 -1.3172 -2.3080
   45MOL   H16224890   1.943   2.447   3.942  0.1168 -0.7767  0.2599
   45MOL   H16324891   2.074   2.485   3.828  0.2686  1.0542  0.4078
   45MOL   H16424892   1.903   2.232   3.820  0.5528  0.2452  1.0977
   45MOL   H16524893   1.885   2.378   3.718  0.8912  1.0653 -0.8556
   45MOL   H16624894   1.998   2.194   3.295 -0.2250 -2.1379  0.8370
   45MOL   H16724895   2.183   2.166   3.138  0.3804  1.8012 -0.0110
   45MOL   H16824896   2.464   2.223   3.453 -0.5207 -0.0165  0.7495
   45MOL   H16924897   2.283   2.227   3.621 -1.7807 -1.6017 -0.2490
   45MOL   O17024898   2.400   2.267   3.066  0.2232  0.3452 -0.3011
   45MOL   C17124899   2.480   2.289   2.943 -0.1127  0.2422  0.6838
   45MOL   C17224900   2.560   2.418   2.940  0.0123  0.4318 -0.5400
   45MOL   C17324901   2.620   2.437   2.807 -0.6931  0.3669  1.1414
   45MOL   C17424902   2.670   2.584   2.784 -0.0113 -0.1327  0.0703
   45MOL   O17524903   2.735   2.585   2.658 -0.0979 -0.0328 -0.4078
   45MOL   C17624904   2.665   2.603   2.543 -0.3941 -0.2891 -0.6945
   45MOL   O17724905   2.543   2.593   2.538 -0.2937  0.1546 -0.0819
   45MOL   C17824906   2.757   2.649   2.434  0.7334  0.1999 -0.2654
   45MOL   C17924907   2.705   2.663   2.303 -0.5182 -0.0499  0.3292
   45MOL   C18024908   2.783   2.710   2.200  0.1323 -0.5618  0.3286
   45MOL   C18124909   2.917   2.738   2.225 -0.2376 -0.0947 -0.0701
   45MOL   C18224910   3.002   2.803   2.119 -1.3729 -0.3854  0.0965
   45MOL   O18324911   3.124   2.832   2.134 -0.5229  0.1850 -0.4924
   45MOL   C18424912   2.969   2.725   2.355 -0.7200  1.0378 -0.1019
   45MOL   C18524913   2.893   2.686   2.460  0.0539 -0.0227  0.0620
   45MOL   H18624914   2.553   2.209   2.930 -0.1922  0.4757 -1.3871
   45MOL   H18724915   2.418   2.279   2.854  1.5829  1.3859 -0.6606
   45MOL   H18824916   2.631   2.420   3.022 -0.4393 -2.0002 -0.0587
   45MOL   H18924917   2.499   2.504   2.968 -1.2268 -1.2918  2.1698
   45MOL   H19024918   2.694   2.360   2.785 -0.7073  0.4665  0.7312
   45MOL   H19124919   2.541   2.406   2.738 -0.5484 -0.0182  1.1503
   45MOL   H19224920   2.588   2.656   2.790 -0.5841 -0.7387 -0.3046
   45MOL   H19324921   2.736   2.624   2.861 -1.1380  2.4912 -0.2720
   45MOL   H19424922   2.603   2.634   2.283 -0.5140 -0.8091  1.3591
   45MOL   H19524923   2.749   2.730   2.100 -1.9371 -0.6985  0.9936
   45MOL   H19624924   3.073   2.744   2.380 -0.1230 -1.1538 -0.7916
   45MOL   H19724925   2.929   2.675   2.561  0.5698 -0.3493 -0.1572
   45MOL   O19824926   2.935   2.839   2.010  0.1278  0.2424 -1.1565
   45MOL   C19924927   2.995   2.928   1.925 -0.0482  0.0938 -0.5549
   45MOL   C20024928   2.934   2.925   1.785  0.2843  0.2003  0.4262
   45MOL   C20124929   2.990   3.041   1.694  0.0625 -0.4368 -0.0928
   45MOL   C20224930   2.964   3.013   1.550  0.3804 -0.2047 -0.0471
   45MOL   O20324931   3.027   3.108   1.476 -0.0690  0.0886  0.8872
   45MOL   C20424932   3.100   3.076   1.364  1.1394  0.4360  0.5415
   45MOL   O20524933   3.099   2.967   1.300 -0.4686  0.5824  0.0794
   45MOL   C20624934   3.194   3.191   1.328  0.7448  0.6100  0.3749
   45MOL   C20724935   3.300   3.159   1.238 -0.5654 -0.9671 -0.1133
   45MOL   C20824936   3.400   3.259   1.223 -0.2901 -0.6468 -0.2897
   45MOL   C20924937   3.400   3.380   1.297 -0.3853 -0.3578  0.4650
   45MOL   C21024938   3.507   3.479   1.279 -0.1632  0.9787  0.6008
   45MOL   O21124939   3.593   3.456   1.197 -0.8030 -0.0018  0.8227
   45MOL   C21224940   3.289   3.408   1.383 -0.3286  0.3874 -0.3638
   45MOL   C21324941   3.185   3.317   1.392 -0.4098  0.5897 -0.4283
   45MOL   H21424942   2.981   3.025   1.973 -0.2317 -0.3166  0.2267
   45MOL   H21524943   3.102   2.910   1.913 -0.0889 -1.3615  1.0278
   45MOL   H21624944   2.826   2.935   1.799  0.1745 -2.0636  1.2362
   45MOL   H21724945   2.963   2.835   1.732 -0.4872 -0.2154  0.7085
   45MOL   H21824946   2.940   3.133   1.727 -0.8398 -0.3942 -1.5182
   45MOL   H21924947   3.097   3.054   1.711  0.0699 -0.5919 -0.0234
   45MOL   H22024948   2.997   2.913   1.522 -0.2301 -1.2113  2.6829
   45MOL   H22124949   2.858   3.017   1.528  0.0711  2.8818  1.6488
   45MOL   H22224950   3.305   3.067   1.182  0.7906 -1.5850  0.9965
   45MOL   H22324951   3.479   3.239   1.153 -1.4340 -2.4497 -1.0867
   45MOL   H22424952   3.280   3.494   1.449 -0.9312 -0.0748  0.1569
   45MOL   H22524953   3.097   3.331   1.453 -2.0812 -1.2912 -2.3168
   45MOL   O22624954   3.519   3.583   1.372  0.2176  0.6252 -0.0743
   45MOL   C22724955   3.641   3.651   1.394 -0.4191 -0.3061 -0.0923
   45MOL   C22824956   3.725   3.583   1.500 -0.1953 -0.4328 -0.4899
   45MOL   C22924957   3.781   3.442   1.468 -0.0979  0.0132  0.0462
   45MOL   C23024958   3.889   3.406   1.558 -0.9897 -0.4575 -0.2863
   45MOL   O23124959   3.832   3.381   1.688  0.0620 -0.1832 -0.2667
   45MOL   C23224960   3.902   3.432   1.798  1.1736  0.2825 -0.0947
   45MOL   O23324961   4.005   3.488   1.783 -0.1696  0.2980  0.2576
   45MOL   C23424962   3.838   3.396   1.934 -0.0990  0.2804 -0.1070
   45MOL   C23524963   3.721   3.321   1.938  0.1008 -0.3372 -0.7859
   45MOL   C23624964   3.660   3.292   2.062 -0.9078 -0.4157 -0.0524
   45MOL   C23724965   3.728   3.325   2.187  0.2696  0.0282 -0.2326
   45MOL   C23824966   3.680   3.266   2.312 -0.1438  0.1497  0.0714
   45MOL   O23924967   3.591   3.180   2.321  0.2289 -0.0715 -0.8711
   45MOL   C24024968   3.849   3.391   2.178 -0.5763  0.7857 -0.1781
   45MOL   C24124969   3.908   3.423   2.058 -0.0963  0.3690 -0.3860
   45MOL   H24224970   3.702   3.660   1.304 -0.3927 -1.8934 -0.2564
   45MOL   H24324971   3.597   3.744   1.430  1.0635  0.5124 -0.3365
   45MOL   H24424972   3.666   3.583   1.592  1.1839  3.0582  0.4463
   45MOL   H24524973   3.802   3.655   1.525  0.1644 -0.1619 -2.2675
   45MOL   H24624974   3.702   3.367   1.464  2.0985 -2.5809  2.9114
   45MOL   H24724975   3.821   3.451   1.367 -0.3994  1.9294  0.0752
   45MOL   H24824976   3.935   3.311   1.530 -1.5395 -0.1794 -2.1598
   45MOL   H24924977   3.967   3.482   1.561 -0.2517 -1.0860 -2.7114
   45MOL   H25024978   3.675   3.297   1.844  0.2229  2.4783 -1.6039
   45MOL   H25124979   3.569   3.234   2.059 -0.3382 -1.3082 -0.6385
   45MOL   H25224980   3.909   3.422   2.262  1.9298 -0.4536 -1.4766
   45MOL   H25324981   4.005   3.468   2.047  1.1719 -2.1765  0.2052
   45MOL   O25424982   3.739   3.316   2.426  0.7079 -0.6112  0.1680
   45MOL   C25524983   3.724   3.252   2.548  0.7924  0.1563  0.0062
   45MOL   C25624984   3.769   3.348   2.653  0.1762 -0.0162 -0.5546
   45MOL   C25724985   3.785   3.285   2.795  0.2534  0.1153  1.2743
   45MOL   C25824986   3.786   3.390   2.901  0.2000 -0.7233  0.7383
   45MOL   O25924987   3.782   3.326   3.028 -0.4506 -0.2061  0.1809
   45MOL   C26024988   3.679   3.342   3.116 -0.2477  0.1524  1.0813
   45MOL   O26124989   3.588   3.419   3.104  0.2342 -0.6158 -0.2666
   45MOL   C26224990   3.675   3.243   3.219  0.0568  1.1182 -0.2972
   45MOL   C26324991   3.780   3.151   3.234 -0.4268 -0.1672 -0.3156
   45MOL   C26424992   3.779   3.053   3.330  0.9558  0.1977  0.6597
   45MOL   C26524993   3.666   3.038   3.413  0.1875  0.1616  0.5467
   45MOL   C26624994   3.651   2.925   3.518  0.0813  0.3085 -0.0250
   45MOL   O26724995   3.554   2.909   3.593 -0.4003  0.1496  0.3487
   45MOL   C26824996   3.548   3.112   3.387 -0.4160 -0.0379  0.2910
   45MOL   C26924997   3.556   3.220   3.294 -0.5409 -0.2004  0.7301
   45MOL   H27024998   3.621   3.223   2.573  1.5315 -0.2769  2.6373
   45MOL   H27124999   3.781   3.159   2.552 -1.5016 -1.2925  0.5341
   45MOL   H27225000   3.697   3.430   2.649 -1.7168 -1.6382 -0.7209
   45MOL   H27325001   3.859   3.407   2.633  1.1892 -1.5183 -0.4817
   45MOL   H27425002   3.696   3.227   2.817  0.3370 -0.1257  0.9795
   45MOL   H27525003   3.875   3.225   2.805 -0.0069 -0.2474  1.4310
   45MOL   H27625004   3.887   3.432   2.893  0.0292 -0.5486 -0.7552
   45MOL   H27725005   3.711   3.468   2.887 -0.0536 -1.2396 -0.9607
   45MOL   H27825006   3.873   3.158   3.179 -0.6298 -1.7320 -0.8852
   45MOL   H27925007   3.866   2.990   3.344 -0.0809 -1.2089  0.8124
   45MOL   H28025008   3.456   3.092   3.440 -1.7519  2.0159 -1.2104
   45MOL   H28125009   3.467   3.275   3.268 -0.9804 -0.7298  1.1131
   45MOL   O28225010   3.745   2.831   3.497  0.0991 -0.3303 -0.1335
   45MOL   C28325011   3.770   2.721   3.590  0.0998  0.1852 -0.5412
   45MOL   C28425012   3.686   2.587   3.583 -0.1384 -0.2651  0.3778
   45MOL   C28525013   3.654   2.523   3.716 -0.0034  0.1732  0.6336
   45MOL   C28625014   3.561   2.598   3.810  0.2376  0.6498  0.1568
   45MOL   O28725015   3.593   2.730   3.855  0.4011  0.2616 -0.1354
   45MOL   C28825016   3.671   2.738   3.965  0.1045  0.1913 -0.3866
   45MOL   O28925017   3.730   2.640   4.013 -0.1495  0.2108 -0.1298
   45MOL   C29025018   3.676   2.871   4.029  0.2567  0.5030  0.3357
   45MOL   C29125019   3.586   2.975   4.005 -0.2561 -0.0515 -0.2507
   45MOL   C29225020   3.588   3.094   4.084 -0.2400 -0.2710 -0.7309
   45MOL   C29325021   3.693   3.113   4.183 -0.1760 -0.2113  0.4791
   45MOL   C29425022   3.704   3.241   4.255 -0.6660 -0.3488  0.3351
   45MOL   O29525023   3.769   3.257   4.360  0.5744 -0.0188 -0.0696
   45MOL   C29625024   3.775   3.003   4.215 -0.2927  0.0757 -0.5632
   45MOL   C29725025   3.765   2.884   4.137 -0.0697 -0.1465 -0.0683
   45MOL   H29825026   3.869   2.681   3.566  0.3369 -1.2897  2.6042
   45MOL   H29925027   3.767   2.759   3.692 -2.1684  1.3890 -1.0362
   45MOL   H30025028   3.733   2.510   3.522 -0.3969 -0.4145  0.3662
   45MOL   H30125029   3.587   2.597   3.539  1.1671 -1.7858 -3.0403
   45MOL   H30225030   3.606   2.427   3.697 -0.5579  0.6789 -0.5519
   45MOL   H30325031   3.746   2.494   3.767 -0.2663 -0.9372  0.4857
   45MOL   H30425032   3.468   2.615   3.756  0.3458 -3.0639 -1.3142
   45MOL   H30525033   3.528   2.547   3.900 -3.2109 -2.5548 -2.7438
   45MOL   H30625034   3.516   2.973   3.922  2.1863  3.2658 -2.5521
   45MOL   H30725035   3.522   3.178   4.070 -0.4208  0.2239  2.7034
   45MOL   H30825036   3.839   3.012   4.301 -0.6459  0.5806 -0.3506
   45MOL   H30925037   3.838   2.809   4.162  0.2242  0.3197  0.4778
   45MOL   O31025038   3.633   3.339   4.201  0.5133 -0.0182  0.4829
   45MOL   C31125039   3.636   3.465   4.262 -0.9765  0.7003  0.3286
   45MOL   C31225040   3.501   3.530   4.240 -0.3774  0.2365 -0.2463
   45MOL   C31325041   3.488   3.544   4.086 -0.1826  1.0333  0.2067
   45MOL   C31425042   3.355   3.601   4.048  0.2591  0.2768 -0.1676
   45MOL   O31525043   3.365   3.658   3.918  0.5774  0.2857 -0.8659
   45MOL   C31625044   3.263   3.623   3.831  0.1025  0.3486  1.1206
   45MOL   O31725045   3.209   3.505   3.845  0.8355 -0.1954  0.4626
   45MOL   C31825046   3.228   3.729   3.741 -0.6341 -0.8689  0.0074
   45MOL   C31925047   3.321   3.838   3.714  0.7524 -0.0596 -0.1382
   45MOL   C32025048   3.293   3.941   3.620 -0.5925  0.6557  0.2411
   45MOL   C32125049   3.167   3.949   3.558 -0.1641 -0.3114 -0.7839
   45MOL   C32225050   3.117   4.070   3.482 -0.3874  0.2926  0.4810
   45MOL   O32325051   3.187   4.173   3.464  0.3903 -0.0084 -0.4732
   45MOL   C32425052   3.078   3.842   3.575 -0.3725  0.0062  0.0731
   45MOL   C32525053   3.113   3.733   3.661 -0.8099  0.2425 -0.9657
   45MOL   H32625054   3.632   3.442   4.368 -0.1170 -0.6244  0.0785
   45MOL   H32725055   3.730   3.510   4.230 -0.2798 -0.6502  0.4790
   45MOL   H32825056   3.503   3.625   4.294 -1.1895  0.6789 -0.9794
   45MOL   H32925057   3.427   3.461   4.281  0.4761 -0.0659  0.8100
   45MOL   H33025058   3.559   3.616   4.044 -1.0505  1.6618 -0.2160
   45MOL   H33125059   3.500   3.447   4.039  0.7806  1.1241  0.2634
   45MOL   H33225060   3.276   3.526   4.039  0.5461  0.4356 -5.3699
   45MOL   H33325061   3.318   3.674   4.121 -1.6423  0.7439 -1.5490
   45MOL   H33425062   3.425   3.835   3.745  1.1068 -0.3627 -1.3306
   45MOL   H33525063   3.360   4.017   3.585  0.2438  0.2099  0.8704
   45MOL   H33625064   2.977   3.845   3.536 -0.3448  0.4451  0.0279
   45MOL   H33725065   3.041   3.653   3.666  0.1566 -0.4785  2.6573
   45MOL   O33825066   2.994   4.068   3.428  0.0296 -0.7485  0.4268
   45MOL   C33925067   2.941   4.191   3.374 -0.3698 -0.4751  0.5360
   45MOL   C34025068   2.911   4.200   3.226  0.1420 -0.3670  0.1430
   45MOL   C34125069   2.837   4.328   3.200  0.3067  0.3883 -0.3673
   45MOL   C34225070   2.798   4.340   3.052 -0.1309  0.1800 -0.2552
   45MOL   O34325071   2.704   4.446   3.046 -0.2011 -0.4693  0.4648
   45MOL   C34425072   2.566   4.432   3.084 -0.4572  0.1101 -0.2463
   45MOL   O34525073   2.513   4.329   3.128  0.6862 -0.3317  0.2243
   45MOL   C34625074   2.500   4.563   3.074 -0.0290 -0.3723 -0.3032
   45MOL   C34725075   2.368   4.584   3.119  0.1549  0.2888  0.1419
   45MOL   C34825076   2.303   4.708   3.108 -0.2788  0.4577 -0.0941
   45MOL   C34925077   2.371   4.819   3.041  0.4365 -0.4669 -0.1353
   45MOL   C35025078   2.301   4.952   3.020 -0.1090  1.0492 -0.2438
   45MOL   O35125079   2.358   5.047   2.965  0.3118  0.3607  0.2565
   45MOL   C35225080   2.498   4.794   2.983  0.7442  0.3860 -0.6410
   45MOL   C35325081   2.560   4.673   3.007 -0.2391 -0.4652 -0.0083
   45MOL   H35425082   2.844   4.205   3.423 -0.8609  3.3667 -1.3036
   45MOL   H35525083   2.992   4.282   3.406 -0.6900  1.2047 -3.4712
   45MOL   H35625084   2.849   4.115   3.196  0.4547 -0.1972 -1.0113
   45MOL   H35725085   2.996   4.183   3.160 -0.7409  0.2777 -1.1965
   45MOL   H35825086   2.743   4.324   3.255 -0.5550 -1.9164 -1.9093
   45MOL   H35925087   2.898   4.412   3.233 -0.2669  0.7609 -0.2548
   45MOL   H36025088   2.885   4.370   2.994  0.4350  0.9983  1.0175
   45MOL   H36125089   2.737   4.256   3.016  0.5073 -0.5873  0.4249
   45MOL   H36225090   2.308   4.506   3.162  0.7783 -0.0044  0.4884
   45MOL   H36325091   2.205   4.714   3.153  0.2723 -0.6060  1.2800
   45MOL   H36425092   2.550   4.872   2.930 -1.0422  2.4181  0.5309
   45MOL   H36525093   2.658   4.661   2.962 -0.8736 -0.3238 -1.4555
   45MOL   O36625094   2.168   4.954   3.056 -0.2215  0.1565  0.0856
   45MOL   C36725095   2.096   5.078   3.033  0.1316  0.6264 -0.0064
   45MOL   C36825096   2.064   5.163   3.157  0.5472  0.3385  0.7762
   45MOL   C36925097   1.965   5.097   3.252  0.1342 -0.2879 -0.0886
   45MOL   C37025098   1.923   5.184   3.370  0.9857  0.3975 -0.1285
   45MOL   O37125099   1.827   5.114   3.443  0.1882 -0.5269  0.2414
   45MOL   C37225100   1.769   5.188   3.534  0.0359  0.9282 -0.5776
   45MOL   O37325101   1.789   5.312   3.545 -0.0635  0.5570  0.4543
   45MOL   C37425102   1.682   5.114   3.621 -0.8982  0.4549 -0.3136
   45MOL   C37525103   1.613   5.187   3.720  0.4358  0.4391  0.0337
   45MOL   C37625104   1.519   5.126   3.803 -0.1442 -0.2061  0.3267
   45MOL   C37725105   1.502   4.988   3.802 -0.6192 -0.5553  0.1383
   45MOL   C37825106   1.412   4.911   3.893  0.5726 -0.2640 -0.3641
   45MOL   O37925107   1.376   4.953   4.000  0.3286  0.1826  0.5752
   45MOL   C38025108   1.582   4.910   3.713 -0.2092 -0.1024  0.1513
   45MOL   C38125109   1.667   4.973   3.618 -0.2529  0.1071 -0.4093
   45MOL   H38225110   2.146   5.142   2.961  2.1162 -2.3948 -1.4254
   45MOL   H38325111   2.001   5.057   2.983 -1.7521  2.6305  2.5526
   45MOL   H38425112   2.037   5.260   3.114  2.3912  0.5018 -0.0706
   45MOL   H38525113   2.153   5.185   3.216 -1.0034 -0.9736  3.6718
   45MOL   H38625114   1.877   5.066   3.196 -1.4798  0.4128  2.0055
   45MOL   H38725115   1.996   5.000   3.290  1.9336  0.9728  1.7544
   45MOL   H38825116   2.001   5.223   3.435  1.6641 -1.8305  0.4366
   45MOL   H38925117   1.876   5.275   3.334 -0.8572  0.1476  1.5174
   45MOL   H39025118   1.611   5.295   3.720  2.7542  0.5442 -3.3905
   45MOL   H39125119   1.466   5.177   3.882  0.5995  0.4207  0.4318
   45MOL   H39225120   1.586   4.802   3.706  1.3971  0.0758 -2.5181
   45MOL   H39325121   1.724   4.915   3.547  0.0969  0.7084 -0.6140
   45MOL   O39425122   1.387   4.792   3.847 -0.0721 -0.5043 -0.4634
   45MOL   C39525123   1.294   4.706   3.915 -0.1260 -0.0076  0.3696
   45MOL   C39625124   1.377   4.597   3.985 -0.4004  0.5131 -0.8117
   45MOL   C39725125   1.440   4.639   4.124 -0.3946  0.2156  0.4313
   45MOL   C39825126   1.475   4.521   4.215 -0.0077  0.0156 -0.6724
   45MOL   O39925127   1.356   4.453   4.266 -0.2028 -0.0853 -0.3341
   45MOL   C40025128   1.268   4.512   4.350 -0.1487  0.4330  0.5504
   45MOL   O40125129   1.289   4.619   4.399 -0.5600  0.3314 -0.0938
   45MOL   C40225130   1.142   4.432   4.363 -0.1738  0.4699 -0.1977
   45MOL   C40325131   1.039   4.474   4.449  0.0351  0.2501 -0.4657
   45MOL   C40425132   0.920   4.403   4.474 -0.2228 -0.6880  0.0301
   45MOL   C40525133   0.902   4.276   4.412  0.5611 -1.0677 -0.3884
   45MOL   C40625134   0.778   4.189   4.443  0.5202  0.1420 -0.3184
   45MOL   O40725135   0.672   4.233   4.487  0.0131 -0.4373 -0.5594
   45MOL   C40825136   1.004   4.232   4.324 -0.7432 -0.1703  0.5057
   45MOL   C40925137   1.121   4.309   4.296 -0.1494  0.5249 -0.4757
   45MOL   H41025138   1.229   4.753   3.989 -0.6420 -0.3066  0.1134
   45MOL   H41125139   1.215   4.670   3.849 -0.3909 -0.3461  0.8622
   45MOL   H41225140   1.460   4.562   3.923  0.3404 -0.2154  0.5658
   45MOL   H41325141   1.312   4.513   4.006 -1.4811  1.5164 -0.0865
   45MOL   H41425142   1.535   4.688   4.101  0.5346 -1.4709  0.6406
   45MOL   H41525143   1.374   4.716   4.165  0.1804  2.2392 -2.2676
   45MOL   H41625144   1.535   4.452   4.156 -0.8721  0.1122 -1.6628
   45MOL   H41725145   1.527   4.570   4.298 -3.8676  1.0954  1.2193
   45MOL   H41825146   1.059   4.559   4.512 -0.5886 -0.8610  1.2670
   45MOL   H41925147   0.844   4.442   4.540 -0.2049 -1.1453  0.3235
   45MOL   H42025148   0.982   4.140   4.271  0.8731  1.3683 -3.0002
   45MOL   H42125149   1.193   4.270   4.226 -0.5794  1.9055 -1.7238
   45MOL   O42225150   0.797   4.064   4.410  0.4094 -0.2529  0.1035
   45MOL   C42325151   0.702   3.960   4.423  0.5394  0.3014  0.3532
   45MOL   C42425152   0.736   3.851   4.316 -0.2305  0.1012 -0.1127
   45MOL   C42525153   0.674   3.713   4.346  0.2119  0.1739  0.2323
   45MOL   C42625154   0.747   3.638   4.457 -0.9894  0.5212  0.1272
   45MOL   O42725155   0.875   3.594   4.417  0.2146  0.1151  0.0112
   45MOL   C42825156   0.964   3.525   4.500  0.6817  0.2440  0.6984
   45MOL   O42925157   0.946   3.501   4.626 -0.1404  0.0281  0.6985
   45MOL   C43025158   1.085   3.480   4.427 -0.5667 -0.2161 -0.5338
   45MOL   C43125159   1.165   3.374   4.465  0.0371 -0.0042 -0.3527
   45MOL   C43225160   1.283   3.343   4.392 -0.1693  0.1002 -0.6883
   45MOL   C43325161   1.312   3.405   4.272  0.5554 -1.1297  0.0527
   45MOL   C43425162   1.441   3.377   4.209  0.3799 -0.5288 -0.6207
   45MOL   O43525163   1.526   3.300   4.258 -0.7464  0.2547 -0.0113
   45MOL   C43625164   1.229   3.510   4.233 -0.0525  0.6091 -0.4482
   45MOL   C43725165   1.114   3.545   4.304  0.3831  0.0515  0.0299
   45MOL   H43825166   0.702   3.906   4.518 -0.9895 -1.5690 -0.6872
   45MOL   H43925167   0.598   3.992   4.417 -0.1918 -1.7137  1.8594
   45MOL   H44025168   0.845   3.854   4.307 -0.2444  0.2939 -0.2390
   45MOL   H44125169   0.693   3.884   4.221 -3.8312 -3.5223  0.0992
   45MOL   H44225170   0.569   3.734   4.367 -0.2513 -1.4576 -0.4140
   45MOL   H44325171   0.667   3.653   4.255 -0.3403 -0.7569  0.8796
   45MOL   H44425172   0.766   3.691   4.551  2.3578  1.0442 -0.7643
   45MOL   H44525173   0.687   3.552   4.487 -1.0391  0.9098  1.1497
   45MOL   H44625174   1.130   3.318   4.551  1.0757  0.3098  0.2857
   45MOL   H44725175   1.354   3.273   4.434  0.1885  1.7204  1.5266
   45MOL   H44825176   1.258   3.561   4.142  0.0313  1.4957  0.0684
   45MOL   H44925177   1.055   3.626   4.263 -1.3224 -0.8303  0.6652
   45MOL   O45025178   1.455   3.435   4.096  0.4735 -0.4708 -0.0672
   45MOL   C45125179   1.581   3.426   4.028 -0.0681  0.1837  0.1466
   45MOL   C45225180   1.591   3.550   3.935 -0.4736 -0.0953  0.1446
   45MOL   C45325181   1.595   3.684   4.016 -0.6567 -0.1642  0.1464
   45MOL   C45425182   1.468   3.766   4.002  0.2609 -0.4555 -0.2589
   45MOL   O45525183   1.466   3.817   3.872 -0.2995 -0.0932 -0.4829
   45MOL   C45625184   1.349   3.831   3.816  0.1434 -0.5321  0.3061
   45MOL   O45725185   1.235   3.820   3.876  0.7726  0.1750 -0.2341
   45MOL   C45825186   1.355   3.877   3.677 -0.3940  0.1070  0.2137
   45MOL   C45925187   1.241   3.939   3.615  0.5153  0.5594 -0.0759
   45MOL   C46025188   1.251   3.976   3.480  0.1175  0.4664  0.6781
   45MOL   C46125189   1.372   3.953   3.407  0.6391 -0.6710 -0.1869
   45MOL   C46225190   1.378   3.997   3.265  0.6067  0.1563  0.9974
   45MOL   O46325191   1.472   3.970   3.189 -0.2960 -0.3509 -0.5403
   45MOL   C46425192   1.486   3.909   3.476 -0.3689  0.1162  0.1935
   45MOL   C46525193   1.479   3.861   3.607  0.9850  0.5871 -0.1687
   45MOL   H46625194   1.673   3.440   4.084 -0.3858  0.7886  0.5185
   45MOL   H46725195   1.580   3.337   3.965 -0.8000  2.0084 -2.5244
   45MOL   H46825196   1.508   3.548   3.864 -0.6965  0.6427  0.3730
   45MOL   H46925197   1.681   3.529   3.878  0.2074  1.1989  0.7054
   45MOL   H47025198   1.620   3.670   4.121  1.1067  0.6299 -0.1436
   45MOL   H47125199   1.667   3.754   3.973 -0.5313  0.1218  0.8016
   45MOL   H47225200   1.391   3.692   4.027  0.7639 -1.0742 -0.5160
   45MOL   H47325201   1.466   3.847   4.075  0.1545 -0.7639  0.0855
   45MOL   H47425202   1.147   3.946   3.669  1.2935  0.9344  1.2372
   45MOL   H47525203   1.158   3.996   3.429 -0.1363 -0.2986  0.8412
   45MOL   H47625204   1.584   3.903   3.432 -0.1337 -2.3749  0.9979
   45MOL   H47725205   1.563   3.812   3.655 -1.0915 -2.8260  0.1032
   45MOL   O47825206   1.270   4.079   3.224  0.4506  0.4436 -0.4133
   45MOL   C47925207   1.290   4.150   3.101 -0.2975 -0.2174  0.3376
   45MOL   C48025208   1.247   4.294   3.114 -0.3862  0.3411  0.1308
   45MOL   C48125209   1.095   4.310   3.139 -0.6509  0.1607  0.4982
   45MOL   C48225210   1.060   4.462   3.140  0.0324 -0.2709  0.2713
   45MOL   O48325211   0.916   4.483   3.119 -0.2716  0.6307 -0.3628
   45MOL   C48425212   0.834   4.509   3.222 -0.6559 -0.9201 -0.3540
   45MOL   O48525213   0.875   4.542   3.334  0.7929  0.3159 -0.6616
   45MOL   C48625214   0.690   4.502   3.185  1.0162  0.9281  0.2573
   45MOL   C48725215   0.650   4.490   3.049  0.6840  0.3227  0.5550
   45MOL   C48825216   0.509   4.492   3.013 -0.2413 -0.2769  0.2962
   45MOL   C48925217   0.411   4.507   3.114 -0.2201  0.5904  0.1342
   45MOL   C49025218   0.266   4.502   3.070 -1.0156  0.1251 -0.5617
   45MOL   O49125219   0.234   4.476   2.956  0.0692  0.4914 -0.4465
   45MOL   C49225220   0.449   4.512   3.248  0.3643 -0.3760 -0.4437
   45MOL   C49325221   0.590   4.516   3.282 -0.0736  0.4753 -0.1639
   45MOL   H49425222   1.387   4.148   3.053 -0.5760  1.3260 -0.3150
   45MOL   H49525223   1.222   4.108   3.026 -1.7269 -0.9106  1.9738
   45MOL   H49625224   1.269   4.339   3.017 -3.6669  0.2812 -0.6747
   45MOL   H49725225   1.307   4.342   3.191 -1.2385  0.4344  0.7372
   45MOL   H49825226   1.031   4.266   3.063 -0.7776 -0.5331  1.0009
   45MOL   H49925227   1.057   4.272   3.233 -0.7746 -0.1686  0.3151
   45MOL   H50025228   1.084   4.509   3.235 -3.0364  1.1822  0.4016
   45MOL   H50125229   1.108   4.510   3.054  0.2602 -0.4246  0.3129
   45MOL   H50225230   0.717   4.476   2.964 -0.0108  1.2613 -0.1532
   45MOL   H50325231   0.482   4.475   2.909 -0.2026  0.1677  0.2127
   45MOL   H50425232   0.371   4.513   3.322  1.3031 -1.3777  0.5889
   45MOL   H50525233   0.616   4.537   3.385 -2.2749  1.2457  0.2738
   45MOL   O50625234   0.171   4.536   3.175 -0.0522  0.0516  0.0345
   45MOL   C50725235   0.035   4.544   3.134 -0.7394 -0.3503  0.4743
   45MOL   C50825236   8.062   4.605   3.256 -1.3931  0.2879  0.3493
   45MOL   C50925237   8.063   4.507   3.378 -0.1581 -0.4351 -0.5373
   45MOL   C51025238   7.976   4.377   3.369 -0.1953 -0.3852 -0.8041
   45MOL   O51125239   7.837   4.387   3.393  0.7056  0.2257  0.5767
   45MOL   C51225240   7.751   4.285   3.351 -0.0212  0.1026  0.2394
   45MOL   O51325241   7.790   4.184   3.299  0.2324 -0.2724  0.4106
   45MOL   C51425242   7.604   4.316   3.378  0.5086  0.1670  0.0397
   45MOL   C51525243   7.564   4.442   3.431 -0.1533 -0.3067  0.2268
   45MOL   C51625244   7.427   4.462   3.453  0.2592  0.4058  0.2281
   45MOL   C51725245   7.333   4.360   3.427  0.2556  0.0680 -1.0726
   45MOL   C51825246   7.189   4.370   3.478 -0.4924  0.4188  0.2135
   45MOL   O51925247   7.113   4.278   3.453 -0.2157 -0.1221 -0.2485
   45MOL   C52025248   7.374   4.235   3.374 -0.4573 -0.5281  0.1017
   45MOL   C52125249   7.510   4.209   3.349 -0.5452 -0.1305 -0.4307
   45MOL   H52225250   0.019   4.606   3.046  1.0817  0.2505  0.5546
   45MOL   H52325251   0.003   4.443   3.109  0.5059 -0.5570 -0.3338
   45MOL   H52425252   7.958   4.619   3.230 -1.2062  1.2501  0.1032
   45MOL   H52525253   0.004   4.706   3.271  1.3267 -0.4777 -1.2878
   45MOL   H52625254   0.069   4.480   3.394 -0.3334 -1.1084 -0.5192
   45MOL   H52725255   8.026   4.560   3.466  0.1404  0.0569 -0.7042
   45MOL   H52825256   7.989   4.339   3.268 -0.4452 -0.1090 -0.9392
   45MOL   H52925257   8.021   4.297   3.429  0.0222 -0.4984 -1.1201
   45MOL   H53025258   7.640   4.515   3.455 -2.6051  2.8737 -1.2976
   45MOL   H53125259   7.392   4.561   3.478 -2.0629 -0.5095  0.7362
   45MOL   H53225260   7.304   4.155   3.359 -0.5204 -0.9745  2.6229
   45MOL   H53325261   7.548   4.116   3.311  0.6186  0.3919 -0.5722
   45MOL   O53425262   7.160   4.472   3.554 -0.5171  0.4440  0.0276
   45MOL   C53525263   7.038   4.486   3.618  0.1339  0.3094 -0.5090
   45MOL   C53625264   7.007   4.634   3.660  0.1302  0.7024 -0.1987
   45MOL   C53725265   6.877   4.659   3.747 -0.2169 -0.2655  0.0279
   45MOL   C53825266   6.894   4.785   3.833 -0.0573 -0.0621 -0.0593
   45MOL   O53925267   6.968   4.749   3.951  0.2537 -0.7409  0.9273
   45MOL   C54025268   6.959   4.817   4.059 -0.0636 -0.9591  0.4531
   45MOL   O54125269   6.883   4.916   4.071  0.5352  0.1528 -0.2490
   45MOL   C54225270   7.056   4.765   4.161  0.4929  0.2049  0.2635
   45MOL   C54325271   7.099   4.629   4.155  0.3552 -0.0222  0.0150
   45MOL   C54425272   7.199   4.588   4.243  0.4725 -0.6973  0.0470
   45MOL   C54525273   7.245   4.666   4.351 -0.0570 -0.0514 -0.7099
   45MOL   C54625274   7.345   4.619   4.454  0.6771  1.2238  0.5650
   45MOL   O54725275   7.353   4.662   4.571  0.4611  0.5868  0.2667
   45MOL   C54825276   7.200   4.800   4.359 -0.1938 -0.3885 -0.1481
   45MOL   C54925277   7.117   4.853   4.255 -0.3195  0.5190 -0.1324
   45MOL   H55025278   6.950   4.450   3.563 -0.7366  0.4164  0.7943
   45MOL   H55125279   7.034   4.425   3.708  0.7303  2.0685  0.7419
   45MOL   H55225280   7.004   4.703   3.575  0.5844 -0.3241 -1.0645
   45MOL   H55325281   7.098   4.665   3.710 -0.2795  2.6067 -0.5968
   45MOL   H55425282   6.792   4.670   3.680  0.8610  0.6294 -1.2225
   45MOL   H55525283   6.862   4.580   3.821 -0.2661  2.3318  2.8580
   45MOL   H55625284   6.937   4.863   3.771 -0.8996  1.4675  1.2461
   45MOL   H55725285   6.803   4.830   3.875  0.5325  1.9939 -0.9142
   45MOL   H55825286   7.054   4.566   4.079  0.2402 -0.3091  0.3195
   45MOL   H55925287   7.236   4.486   4.240  0.6922 -0.5878 -0.8682
   45MOL   H56025288   7.239   4.873   4.429 -1.7936 -0.5474  0.9213
   45MOL   H56125289   7.086   4.956   4.256  0.7929  0.8631  0.0264
   45MOL   H56225290   7.407   4.536   4.422 -2.0756 -0.3015 -1.0345
   46MOL     O125291   0.833   7.551   6.609  0.3407 -0.1008 -0.0757
   46MOL     C225292   0.928   7.452   6.644 -0.3648  0.2978 -0.6489
   46MOL     C325293   0.949   7.450   6.797  0.1653 -0.3311  0.6006
   46MOL     C425294   0.827   7.379   6.861  0.0004 -0.5001 -0.1483
   46MOL     C525295   0.839   7.371   7.020 -0.0825 -0.2201 -0.0021
   46MOL     O625296   0.850   7.505   7.067 -0.1511 -0.4982 -0.2713
   46MOL     C725297   0.853   7.540   7.196  0.0072  0.1968  0.0600
   46MOL     O825298   0.838   7.453   7.285 -0.4813  0.1304  0.3916
   46MOL     C925299   0.880   7.681   7.222  0.2367 -0.3567 -0.7588
   46MOL    C1025300   0.936   7.768   7.123  0.3150  0.1733  0.3438
   46MOL    C1125301   0.977   7.903   7.153  0.7859  0.3660 -0.5522
   46MOL    C1225302   0.959   7.949   7.285 -0.2131  0.4055 -0.0313
   46MOL    C1325303   1.005   8.083   7.331  0.7396  0.7033 -0.0534
   46MOL    O1425304   0.987   0.022   7.448 -0.1654  0.1728  0.4555
   46MOL    C1525305   0.885   7.865   7.380  0.0753  0.2177  0.2351
   46MOL    C1625306   0.854   7.734   7.349  0.7638 -0.6118 -0.1740
   46MOL    H1725307   0.908   7.352   6.605  0.0513  0.4416 -1.2304
   46MOL    H1825308   1.016   7.485   6.590  0.0494 -0.4786 -0.4566
   46MOL    H1925309   0.971   7.549   6.837  4.7565 -0.7026 -0.7327
   46MOL    H2025310   1.034   7.386   6.823 -0.3536 -0.8482  1.0492
   46MOL    H2125311   0.736   7.428   6.826 -0.1939  0.0624  1.1038
   46MOL    H2225312   0.825   7.277   6.824 -0.2904 -0.5209 -0.0720
   46MOL    H2325313   0.745   7.330   7.058 -1.4122  1.4534 -1.3819
   46MOL    H2425314   0.923   7.307   7.045 -1.4121 -1.8280  0.4298
   46MOL    H2525315   0.960   7.739   7.022 -0.0192 -0.3746  0.4186
   46MOL    H2625316   1.029   7.965   7.081  2.8657  0.9923  1.4078
   46MOL    H2725317   0.864   7.911   7.475  2.5001  0.6924  0.5478
   46MOL    H2825318   0.809   7.666   7.420 -0.4805  0.5059  0.1362
   46MOL    H2925319   0.841   7.629   6.662 -1.6138 -0.0002  0.1045
   46MOL    O3025320   1.058   0.059   7.228  0.1307  0.2474 -0.8982
   46MOL    C3125321   1.109   0.183   7.263  0.5506  0.6837 -0.6817
   46MOL    C3225322   1.161   0.259   7.143  0.1720 -0.5788  0.4538
   46MOL    C3325323   1.232   0.383   7.172 -0.5096 -0.6332 -0.5458
   46MOL    C3425324   1.303   0.464   7.060  0.7128 -0.4669 -0.3702
   46MOL    O3525325   1.397   0.385   6.989 -0.0086 -0.5618 -0.1005
   46MOL    C3625326   1.448   0.424   6.869  0.3258  0.0260  0.1722
   46MOL    O3725327   1.423   0.537   6.824  0.7802 -0.2596  0.4839
   46MOL    C3825328   1.527   0.315   6.811 -0.4913 -0.6329 -0.0367
   46MOL    C3925329   1.627   0.353   6.724  0.3756  0.2460  0.2607
   46MOL    C4025330   1.707   0.255   6.675 -0.5457  1.2613  0.5531
   46MOL    C4125331   1.698   0.120   6.706 -1.0952 -0.4288  0.2385
   46MOL    C4225332   1.786   0.017   6.642  0.1057  0.7907 -0.4409
   46MOL    O4325333   1.886   0.049   6.575 -0.2755 -0.1502  0.3956
   46MOL    C4425334   1.606   0.090   6.806  0.0124  0.1225  0.4152
   46MOL    C4525335   1.510   0.181   6.849  0.0513 -0.0828  0.0445
   46MOL    H4625336   1.037   0.248   7.312 -1.1776 -0.4855 -1.6375
   46MOL    H4725337   1.184   0.160   7.338 -0.0682  1.6922  0.2549
   46MOL    H4825338   1.085   0.277   7.067 -0.1361  0.6670  1.0486
   46MOL    H4925339   1.232   0.189   7.099  0.0007 -0.4717  0.0031
   46MOL    H5025340   1.164   0.452   7.223  0.4515  0.6601 -0.9861
   46MOL    H5125341   1.304   0.357   7.250 -0.5547 -0.5759 -0.4854
   46MOL    H5225342   1.229   0.510   6.995  0.0077 -1.3676 -0.2190
   46MOL    H5325343   1.357   0.550   7.101 -0.8399  0.4318 -0.1647
   46MOL    H5425344   1.648   0.454   6.693 -0.4239  0.9136  1.8232
   46MOL    H5525345   1.783   0.290   6.608  1.6547 -0.8523  1.8310
   46MOL    H5625346   1.599   8.084   6.831  1.8006 -0.1798 -0.2825
   46MOL    H5725347   1.433   0.152   6.918  0.5681 -1.7723 -0.0647
   46MOL    O5825348   1.743   7.986   6.650 -0.5037  0.0923  0.3484
   46MOL    C5925349   1.824   7.882   6.596  0.8242 -0.0605  0.4263
   46MOL    C6025350   1.739   7.766   6.604 -0.1075 -0.0518  0.4970
   46MOL    C6125351   1.621   7.767   6.506 -0.1181  0.2287  0.1976
   46MOL    C6225352   1.493   7.845   6.538 -0.3002  0.3158  0.2700
   46MOL    O6325353   1.445   7.828   6.667  0.4011 -0.0337  0.1827
   46MOL    C6425354   1.346   7.737   6.690 -0.0889 -0.8627 -0.4415
   46MOL    O6525355   1.285   7.682   6.601  0.3126 -0.2587 -0.5239
   46MOL    C6625356   1.313   7.718   6.829  0.0889 -0.5620 -0.3232
   46MOL    C6725357   1.362   7.798   6.933 -0.2551 -0.1990  0.4353
   46MOL    C6825358   1.331   7.773   7.073  0.0444  0.1164 -0.0443
   46MOL    C6925359   1.247   7.665   7.104 -0.7092  0.8754  0.6982
   46MOL    C7025360   1.221   7.631   7.240 -0.4953  0.0547 -0.7430
   46MOL    O7125361   1.264   7.697   7.335 -0.3808  0.6643  0.3135
   46MOL    C7225362   1.194   7.586   6.995 -0.1097  0.1656 -1.2006
   46MOL    C7325363   1.229   7.610   6.861  0.2217  0.0479  0.2002
   46MOL    H7425364   1.847   7.906   6.492  0.2340  0.9150  0.5182
   46MOL    H7525365   1.906   7.857   6.664  1.3995  2.0929  0.5459
   46MOL    H7625366   1.686   7.755   6.698 -0.5049 -0.6462  0.2079
   46MOL    H7725367   1.804   7.681   6.584 -1.1465 -0.5015 -1.1246
   46MOL    H7825368   1.650   7.811   6.411 -0.5194  0.4508  0.1740
   46MOL    H7925369   1.595   7.662   6.494 -2.6225  0.6558  1.2888
   46MOL    H8025370   1.521   7.950   6.544  1.3848 -0.2539  3.1804
   46MOL    H8125371   1.414   7.832   6.464  0.8320  0.8288 -1.0443
   46MOL    H8225372   1.429   7.880   6.911 -0.5164 -0.6302 -2.1569
   46MOL    H8325373   1.392   7.832   7.138  1.4557  0.1682 -1.3877
   46MOL    H8425374   1.130   7.501   7.018 -1.8299  1.8275  0.3409
   46MOL    H8525375   1.191   7.540   6.788 -1.5094 -0.1607  1.2627
   46MOL    O8625376   1.160   7.514   7.246  0.2373  0.5403 -0.7545
   46MOL    C8725377   1.148   7.459   7.378 -0.4717 -0.0212  0.0587
   46MOL    C8825378   1.136   7.307   7.375  0.1997  0.2154 -1.1427
   46MOL    C8925379   1.108   7.249   7.514  0.4974 -0.0751 -0.1272
   46MOL    C9025380   1.081   7.101   7.503  0.2486 -0.2871 -0.0180
   46MOL    O9125381   0.963   7.076   7.427 -0.3718 -0.1672  0.1278
   46MOL    C9225382   0.892   6.960   7.438 -0.5229  0.2417  1.1977
   46MOL    O9325383   0.913   6.875   7.521  0.5999  0.0977 -0.0706
   46MOL    C9425384   0.780   6.962   7.338 -0.1509 -0.1819  0.6654
   46MOL    C9525385   0.795   7.002   7.202  0.1166  0.2854  0.1126
   46MOL    C9625386   0.684   7.009   7.114 -0.1681 -0.1228  0.5182
   46MOL    C9725387   0.561   6.961   7.153  0.6423 -0.0224 -0.2320
   46MOL    C9825388   0.443   6.971   7.053 -0.0960 -0.8415 -0.7389
   46MOL    O9925389   0.451   7.040   6.947 -0.4866 -0.6810 -0.4729
   46MOL   C10025390   0.548   6.928   7.288  0.8451 -0.2315  0.2720
   46MOL   C10125391   0.652   6.926   7.379  0.1390  0.1358 -0.4933
   46MOL   H10225392   1.237   7.487   7.434 -0.3463  1.3752 -0.8032
   46MOL   H10325393   1.068   7.508   7.434 -0.5647  0.5304 -0.5545
   46MOL   H10425394   1.228   7.272   7.327 -0.0364  0.3569 -1.7087
   46MOL   H10525395   1.057   7.270   7.310  1.2618 -1.6939 -1.3808
   46MOL   H10625396   1.183   7.276   7.588 -0.4662 -0.5755  1.0620
   46MOL   H10725397   1.007   7.278   7.546  0.3183  0.8723 -1.5170
   46MOL   H10825398   1.165   7.045   7.463 -1.1384 -0.7134 -2.4496
   46MOL   H10925399   1.068   7.063   7.605 -3.5592  0.2756 -0.2187
   46MOL   H11025400   0.885   7.036   7.154  0.0192  0.2014 -0.1303
   46MOL   H11125401   0.700   7.038   7.011  3.3553 -1.4038  0.6573
   46MOL   H11225402   0.449   6.909   7.326  0.3781  1.8339  0.1714
   46MOL   H11325403   0.639   6.906   7.485  2.0780  1.1258 -0.0451
   46MOL   O11425404   0.335   6.896   7.093 -0.4386  0.1588 -0.2775
   46MOL   C11525405   0.231   6.874   7.002 -0.4802  0.0107  0.1351
   46MOL   C11625406   0.106   6.907   7.082 -0.1665  0.1513  0.1695
   46MOL   C11725407   0.092   6.828   7.208  0.1945  0.2091  0.7186
   46MOL   C11825408   8.049   6.829   7.261  0.4270  0.1497 -0.5975
   46MOL   O11925409   7.956   6.778   7.166 -0.1541 -0.5456  0.2952
   46MOL   C12025410   7.831   6.735   7.210 -0.3095  0.6450 -1.0270
   46MOL   O12125411   7.794   6.747   7.333 -0.1469 -0.6536  0.4322
   46MOL   C12225412   7.738   6.682   7.103 -0.0054  0.9883 -0.4611
   46MOL   C12325413   7.773   6.699   6.971 -1.0691 -0.3883  0.1459
   46MOL   C12425414   7.687   6.659   6.866  0.5032  0.5413  0.1237
   46MOL   C12525415   7.564   6.596   6.897  0.2225 -0.0563 -0.3031
   46MOL   C12625416   7.485   6.532   6.790  0.3402 -0.0617 -0.1832
   46MOL   O12725417   7.525   6.533   6.674 -0.0363  0.3141 -0.1633
   46MOL   C12825418   7.533   6.579   7.032 -0.3347  0.4113 -0.5617
   46MOL   C12925419   7.615   6.632   7.136 -0.2215  0.2494  0.6501
   46MOL   H13025420   0.233   6.939   6.915 -0.2087  0.1262  0.2246
   46MOL   H13125421   0.239   6.771   6.968 -0.6266 -0.0515  0.2891
   46MOL   H13225422   0.026   6.879   7.014 -0.9422 -0.3552  1.2880
   46MOL   H13325423   0.110   7.013   7.107  1.8628 -0.0814  1.0039
   46MOL   H13425424   0.130   6.728   7.186 -2.9295 -0.5080 -1.9346
   46MOL   H13525425   0.164   6.855   7.285  1.9084 -1.6384 -0.1849
   46MOL   H13625426   8.042   6.768   7.351  2.5598 -0.5820 -0.9120
   46MOL   H13725427   8.007   6.925   7.292  1.5993  0.5446 -0.2056
   46MOL   H13825428   7.862   6.749   6.937 -1.1500  0.1514  0.7449
   46MOL   H13925429   7.716   6.663   6.762 -0.5047 -1.0962 -0.2332
   46MOL   H14025430   7.432   6.543   7.045 -0.6707  1.8115  0.8923
   46MOL   H14125431   7.583   6.618   7.238  0.0364  0.7212  0.8000
   46MOL   O14225432   7.362   6.482   6.828 -0.4285  0.4936  0.0488
   46MOL   C14325433   7.273   6.430   6.731 -0.0084  0.2243  0.1546
   46MOL   C14425434   7.130   6.481   6.758  0.1891  0.1032  0.3580
   46MOL   C14525435   7.054   6.556   6.639  0.1438  0.2573  0.8067
   46MOL   C14625436   7.142   6.622   6.535  0.6460  0.6608 -0.4884
   46MOL   O14725437   7.232   6.713   6.585 -0.0271 -0.2379  0.2975
   46MOL   C14825438   7.329   6.758   6.505 -0.6105  0.1322 -0.3554
   46MOL   O14925439   7.350   6.724   6.382  0.0059 -0.4987 -0.0081
   46MOL   C15025440   7.422   6.846   6.589 -0.9062  0.1031  0.8737
   46MOL   C15125441   7.559   6.856   6.556 -0.7027  0.1550  0.2000
   46MOL   C15225442   7.644   6.926   6.647 -0.1404 -0.0687  0.3494
   46MOL   C15325443   7.597   6.975   6.770 -0.9402  0.0628 -0.2446
   46MOL   C15425444   7.691   7.037   6.863 -0.0256  0.9984  0.0054
   46MOL   O15525445   7.798   7.089   6.837 -0.2284  0.6187  0.6220
   46MOL   C15625446   7.460   6.956   6.805 -0.3368  0.1665  0.1698
   46MOL   C15725447   7.373   6.910   6.704 -0.0716 -0.8969 -0.4219
   46MOL   H15825448   7.309   6.450   6.630  0.6183  3.2782  0.9396
   46MOL   H15925449   7.274   6.321   6.734  1.9863  0.2510  1.1633
   46MOL   H16025450   7.134   6.571   6.821  0.8569 -2.0542  3.5303
   46MOL   H16125451   7.073   6.406   6.813 -0.9384 -1.4772 -2.8872
   46MOL   H16225452   6.994   6.483   6.585  0.4869  1.3360 -1.0971
   46MOL   H16325453   6.994   6.636   6.681 -0.2359 -0.3525  1.4354
   46MOL   H16425454   7.193   6.548   6.473 -1.8612 -2.0139  0.5591
   46MOL   H16525455   7.080   6.674   6.461 -1.8262  0.5854  1.4806
   46MOL   H16625456   7.600   6.793   6.479  1.9683  0.2208  1.5168
   46MOL   H16725457   7.751   6.919   6.631 -0.3008 -1.3444 -0.2317
   46MOL   H16825458   7.417   6.994   6.896  1.3531 -0.8911  1.4345
   46MOL   H16925459   7.269   6.906   6.732 -0.3813 -1.2678 -1.5841
   46MOL   O17025460   7.633   7.038   6.988  0.1840  0.2334  0.0901
   46MOL   C17125461   7.708   7.076   7.106  0.3138 -0.1300 -0.5805
   46MOL   C17225462   7.695   7.225   7.151 -0.1726  0.2294 -0.3966
   46MOL   C17325463   7.791   7.317   7.077 -0.8480  0.2261 -0.1440
   46MOL   C17425464   7.937   7.272   7.076  0.1513  0.6476 -0.0387
   46MOL   O17525465   7.980   7.266   7.215 -0.1525  0.1957 -0.1275
   46MOL   C17625466   0.009   7.282   7.252 -1.0075 -0.1584 -0.0778
   46MOL   O17725467   0.096   7.327   7.172 -0.7769  0.2719 -0.2142
   46MOL   C17825468   0.035   7.202   7.373  0.5092 -0.5440 -0.2487
   46MOL   C17925469   8.031   7.166   7.461  0.0585 -0.1476  0.4862
   46MOL   C18025470   8.055   7.076   7.568 -1.0874  0.3064  0.3001
   46MOL   C18125471   0.089   7.035   7.597  0.4174  0.6518  0.3541
   46MOL   C18225472   0.118   6.960   7.722 -0.4322 -0.0122 -0.1711
   46MOL   O18325473   0.027   6.925   7.802  0.3185  0.2515  0.1355
   46MOL   C18425474   0.191   7.071   7.506  0.8945 -0.2940  0.1874
   46MOL   C18525475   0.161   7.146   7.391  0.1364 -1.2312 -0.2724
   46MOL   H18625476   7.658   7.008   7.175  0.3104  0.6663  0.2186
   46MOL   H18725477   7.810   7.040   7.093  0.6281  1.2379 -2.1019
   46MOL   H18825478   7.723   7.230   7.256 -0.6332 -1.2003 -0.2005
   46MOL   H18925479   7.592   7.258   7.138 -0.6329 -1.4414 -1.0825
   46MOL   H19025480   7.768   7.325   6.970 -2.0993 -0.5140  0.0537
   46MOL   H19125481   7.799   7.414   7.125  1.8320  0.3725 -0.8442
   46MOL   H19225482   7.954   7.176   7.028 -1.7811  0.8723 -1.2443
   46MOL   H19325483   8.007   7.340   7.028  0.1186  0.7692  0.0848
   46MOL   H19425484   7.931   7.203   7.445  0.2995  0.4303  0.3296
   46MOL   H19525485   7.975   7.059   7.639  0.5652 -1.1597  1.8452
   46MOL   H19625486   0.292   7.032   7.515  0.3684 -1.7485 -0.0813
   46MOL   H19725487   0.239   7.166   7.319 -1.7799 -0.9087 -2.3209
   46MOL   O19825488   0.254   6.934   7.738 -0.2440  0.0883  0.5005
   46MOL   C19925489   0.298   6.868   7.853  0.2018 -0.0939 -0.2424
   46MOL   C20025490   0.437   6.807   7.831 -0.3522 -0.3435  0.0685
   46MOL   C20125491   0.490   6.743   7.963 -0.4605 -0.1851 -0.0031
   46MOL   C20225492   0.637   6.695   7.950 -0.3945  0.1210  0.1004
   46MOL   O20325493   0.697   6.680   8.075  0.6915 -0.0619  0.2019
   46MOL   C20425494   0.828   6.631   8.080 -0.3310  0.5910  0.5044
   46MOL   O20525495   0.886   6.593   7.977  0.3216 -0.3314  0.4356
   46MOL   C20625496   0.883   6.627   0.122  0.3124  0.1133  1.0405
   46MOL   C20725497   0.998   6.550   0.142 -0.1580 -0.3494  0.3839
   46MOL   C20825498   1.057   6.546   0.270  0.4211  0.1897 -0.2675
   46MOL   C20925499   1.004   6.619   0.381  0.0290 -0.0805  0.0887
   46MOL   C21025500   1.074   6.632   0.508  0.2025  0.2448 -0.5867
   46MOL   O21125501   1.184   6.582   0.526 -0.2333 -0.4175 -0.2473
   46MOL   C21225502   0.886   6.692   0.361 -0.6943  0.8653  0.1879
   46MOL   C21325503   0.829   6.694   0.231 -0.2828  0.5159  0.1204
   46MOL   H21425504   0.292   6.948   7.927  0.6291  1.1813 -1.5714
   46MOL   H21525505   0.225   6.797   7.892 -0.9649  0.7727 -0.8051
   46MOL   H21625506   0.509   6.884   7.803  0.8537 -1.5219 -0.1368
   46MOL   H21725507   0.429   6.728   7.757 -4.0592 -0.4221  0.4320
   46MOL   H21825508   0.502   6.823   8.036  2.0950 -0.2691 -0.2949
   46MOL   H21925509   0.414   6.672   7.996 -0.1186 -0.4242  0.2628
   46MOL   H22025510   0.644   6.606   7.887  1.6494  0.9100 -0.8125
   46MOL   H22125511   0.691   6.778   7.905 -0.1867  0.0494  0.2188
   46MOL   H22225512   1.041   6.504   0.055  0.8642 -0.9546  1.1916
   46MOL   H22325513   1.145   6.487   0.290  1.9374  1.9327 -1.6519
   46MOL   H22425514   0.842   6.759   0.432 -0.9731  1.6658 -0.7305
   46MOL   H22525515   0.737   6.749   0.219 -0.5571  0.6151  2.4111
   46MOL   O22625516   1.014   6.710   0.589  0.5813  1.1001 -0.3121
   46MOL   C22725517   1.069   6.747   0.711 -0.2007 -0.4267 -0.6085
   46MOL   C22825518   0.977   6.852   0.776 -0.2300  0.8632  0.0333
   46MOL   C22925519   0.842   6.799   0.830  0.6538 -0.2660 -0.1007
   46MOL   C23025520   0.732   6.755   0.726  0.6061  0.5796 -0.2381
   46MOL   O23125521   0.741   6.618   0.699 -0.3759 -0.1637  0.1100
   46MOL   C23225522   0.649   6.557   0.618  0.0770  0.0366 -0.0025
   46MOL   O23325523   0.589   6.627   0.534  0.9593  0.0905  0.0968
   46MOL   C23425524   0.644   6.410   0.621  0.1028 -0.0685  0.4188
   46MOL   C23525525   0.705   6.323   0.713  1.2766 -0.6635 -0.4924
   46MOL   C23625526   0.681   6.187   0.714 -0.4956  0.2443  0.3731
   46MOL   C23725527   0.598   6.127   0.615  0.0390 -0.1550  0.0168
   46MOL   C23825528   0.577   5.982   0.611  0.3690  0.1498  0.5627
   46MOL   O23925529   0.474   5.930   0.568  0.2752 -0.2153  0.0070
   46MOL   C24025530   0.541   6.212   0.516 -0.4330  0.1672  0.2076
   46MOL   C24125531   0.564   6.350   0.518  0.6655 -0.8017 -0.2497
   46MOL   H24225532   1.088   6.659   0.773 -0.9916  0.3248  0.7027
   46MOL   H24325533   1.163   6.792   0.680 -1.8106  1.5232 -2.8363
   46MOL   H24425534   0.965   6.923   0.695  1.1067 -1.8155 -2.6119
   46MOL   H24525535   1.038   6.906   0.849  0.9827 -0.8113  0.2956
   46MOL   H24625536   0.862   6.731   0.912  0.6117 -0.1433  0.0133
   46MOL   H24725537   0.790   6.879   0.883 -0.8885  1.1829 -3.6108
   46MOL   H24825538   0.635   6.772   0.774 -0.2033 -0.7979 -1.3657
   46MOL   H24925539   0.732   6.819   0.638  5.1038  0.0578 -0.7303
   46MOL   H25025540   0.758   6.371   0.794 -1.4794  0.3893  0.7556
   46MOL   H25125541   0.725   6.141   0.801  1.2502  0.2282 -0.5005
   46MOL   H25225542   0.483   6.175   0.432  0.7262  1.3177 -1.1290
   46MOL   H25325543   0.502   6.408   0.451  0.0784 -1.2101 -0.0578
   46MOL   O25425544   0.667   5.911   0.686  0.0743 -0.6537  0.5107
   46MOL   C25525545   0.681   5.771   0.676 -0.3728  0.2636 -0.3772
   46MOL   C25625546   0.798   5.715   0.766  0.4557 -0.1655  0.5075
   46MOL   C25725547   0.938   5.766   0.714  0.2312  0.3714  1.3342
   46MOL   C25825548   1.034   5.810   0.822  1.0510 -0.1882 -0.5607
   46MOL   O25925549   1.109   5.699   0.871 -0.2605 -0.0408 -0.1677
   46MOL   C26025550   1.077   5.650   0.990  0.2552  0.0377 -0.1786
   46MOL   O26125551   0.965   5.669   1.039 -0.3249 -0.1874 -0.3042
   46MOL   C26225552   1.192   5.582   1.063 -0.6326  0.1296 -0.2965
   46MOL   C26325553   1.166   5.537   1.195 -0.4632 -0.0546 -0.3931
   46MOL   C26425554   1.268   5.474   1.271  0.3196 -0.1343  0.2726
   46MOL   C26525555   1.394   5.445   1.213  0.6830  0.3917  0.0408
   46MOL   C26625556   1.494   5.363   1.286  0.2288 -0.5908  0.6878
   46MOL   O26725557   1.491   5.333   1.401  0.3373 -0.4507 -0.0703
   46MOL   C26825558   1.417   5.493   1.078  0.7368  0.5608  0.0588
   46MOL   C26925559   1.320   5.564   1.001 -0.6152 -0.0602 -0.6765
   46MOL   H27025560   0.583   5.731   0.703 -0.3072  0.1951 -0.2418
   46MOL   H27125561   0.711   5.740   0.576  0.4608  0.0865 -0.0722
   46MOL   H27225562   0.799   5.607   0.759  1.1940 -0.2436  1.7565
   46MOL   H27325563   0.783   5.747   0.869  0.2378  0.0179  0.4198
   46MOL   H27425564   0.970   5.690   0.643 -1.2976  0.7067  0.2567
   46MOL   H27525565   0.913   5.853   0.654 -3.2445 -2.1850 -1.1838
   46MOL   H27625566   1.114   5.863   0.770 -0.4632  2.5264 -0.2074
   46MOL   H27725567   1.006   5.888   0.892 -3.0746  0.2334 -2.5476
   46MOL   H27825568   1.076   5.540   1.255  0.0231 -1.3040  0.4238
   46MOL   H27925569   1.255   5.424   1.365  0.5851 -0.5964  0.0633
   46MOL   H28025570   1.510   5.473   1.025  1.0824  0.1955  0.8051
   46MOL   H28125571   1.342   5.608   0.905  0.4618 -0.0476 -0.4257
   46MOL   O28225572   1.594   5.335   1.205 -0.5066 -0.1441 -0.4024
   46MOL   C28325573   1.695   5.242   1.233  0.2122  0.1487  0.0461
   46MOL   C28425574   1.830   5.309   1.271  0.0011 -0.1596 -0.4684
   46MOL   C28525575   1.831   5.337   1.426  0.5486 -0.4767 -0.1203
   46MOL   C28625576   1.848   5.212   1.505 -0.0706 -0.2546 -0.0351
   46MOL   O28725577   1.984   5.187   1.520 -0.1876 -0.4728 -0.2720
   46MOL   C28825578   2.031   5.062   1.473 -0.1643 -0.3161  0.1243
   46MOL   O28925579   1.964   4.968   1.432 -0.1781  0.4222  0.2644
   46MOL   C29025580   2.181   5.062   1.474  0.0742  0.0476 -0.1740
   46MOL   C29125581   2.244   4.940   1.448 -0.7759  0.6246 -0.6163
   46MOL   C29225582   2.386   4.930   1.449 -0.5449 -0.3500  0.2876
   46MOL   C29325583   2.462   5.047   1.480  0.5311 -0.0381  0.6305
   46MOL   C29425584   2.605   5.040   1.481  0.0028 -0.9649  0.8800
   46MOL   O29525585   2.674   4.957   1.420 -0.4303  0.2872 -0.5169
   46MOL   C29625586   2.400   5.171   1.512 -0.1487 -0.7031  0.4272
   46MOL   C29725587   2.258   5.175   1.507 -0.2954  0.2079 -0.8549
   46MOL   H29825588   1.656   5.169   1.303  1.1250  2.4106  3.0191
   46MOL   H29925589   1.705   5.180   1.144  0.6391  0.9372 -0.4620
   46MOL   H30025590   1.845   5.406   1.223 -2.1408 -0.6304 -2.2046
   46MOL   H30125591   1.916   5.248   1.245  1.6051  1.2976  1.2718
   46MOL   H30225592   1.902   5.415   1.453 -1.4179  1.1854  0.3250
   46MOL   H30325593   1.734   5.379   1.448 -0.0843 -0.7468 -2.3289
   46MOL   H30425594   1.812   5.234   1.605  2.5172  0.1829  0.8360
   46MOL   H30525595   1.796   5.121   1.475  0.8449 -0.1978 -1.8688
   46MOL   H30625596   2.187   4.849   1.437 -0.7224  0.4461  0.4986
   46MOL   H30725597   2.424   4.831   1.431 -0.1061  0.1511 -1.7166
   46MOL   H30825598   2.461   5.255   1.543 -1.2741 -0.9477  3.4624
   46MOL   H30925599   2.218   5.274   1.522  0.0733  0.0202  1.4969
   46MOL   O31025600   2.661   5.134   1.549 -0.2392 -0.3772 -0.2512
   46MOL   C31125601   2.801   5.157   1.555 -0.3638 -0.1144 -0.7844
   46MOL   C31225602   2.837   5.291   1.609 -0.0957 -1.1719 -0.0269
   46MOL   C31325603   2.826   5.287   1.761  0.2007  0.0393  0.3850
   46MOL   C31425604   2.877   5.423   1.817 -0.3426  0.5179 -0.6087
   46MOL   O31525605   2.855   5.438   1.954  0.4827 -0.1440 -0.1196
   46MOL   C31625606   2.883   5.551   2.021  0.0505 -0.0495  1.0077
   46MOL   O31725607   2.916   5.659   1.973 -0.1090  0.1733  0.4267
   46MOL   C31825608   2.863   5.533   2.164 -0.0099 -0.0717  0.2580
   46MOL   C31925609   2.845   5.402   2.221 -0.9372 -0.3127 -0.1819
   46MOL   C32025610   2.840   5.378   2.358  0.5806  0.2450  0.2905
   46MOL   C32125611   2.843   5.486   2.449  0.2323  0.4897 -0.2644
   46MOL   C32225612   2.841   5.462   2.600 -0.3192 -0.0221  0.4833
   46MOL   O32325613   2.822   5.349   2.645  0.2409  0.1173 -0.6232
   46MOL   C32425614   2.841   5.621   2.392 -0.1177  0.0731 -0.7123
   46MOL   C32525615   2.859   5.639   2.258  0.1529 -0.4177 -0.6622
   46MOL   H32625616   2.866   5.089   1.610  0.5512  0.9152 -0.5644
   46MOL   H32725617   2.847   5.149   1.457 -0.1842  2.3572 -0.9367
   46MOL   H32825618   2.768   5.369   1.579  0.8156  0.3920  1.8239
   46MOL   H32925619   2.937   5.322   1.578  0.0238 -1.2453  0.2796
   46MOL   H33025620   2.722   5.284   1.793  0.1803  0.5420  0.3823
   46MOL   H33125621   2.881   5.203   1.803  0.2295 -1.2834 -2.2142
   46MOL   H33225622   2.985   5.429   1.800  0.1117 -1.6199  1.3560
   46MOL   H33325623   2.835   5.504   1.758  0.2251 -0.8621 -3.0135
   46MOL   H33425624   2.842   5.313   2.159  1.6712 -0.7057  0.1651
   46MOL   H33525625   2.846   5.278   2.400  2.2306  0.4127  0.4764
   46MOL   H33625626   2.846   5.706   2.458 -0.3653 -0.1717 -0.3696
   46MOL   H33725627   2.876   5.739   2.221 -0.6625 -0.3883 -0.9701
   46MOL   O33825628   2.860   5.569   2.674 -0.0452 -0.9408 -0.0316
   46MOL   C33925629   2.855   5.566   2.819  0.7960  0.3757 -0.2059
   46MOL   C34025630   2.965   5.644   2.883  0.2504  0.0034 -0.7611
   46MOL   C34125631   2.943   5.640   3.034  0.1643 -0.0325  0.5518
   46MOL   C34225632   3.071   5.693   3.113  0.1601 -0.7769  0.3249
   46MOL   O34325633   3.082   5.826   3.074 -0.2313  0.1688 -0.2143
   46MOL   C34425634   3.134   5.910   3.156  0.0217  0.0800  0.2119
   46MOL   O34525635   3.116   5.907   3.279  0.6462 -0.0415 -0.4772
   46MOL   C34625636   3.216   6.003   3.078 -0.0987 -0.0797 -0.2008
   46MOL   C34725637   3.257   5.989   2.946 -0.3085 -0.2953 -0.1180
   46MOL   C34825638   3.335   6.082   2.880  0.8834  0.1227  0.4719
   46MOL   C34925639   3.368   6.199   2.942 -0.5408 -0.2563 -0.4755
   46MOL   C35025640   3.467   6.296   2.881  0.0047  0.1494 -0.7064
   46MOL   O35125641   3.509   6.280   2.768  0.0078  0.1042  0.2564
   46MOL   C35225642   3.322   6.220   3.068 -0.2924 -0.1732  0.7338
   46MOL   C35325643   3.253   6.123   3.145 -0.6160  0.1407  0.4778
   46MOL   H35425644   2.759   5.613   2.839  0.6923  1.0444 -2.2370
   46MOL   H35525645   2.854   5.462   2.854  0.0326  0.0779 -1.0963
   46MOL   H35625646   2.933   5.741   2.846 -2.2576 -0.8029 -0.8357
   46MOL   H35725647   3.063   5.625   2.839  0.7418 -0.9754  0.7219
   46MOL   H35825648   2.853   5.688   3.073 -0.1406  2.5487 -3.0703
   46MOL   H35925649   2.922   5.537   3.062  1.8139 -0.6356 -0.3709
   46MOL   H36025650   3.049   5.687   3.220 -0.2176  0.8704  0.3529
   46MOL   H36125651   3.163   5.643   3.083  1.4474  1.1907  0.9273
   46MOL   H36225652   3.229   5.898   2.895 -1.1658  1.9089 -3.6890
   46MOL   H36325653   3.363   6.053   2.780 -0.8927 -0.4835  0.1402
   46MOL   H36425654   3.354   6.308   3.122 -1.0320 -0.3440  1.4524
   46MOL   H36525655   3.233   6.146   3.248 -3.0342  2.9769 -0.5674
   46MOL   O36625656   3.476   6.413   2.955  0.1801 -0.3114  0.5825
   46MOL   C36725657   3.559   6.518   2.916  0.0082 -0.3358 -0.3129
   46MOL   C36825658   3.598   6.595   3.043  0.6616  0.4313 -0.2459
   46MOL   C36925659   3.671   6.492   3.142  0.5246 -0.1346 -0.9003
   46MOL   C37025660   3.767   6.569   3.236  0.2203 -0.4110  0.4811
   46MOL   O37125661   3.878   6.500   3.283 -0.1466 -0.2179 -1.0553
   46MOL   C37225662   3.960   6.564   3.381  0.2886  0.4157 -0.0819
   46MOL   O37325663   3.917   6.655   3.448 -0.2784  0.3281  0.1917
   46MOL   C37425664   4.095   6.498   3.408  0.9875 -0.1398  0.0069
   46MOL   C37525665   4.174   6.570   3.502 -1.4495 -0.6160  0.6839
   46MOL   C37625666   4.310   6.523   3.532 -0.0148  0.6750 -0.1063
   46MOL   C37725667   4.355   6.402   3.478 -0.8222  0.2034  0.1355
   46MOL   C37825668   4.493   6.344   3.498 -0.0543  1.3395 -0.7334
   46MOL   O37925669   4.526   6.236   3.460 -0.3955  0.0255  0.1826
   46MOL   C38025670   4.266   6.329   3.391 -0.0453  0.2013 -0.1090
   46MOL   C38125671   4.140   6.383   3.352  0.6472 -0.2030  0.0061
   46MOL   H38225672   3.641   6.475   2.858  0.6199 -0.7765  0.8692
   46MOL   H38325673   3.503   6.587   2.852  2.2578 -0.2811 -2.3037
   46MOL   H38425674   3.512   6.649   3.083  0.5853  1.1432 -1.3323
   46MOL   H38525675   3.670   6.675   3.021 -0.2907  1.2377 -0.4847
   46MOL   H38625676   3.608   6.422   3.196 -2.2737  1.1212 -2.4366
   46MOL   H38725677   3.715   6.425   3.069  0.0377  1.4244 -2.6596
   46MOL   H38825678   3.786   6.670   3.201  3.1040 -1.4147 -1.0288
   46MOL   H38925679   3.711   6.597   3.325 -0.1346  0.2273  0.0560
   46MOL   H39025680   4.143   6.667   3.536 -3.4107 -1.1186  0.3831
   46MOL   H39125681   4.375   6.570   3.605 -1.2881  1.8422  0.2975
   46MOL   H39225682   4.285   6.228   3.356 -2.1943 -0.5940  0.9182
   46MOL   H39325683   4.092   6.326   3.274  1.6733 -1.5996  0.3585
   46MOL   O39425684   4.578   6.434   3.547 -0.1714 -0.2117 -0.1171
   46MOL   C39525685   4.696   6.376   3.609 -0.2315 -1.0635  0.1000
   46MOL   C39625686   4.807   6.370   3.506 -0.0765 -0.4985  0.3930
   46MOL   C39725687   4.906   6.493   3.507  0.8022 -0.0436 -0.2516
   46MOL   C39825688   4.929   6.531   3.359  0.6028 -0.2435 -0.2577
   46MOL   O39925689   4.807   6.584   3.303 -0.0369 -0.1574  0.1897
   46MOL   C40025690   4.796   6.625   3.175 -0.4378  0.0375  0.7674
   46MOL   O40125691   4.893   6.617   3.100  0.0522  0.0369 -0.2459
   46MOL   C40225692   4.653   6.667   3.136 -0.6490  0.9571  0.5325
   46MOL   C40325693   4.539   6.648   3.218  0.1170  0.2792  0.2001
   46MOL   C40425694   4.403   6.691   3.184 -0.2510 -0.1940  0.4347
   46MOL   C40525695   4.392   6.747   3.054  0.1565  0.5115 -0.1881
   46MOL   C40625696   4.262   6.782   3.008  0.3662  0.1448  0.3458
   46MOL   O40725697   4.248   6.834   2.903 -0.0741 -0.3356  0.2041
   46MOL   C40825698   4.505   6.771   2.970  0.3927 -0.3766  0.0818
   46MOL   C40925699   4.634   6.732   3.009 -0.2682 -0.3631  0.4820
   46MOL   H41025700   4.726   6.446   3.687  1.9366  0.1746 -1.7866
   46MOL   H41125701   4.687   6.277   3.655  1.2995 -1.0594  0.4369
   46MOL   H41225702   4.766   6.354   3.406 -2.0891 -0.1643  1.1360
   46MOL   H41325703   4.857   6.274   3.520  1.6138  0.5854  2.0009
   46MOL   H41425704   4.863   6.576   3.563  2.5048 -0.2449  1.4248
   46MOL   H41525705   4.999   6.465   3.557  1.1667  1.0497 -0.3160
   46MOL   H41625706   5.008   6.606   3.365 -0.7016  1.0931  0.6472
   46MOL   H41725707   4.960   6.442   3.304 -0.8225  0.1878 -1.8206
   46MOL   H41825708   4.549   6.603   3.315  1.6368 -0.6746 -0.3754
   46MOL   H41925709   4.315   6.669   3.242 -2.0029  3.1220 -0.8493
   46MOL   H42025710   4.482   6.814   2.874  0.0465 -0.3871  0.1604
   46MOL   H42125711   4.716   6.747   2.941  0.5573  1.7125  1.8630
   46MOL   O42225712   4.162   6.741   3.086 -0.0188  0.2680  0.2079
   46MOL   C42325713   4.028   6.752   3.037  0.3499 -0.2782 -0.6650
   46MOL   C42425714   3.970   6.896   3.055  0.4791  0.3919  0.7498
   46MOL   C42525715   4.011   7.020   2.969 -0.2697  0.4272  0.4289
   46MOL   C42625716   3.923   7.134   3.009  0.0434  0.9185  0.0501
   46MOL   O42725717   3.785   7.104   2.989  0.0433 -0.3861 -0.0633
   46MOL   C42825718   3.711   7.169   2.909 -0.3475  0.3302 -0.3847
   46MOL   O42925719   3.747   7.266   2.840 -0.4862 -0.0594  0.2420
   46MOL   C43025720   3.583   7.096   2.891  0.3803  0.2586 -1.3929
   46MOL   C43125721   3.581   6.955   2.898 -0.8257  0.4403  0.2998
   46MOL   C43225722   3.463   6.879   2.886 -0.3633 -0.0737 -0.8309
   46MOL   C43325723   3.346   6.950   2.866 -0.0095 -0.3470 -0.1364
   46MOL   C43425724   3.211   6.886   2.883  0.0983 -0.0406  0.3598
   46MOL   O43525725   3.108   6.945   2.899  0.2281 -0.0646  0.2253
   46MOL   C43625726   3.344   7.088   2.848 -0.2983  0.2690  0.4400
   46MOL   C43725727   3.464   7.166   2.872 -0.6335 -0.1179  0.5091
   46MOL   H43825728   4.009   6.726   2.933 -2.0761  1.8319 -0.8037
   46MOL   H43925729   3.969   6.676   3.089 -0.8309 -0.5819 -2.4081
   46MOL   H44025730   3.988   6.922   3.160  0.9924 -1.6571  1.1871
   46MOL   H44125731   3.862   6.886   3.053  0.6364 -1.1244 -0.5629
   46MOL   H44225732   4.116   7.034   2.995  0.6733 -1.8036 -1.9418
   46MOL   H44325733   4.004   7.012   2.861 -0.2976 -1.0840  0.5336
   46MOL   H44425734   3.930   7.149   3.117  0.8636 -0.3656  0.1881
   46MOL   H44525735   3.939   7.236   2.973 -1.9478  0.6971 -1.5938
   46MOL   H44625736   3.666   6.900   2.934 -1.8035 -1.4200 -0.1716
   46MOL   H44725737   3.464   6.777   2.920 -0.2420  0.6914  1.5541
   46MOL   H44825738   3.254   7.141   2.819 -0.3879 -0.1948 -0.1496
   46MOL   H44925739   3.466   7.274   2.867 -1.7281 -0.1290 -0.3174
   46MOL   O45025740   3.223   6.754   2.870  0.6939  0.4642  0.4108
   46MOL   C45125741   3.111   6.668   2.844  0.2015 -1.1396 -0.3226
   46MOL   C45225742   3.153   6.522   2.822  0.5234 -0.6884 -0.1893
   46MOL   C45325743   3.039   6.431   2.778  0.2520  0.3395 -0.0510
   46MOL   C45425744   3.075   6.285   2.779 -0.0234 -0.2341 -0.5144
   46MOL   O45525745   2.970   6.207   2.733  0.1986  0.2530 -0.3043
   46MOL   C45625746   2.909   6.111   2.804  0.2119 -0.2418  0.8339
   46MOL   O45725747   2.932   6.096   2.922  0.5626 -0.3995  0.2443
   46MOL   C45825748   2.820   6.022   2.725 -0.8668 -0.3953 -0.2439
   46MOL   C45925749   2.807   6.047   2.588 -0.2896  0.3883 -0.5167
   46MOL   C46025750   2.724   5.966   2.508 -0.4869 -0.6126 -0.8690
   46MOL   C46125751   2.639   5.868   2.574 -0.3190 -0.0814  0.4097
   46MOL   C46225752   2.529   5.793   2.494 -0.3579 -0.3314 -0.1027
   46MOL   O46325753   2.467   5.702   2.546 -0.0838 -0.1261 -0.0426
   46MOL   C46425754   2.647   5.852   2.708 -0.4095  0.8289  0.6168
   46MOL   C46525755   2.734   5.932   2.788 -0.4384  0.5099  0.6967
   46MOL   H46625756   3.048   6.655   2.932 -0.5405 -0.6990 -0.7817
   46MOL   H46725757   3.049   6.701   2.761 -0.3077 -1.5203 -0.1003
   46MOL   H46825758   3.212   6.493   2.909  1.6920  0.5143 -0.5579
   46MOL   H46925759   3.231   6.532   2.747 -0.4627 -0.3923 -1.1917
   46MOL   H47025760   2.951   6.446   2.842 -1.0282  0.9384 -1.9082
   46MOL   H47125761   3.006   6.455   2.677  0.8025 -1.7623 -0.7413
   46MOL   H47225762   3.159   6.270   2.711 -1.3010  0.1466 -2.2102
   46MOL   H47325763   3.108   6.262   2.880 -0.7363 -2.5355 -0.7846
   46MOL   H47425764   2.853   6.134   2.543 -1.3629  0.1820 -2.0710
   46MOL   H47525765   2.725   5.998   2.405  0.8851  2.6538  0.1023
   46MOL   H47625766   2.584   5.776   2.751  0.3704  1.2818  2.6209
   46MOL   H47725767   2.741   5.903   2.892 -1.5102  1.2237  0.9821
   46MOL   O47825768   2.519   5.831   2.366  0.3683  0.1464  0.8256
   46MOL   C47925769   2.417   5.773   2.290  0.1374  0.5078 -0.3365
   46MOL   C48025770   2.487   5.712   2.165  0.6741  0.4647  0.0292
   46MOL   C48125771   2.397   5.654   2.064  0.1065  0.1696 -0.0723
   46MOL   C48225772   2.468   5.587   1.951 -0.0369  0.7317 -0.6384
   46MOL   O48325773   2.380   5.609   1.839 -0.2871  0.5270  0.1472
   46MOL   C48425774   2.406   5.543   1.725 -0.4233 -0.0208 -0.5029
   46MOL   O48525775   2.498   5.463   1.703 -0.0495  0.0833 -1.1124
   46MOL   C48625776   2.305   5.578   1.624 -0.0001  0.2671  0.3296
   46MOL   C48725777   2.331   5.549   1.486  0.7638  0.4276 -0.4442
   46MOL   C48825778   2.237   5.574   1.384  0.4260 -0.2610 -0.5223
   46MOL   C48925779   2.107   5.624   1.419  0.2621  0.4258  0.4095
   46MOL   C49025780   2.003   5.652   1.320  0.2879  0.8411 -0.0961
   46MOL   O49125781   2.019   5.660   1.198 -0.2668  0.5853 -0.6014
   46MOL   C49225782   2.081   5.652   1.558 -0.5024 -0.1348  0.0544
   46MOL   C49325783   2.179   5.629   1.658  0.3107 -0.0070 -0.0480
   46MOL   H49425784   2.354   5.698   2.338  0.7943  0.9835  1.2779
   46MOL   H49525785   2.353   5.847   2.241  0.3704  0.9738  0.0730
   46MOL   H49625786   2.546   5.627   2.199  1.2739  1.1705  0.7794
   46MOL   H49725787   2.557   5.787   2.131 -0.8297  1.5686 -0.6864
   46MOL   H49825788   2.335   5.576   2.109  2.9198 -2.7395 -1.0732
   46MOL   H49925789   2.331   5.732   2.025 -0.6111 -1.2604 -1.8525
   46MOL   H50025790   2.567   5.620   1.919  0.6767 -0.6705  0.0572
   46MOL   H50125791   2.490   5.483   1.977  1.3545  1.4592  1.2102
   46MOL   H50225792   2.421   5.496   1.462  0.4091 -0.9625  1.1512
   46MOL   H50325793   2.267   5.551   1.283  1.5584  0.1475 -0.2850
   46MOL   H50425794   1.981   5.676   1.590  0.0268 -1.4842  2.9100
   46MOL   H50525795   2.147   5.652   1.759 -2.1458 -0.4684 -0.6964
   46MOL   O50625796   1.880   5.673   1.379  0.3027 -0.3958  0.3330
   46MOL   C50725797   1.766   5.704   1.287  0.5587  0.0466  0.0786
   46MOL   C50825798   1.637   5.743   1.361 -0.4765  0.2184 -0.3400
   46MOL   C50925799   1.558   5.862   1.300 -0.7240  0.2506  0.4067
   46MOL   C51025800   1.414   5.872   1.352  0.4393 -0.1617 -0.4148
   46MOL   O51125801   1.334   5.932   1.242 -0.1050 -0.0038  0.0588
   46MOL   C51225802   1.244   6.018   1.264  0.4067  0.1796 -0.4438
   46MOL   O51325803   1.192   6.039   1.375 -0.2910 -0.0227 -0.6274
   46MOL   C51425804   1.197   6.082   1.139  0.1055 -0.2496  0.0595
   46MOL   C51525805   1.117   6.195   1.145  0.5932  0.4465 -0.0319
   46MOL   C51625806   1.080   6.267   1.027  0.3288 -0.6825  0.4778
   46MOL   C51725807   1.122   6.231   0.899 -0.3679  0.1463  0.1053
   46MOL   C51825808   1.069   6.296   0.779 -0.2416 -0.6683  0.5742
   46MOL   O51925809   1.001   6.399   0.795 -0.0742  0.0854 -0.1412
   46MOL   C52025810   1.196   6.112   0.894  0.4195  0.1270  0.0514
   46MOL   C52125811   1.236   6.040   1.009 -0.3827 -0.0338 -0.2239
   46MOL   H52225812   1.792   5.785   1.220  0.5633  0.0558  0.0913
   46MOL   H52325813   1.751   5.621   1.218 -1.1511  0.5831 -0.2084
   46MOL   H52425814   1.661   5.779   1.461  0.9156  0.0172 -0.5864
   46MOL   H52525815   1.570   5.657   1.364 -0.1941 -0.0214 -0.7086
   46MOL   H52625816   1.606   5.959   1.314 -0.9802  0.8328 -2.5075
   46MOL   H52725817   1.558   5.842   1.193 -0.2121 -0.3109  0.5033
   46MOL   H52825818   1.366   5.777   1.374 -0.4165  0.4262  0.2939
   46MOL   H52925819   1.421   5.930   1.444 -1.4061 -1.3605  0.5098
   46MOL   H53025820   1.084   6.227   1.243  0.6586 -0.4794  0.2918
   46MOL   H53125821   1.008   6.348   1.025  2.1000  0.9239  0.4530
   46MOL   H53225822   1.230   6.069   0.801  3.0471  0.5262  0.7913
   46MOL   H53325823   1.286   5.947   0.984 -2.9252 -0.3974 -4.3305
   46MOL   O53425824   1.101   6.231   0.661  0.1571 -0.0425 -0.0739
   46MOL   C53525825   1.049   6.277   0.539 -0.1164  0.4259 -0.2361
   46MOL   C53625826   0.980   6.157   0.470 -0.5312  0.3911 -0.2874
   46MOL   C53725827   0.890   6.200   0.352 -0.7152  0.6584 -0.3357
   46MOL   C53825828   0.809   6.083   0.304 -0.2110  1.2450  0.1039
   46MOL   O53925829   0.731   6.122   0.193 -0.0711 -0.4699 -0.1414
   46MOL   C54025830   0.622   6.058   0.162  0.0355  0.3297 -0.3539
   46MOL   O54125831   0.580   5.954   0.207 -0.4031  0.3352  0.5782
   46MOL   C54225832   0.543   6.137   0.059  0.5542  0.4195 -0.0738
   46MOL   C54325833   0.423   6.083   0.002 -0.4742  0.1663 -0.2630
   46MOL   C54425834   0.349   6.154   8.001 -0.4710  0.0712 -0.5407
   46MOL   C54525835   0.388   6.286   7.971 -0.6848 -0.5909  0.4054
   46MOL   C54625836   0.306   6.360   7.875 -0.5123 -0.0473 -0.0002
   46MOL   O54725837   0.328   6.474   7.839  0.0531  0.2095 -0.2570
   46MOL   C54825838   0.505   6.344   8.025  0.5658 -0.1104 -0.1100
   46MOL   C54925839   0.586   6.262   0.007  0.4045  0.3449  0.1930
   46MOL   H55025840   0.984   6.364   0.549  0.8373  1.4836 -2.7218
   46MOL   H55125841   1.130   6.306   0.471 -2.0151  0.6291 -2.5045
   46MOL   H55225842   0.913   6.124   0.550  1.9864 -2.8802  0.6010
   46MOL   H55325843   1.054   6.084   0.437 -0.3094 -0.2645  1.5971
   46MOL   H55425844   0.819   6.281   0.368 -0.8294  0.4116  0.3957
   46MOL   H55525845   0.952   6.234   0.268 -1.0863 -0.6376 -1.1483
   46MOL   H55625846   0.868   5.998   0.269 -1.7177  1.0204 -1.9956
   46MOL   H55725847   0.746   6.052   0.387  0.1591  1.4156  0.4515
   46MOL   H55825848   0.388   5.996   0.055 -0.0080 -0.2147 -0.5827
   46MOL   H55925849   0.259   6.113   7.958 -0.8467 -1.9020  1.9784
   46MOL   H56025850   0.538   6.445   8.005  0.6387  0.2126  1.5827
   46MOL   H56125851   0.680   6.295   0.048  0.2623  1.8496 -0.6587
   46MOL   H56225852   0.227   6.299   7.832 -0.3596  0.0582 -0.4263
   47MOL     O125853   2.550   3.906   1.989  0.7026 -0.5079 -0.1254
   47MOL     C225854   2.453   3.991   1.941 -0.0044  0.2818 -0.1272
   47MOL     C325855   2.325   3.959   2.026  0.2667 -0.2904  0.1490
   47MOL     C425856   2.279   3.811   2.016 -0.3784  0.1089 -0.4451
   47MOL     C525857   2.149   3.777   2.086  0.2503  0.0023  0.3304
   47MOL     O625858   2.056   3.879   2.067 -0.2367  1.1494 -0.4257
   47MOL     C725859   1.929   3.871   2.100 -0.0951 -0.1859 -0.5692
   47MOL     O825860   1.882   3.771   2.140  0.3057  0.3870 -0.2169
   47MOL     C925861   1.858   3.995   2.069 -0.2486 -0.3127  0.3302
   47MOL    C1025862   1.928   4.105   2.022  0.3653 -0.1441  0.4740
   47MOL    C1125863   1.862   4.209   1.961  0.2220  0.2697 -0.2748
   47MOL    C1225864   1.725   4.215   1.972 -0.5738  0.0029 -0.2755
   47MOL    C1325865   1.645   4.336   1.935  0.5618 -0.0410 -0.3412
   47MOL    O1425866   1.520   4.345   1.936 -0.0618  0.2670 -0.0504
   47MOL    C1525867   1.650   4.103   2.022 -0.0246 -0.5251  0.0687
   47MOL    C1625868   1.717   3.995   2.071 -0.3215 -0.4349 -0.1397
   47MOL    H1725869   2.482   4.094   1.962 -3.7455  0.7503  3.3299
   47MOL    H1825870   2.438   3.976   1.834  0.1847 -0.4641 -0.0519
   47MOL    H1925871   2.249   4.026   1.985 -0.3933 -1.5903 -0.7967
   47MOL    H2025872   2.340   3.986   2.131  1.2551 -0.2138 -0.0109
   47MOL    H2125873   2.259   3.801   1.909 -1.5934  0.8679 -0.3072
   47MOL    H2225874   2.358   3.742   2.043  0.7597  1.7602  0.5569
   47MOL    H2325875   2.112   3.681   2.050  0.6085 -0.6992  1.7717
   47MOL    H2425876   2.160   3.755   2.193  0.6223 -1.7779 -0.0573
   47MOL    H2525877   2.036   4.109   2.026  0.4362  0.9038 -1.7979
   47MOL    H2625878   1.919   4.291   1.920  1.7288 -0.2557  0.7723
   47MOL    H2725879   1.543   4.109   2.038 -0.0551 -0.8906  0.0293
   47MOL    H2825880   1.653   3.913   2.102 -0.9887  0.2751  0.3616
   47MOL    H2925881   2.511   3.822   1.972 -0.4924  0.2075 -1.0387
   47MOL    O3025882   1.719   4.433   1.885  0.0090  0.0621  0.8732
   47MOL    C3125883   1.658   4.553   1.842  0.6023 -0.0983  0.2412
   47MOL    C3225884   1.745   4.638   1.745  0.2563 -0.4062 -0.4735
   47MOL    C3325885   1.844   4.727   1.822  0.6959  0.5518 -0.1087
   47MOL    C3425886   1.927   4.807   1.717 -0.5478 -0.9715  0.3572
   47MOL    O3525887   2.012   4.721   1.658  0.0527  0.9485 -0.1892
   47MOL    C3625888   2.119   4.672   1.719  0.2575 -0.2287 -0.2740
   47MOL    O3725889   2.157   4.702   1.831 -0.0975 -0.1953 -0.1042
   47MOL    C3825890   2.189   4.568   1.640 -0.1393 -0.7617  0.1776
   47MOL    C3925891   2.261   4.469   1.714  0.5357  0.3960 -0.3448
   47MOL    C4025892   2.313   4.355   1.647 -0.6698  0.3655  0.4512
   47MOL    C4125893   2.303   4.349   1.503  0.0279 -0.5898  0.8360
   47MOL    C4225894   2.342   4.222   1.429  0.0015  0.0586  0.0096
   47MOL    O4325895   2.356   4.210   1.308 -0.3178  0.2155  0.8915
   47MOL    C4425896   2.251   4.460   1.433 -0.4788  0.1955  0.3593
   47MOL    C4525897   2.180   4.558   1.502  0.0044  0.4104 -0.2609
   47MOL    H4625898   1.566   4.524   1.791  0.6987 -0.7772  0.4498
   47MOL    H4725899   1.636   4.617   1.927 -0.7633 -0.2264 -0.0104
   47MOL    H4825900   1.688   4.721   1.705  1.1915 -0.1535 -1.2932
   47MOL    H4925901   1.797   4.583   1.667 -1.6151 -0.1680 -1.9049
   47MOL    H5025902   1.801   4.795   1.896  0.1212 -0.1892  0.2444
   47MOL    H5125903   1.904   4.661   1.884  1.1081  0.9027 -0.1376
   47MOL    H5225904   1.867   4.856   1.640  0.8067  0.7380  0.3517
   47MOL    H5325905   1.988   4.881   1.769  1.0398 -0.9518 -1.4550
   47MOL    H5425906   2.250   4.478   1.821 -0.3183  1.2934 -0.4983
   47MOL    H5525907   2.362   4.275   1.700 -0.6094  0.7115  0.9157
   47MOL    H5625908   2.262   4.463   1.326  3.6084 -1.6978  0.6544
   47MOL    H5725909   2.116   4.625   1.445 -0.3193 -0.2754 -0.7089
   47MOL    O5825910   2.359   4.114   1.512 -0.4121  0.2379  0.0041
   47MOL    C5925911   2.398   3.984   1.458  0.1214 -0.0601 -0.4823
   47MOL    C6025912   2.282   3.895   1.400 -0.0192 -0.1125 -0.5095
   47MOL    C6125913   2.336   3.769   1.327  0.2364 -0.0125  0.4526
   47MOL    C6225914   2.224   3.673   1.314  0.2204  0.5908 -0.0310
   47MOL    O6325915   2.112   3.693   1.236  0.3142  0.6647  0.1334
   47MOL    C6425916   1.987   3.711   1.283 -0.0247 -0.6055  0.2383
   47MOL    O6525917   1.953   3.702   1.405  0.2199 -0.3249 -0.0274
   47MOL    C6625918   1.885   3.729   1.171 -0.0890 -0.0542 -0.4727
   47MOL    C6725919   1.756   3.770   1.203  0.7087 -0.1050  0.5116
   47MOL    C6825920   1.660   3.784   1.104 -0.2454 -0.5171  0.2230
   47MOL    C6925921   1.681   3.759   0.970 -0.7216 -0.3507 -0.5394
   47MOL    C7025922   1.572   3.794   0.870 -0.7994  0.6813 -0.5922
   47MOL    O7125923   1.457   3.807   0.910  0.1261 -0.0165 -0.6023
   47MOL    C7225924   1.807   3.712   0.940  1.2119  0.1876  0.1583
   47MOL    C7325925   1.907   3.697   1.036 -1.3357 -0.7078 -0.7227
   47MOL    H7425926   2.466   3.997   1.373 -0.7065  1.6760 -0.9013
   47MOL    H7525927   2.453   3.930   1.534 -0.2569  1.9738  1.2785
   47MOL    H7625928   2.220   3.956   1.335  1.2117 -0.6463 -2.2106
   47MOL    H7725929   2.211   3.867   1.478 -1.0331 -0.5670 -1.5805
   47MOL    H7825930   2.388   3.798   1.235 -0.1497  3.2211  1.1980
   47MOL    H7925931   2.412   3.728   1.395  0.8151  1.4169  0.6818
   47MOL    H8025932   2.251   3.568   1.300  2.1709  1.1638 -0.6657
   47MOL    H8125933   2.181   3.656   1.413 -4.6251 -0.4856 -2.1296
   47MOL    H8225934   1.729   3.781   1.307 -2.0491  0.8413 -0.2451
   47MOL    H8325935   1.568   3.838   1.121 -0.4843 -1.3162  1.5087
   47MOL    H8425936   1.833   3.691   0.837  1.0315  0.1946  0.1118
   47MOL    H8525937   2.001   3.649   1.013 -2.2890 -2.5225 -0.9045
   47MOL    O8625938   1.620   3.794   0.751 -0.8649  0.4104 -0.2637
   47MOL    C8725939   1.519   3.818   0.655  0.4518  0.3407  0.0577
   47MOL    C8825940   1.569   3.740   0.531  0.5448 -0.2736 -0.1970
   47MOL    C8925941   1.688   3.797   0.450  0.5275 -0.1931  0.2704
   47MOL    C9025942   1.716   3.731   0.322  0.0342 -0.3181 -0.1441
   47MOL    O9125943   1.806   3.806   0.237  0.4246  0.1543 -0.0922
   47MOL    C9225944   1.853   3.739   0.128 -0.4314  0.2267  0.6340
   47MOL    O9325945   1.843   3.617   0.108 -0.1060  0.7745  0.1895
   47MOL    C9425946   1.902   3.837   0.022  0.9450 -0.2636 -0.2513
   47MOL    C9525947   1.936   3.789   7.995  0.0402  0.7723 -0.1863
   47MOL    C9625948   1.967   3.877   7.893  0.1546 -0.5940  0.7917
   47MOL    C9725949   1.992   4.016   7.927 -0.3419 -0.1971 -0.4469
   47MOL    C9825950   2.041   4.110   7.821  0.2339 -0.6387 -0.1071
   47MOL    O9925951   2.087   4.081   7.713  0.0938  0.4967 -0.4919
   47MOL   C10025952   1.966   4.057   8.058 -0.1601  0.1453 -0.2016
   47MOL   C10125953   1.905   3.975   0.054 -0.0163 -0.1008 -0.3035
   47MOL   H10225954   1.425   3.770   0.682 -0.7615  1.6850 -1.6743
   47MOL   H10325955   1.507   3.920   0.620  0.1850 -0.2057 -1.4738
   47MOL   H10425956   1.479   3.747   0.470 -2.0724 -1.3291  3.3524
   47MOL   H10525957   1.598   3.637   0.552  2.7880  0.6249  1.3976
   47MOL   H10625958   1.659   3.900   0.428 -0.9575  0.0937  3.2036
   47MOL   H10725959   1.781   3.793   0.507  1.1209  0.0499 -0.6803
   47MOL   H10825960   1.771   3.639   0.341  2.0552  1.0740  0.8980
   47MOL   H10925961   1.622   3.707   0.272 -1.5066  3.4836  0.8200
   47MOL   H11025962   1.933   3.685   7.967 -4.2129  0.4236  1.2046
   47MOL   H11125963   1.966   3.839   7.791  2.2550  0.5668  0.3014
   47MOL   H11225964   1.980   4.162   8.080  0.2908  0.2197 -0.8252
   47MOL   H11325965   1.883   4.011   0.153 -0.5132 -1.8538  0.2250
   47MOL   O11425966   2.022   4.234   7.859  0.2360 -0.1615 -0.1122
   47MOL   C11525967   2.082   4.348   7.797 -0.0662  0.2966 -0.2035
   47MOL   C11625968   2.188   4.398   7.891 -0.5502  0.0630  0.3745
   47MOL   C11725969   2.301   4.495   7.834 -0.5969 -0.0120  0.0844
   47MOL   C11825970   2.241   4.630   7.803 -0.5195  0.2282  0.6080
   47MOL   O11925971   2.194   4.688   7.921 -0.4869 -0.0713  0.3208
   47MOL   C12025972   2.062   4.737   7.931 -1.0123 -0.1383  1.1174
   47MOL   O12125973   1.980   4.728   7.838  0.1610 -0.5703 -0.6133
   47MOL   C12225974   2.041   4.802   8.067  0.3552 -0.1237 -0.5990
   47MOL   C12325975   2.144   4.838   0.059  0.2246  0.4914  0.1043
   47MOL   C12425976   2.106   4.891   0.184 -0.3555 -0.4110  1.0777
   47MOL   C12525977   1.972   4.915   0.221  0.1297  0.3052  0.1716
   47MOL   C12625978   1.928   4.966   0.354 -0.0802 -0.4289  0.0500
   47MOL   O12725979   1.812   4.979   0.388  0.6381 -0.7015 -0.0412
   47MOL   C12825980   1.873   4.881   0.129 -1.0647 -0.0305  0.1265
   47MOL   C12925981   1.908   4.825   0.011  0.1486 -0.4969 -0.4662
   47MOL   H13025982   2.139   4.324   7.708  1.2474  2.1642  0.1267
   47MOL   H13125983   2.006   4.422   7.771  0.0660  1.3448  2.2496
   47MOL   H13225984   2.232   4.310   7.939  0.3304 -0.5223 -1.4635
   47MOL   H13325985   2.134   4.444   7.973  2.0651  0.1855  2.0953
   47MOL   H13425986   2.382   4.508   7.905  0.9640 -0.1772 -1.6412
   47MOL   H13525987   2.356   4.463   7.746  1.7121  0.7805  1.2016
   47MOL   H13625988   2.320   4.689   7.756  0.5917 -0.1288  1.9918
   47MOL   H13725989   2.153   4.628   7.739 -0.0531  1.3265 -0.0710
   47MOL   H13825990   2.250   4.830   0.037 -0.5209 -3.2016 -2.6762
   47MOL   H13925991   2.186   4.916   0.252  2.2842 -2.6287 -1.0526
   47MOL   H14025992   1.770   4.885   0.158 -1.0064  0.0694  0.3162
   47MOL   H14125993   1.830   4.790   8.044 -0.9374 -0.5873  0.8471
   47MOL   O14225994   2.036   5.012   0.428 -0.1673  0.5288  0.7102
   47MOL   C14325995   2.024   5.072   0.554  0.1153  0.0379 -0.4170
   47MOL   C14425996   2.031   4.980   0.676  0.4123  0.0701  0.3735
   47MOL   C14525997   2.171   4.912   0.698 -0.3396  0.1795 -0.7541
   47MOL   C14625998   2.178   4.808   0.816 -0.1005  0.4858 -0.1968
   47MOL   O14725999   2.279   4.712   0.781 -0.1760 -0.3088  0.1066
   47MOL   C14826000   2.257   4.575   0.790 -0.6396  0.0980  0.0606
   47MOL   O14926001   2.150   4.526   0.830  0.1663  0.2886  0.6960
   47MOL   C15026002   2.373   4.497   0.761  0.3377  0.6631 -0.0877
   47MOL   C15126003   2.484   4.546   0.688  0.4419  0.3175  0.2259
   47MOL   C15226004   2.589   4.460   0.653 -0.2710 -0.2269 -0.1668
   47MOL   C15326005   2.583   4.321   0.684  0.3086  0.3841 -0.2187
   47MOL   C15426006   2.671   4.224   0.620  0.0676 -0.2761 -0.1660
   47MOL   O15526007   2.667   4.105   0.647  0.6430 -0.2724 -0.2667
   47MOL   C15626008   2.477   4.272   0.760 -0.0451 -0.4235  0.0372
   47MOL   C15726009   2.375   4.361   0.804  0.3407 -1.0446  0.9532
   47MOL   H15826010   2.101   5.149   0.559 -0.8115  1.0413 -1.5752
   47MOL   H15926011   1.924   5.115   0.561 -0.6279 -1.7758  0.5941
   47MOL   H16026012   1.949   4.909   0.665 -0.8574  1.4963  0.5954
   47MOL   H16126013   2.004   5.033   0.767  0.1648 -0.9290  0.8840
   47MOL   H16226014   2.193   4.862   0.604 -5.0682 -0.4544 -1.6536
   47MOL   H16326015   2.235   4.998   0.718  1.1031 -1.2405  0.9709
   47MOL   H16426016   2.201   4.851   0.913  0.1559  1.9635 -0.8944
   47MOL   H16526017   2.081   4.759   0.827  0.1398  0.6201  2.9278
   47MOL   H16626018   2.502   4.651   0.670 -2.8079  0.9996  0.6251
   47MOL   H16726019   2.669   4.502   0.593 -2.4020  2.3677 -1.2745
   47MOL   H16826020   2.465   4.166   0.776 -1.2291 -0.3489 -0.3390
   47MOL   H16926021   2.291   4.321   0.859  0.3289 -0.6183  1.2445
   47MOL   O17026022   2.768   4.287   0.550 -0.1294  0.2747 -0.2357
   47MOL   C17126023   2.843   4.222   0.464 -0.1034  0.7764  0.6337
   47MOL   C17226024   2.840   4.297   0.330 -0.1544 -1.0969  0.1525
   47MOL   C17326025   2.710   4.279   0.258 -0.1015 -0.9186 -0.2486
   47MOL   C17426026   2.708   4.256   0.104 -0.4042 -0.1017  0.3691
   47MOL   O17526027   2.723   4.377   0.035 -0.0140 -0.1057  0.0380
   47MOL   C17626028   2.717   4.372   7.999 -0.1597 -0.6968  0.0360
   47MOL   O17726029   2.717   4.267   7.938  0.4651  0.8725  0.1990
   47MOL   C17826030   2.696   4.504   7.926  0.2023  0.6204 -0.4885
   47MOL   C17926031   2.652   4.630   7.978 -0.0949  0.5454  0.6481
   47MOL   C18026032   2.621   4.743   7.890 -0.0698  0.3471 -0.6575
   47MOL   C18126033   2.639   4.733   7.753  0.3511  0.2021  0.2013
   47MOL   C18226034   2.599   4.848   7.663 -0.5308  0.6063 -0.4674
   47MOL   O18326035   2.644   4.864   7.548 -0.0294  0.4310 -0.4211
   47MOL   C18426036   2.693   4.612   7.700 -0.1055 -0.0470 -0.3736
   47MOL   C18526037   2.717   4.501   7.785  0.2221 -0.7335  0.6840
   47MOL   H18626038   2.948   4.214   0.492  1.2231 -2.2157 -4.5407
   47MOL   H18726039   2.810   4.122   0.437 -0.3868  1.4358 -1.4815
   47MOL   H18826040   2.933   4.272   0.279 -0.2785  0.9027 -1.1358
   47MOL   H18926041   2.851   4.406   0.339 -1.1715 -1.0107  0.3401
   47MOL   H19026042   2.647   4.201   0.302 -0.8138 -0.3817 -0.2978
   47MOL   H19126043   2.648   4.362   0.291 -0.2078 -1.1855  0.2331
   47MOL   H19226044   2.783   4.184   0.071  1.4967  2.1847 -0.3801
   47MOL   H19326045   2.608   4.223   0.073 -0.5020  0.0072  0.5721
   47MOL   H19426046   2.637   4.631   8.085 -0.2697 -0.3889  0.6365
   47MOL   H19526047   2.581   4.833   7.933 -2.7523 -1.1509  0.1038
   47MOL   H19626048   2.724   4.594   7.598  4.3599  4.2824  0.0414
   47MOL   H19726049   2.749   4.415   7.729 -0.1920 -0.9924  0.8378
   47MOL   O19826050   2.512   4.930   7.725 -0.2748  0.1526 -0.3169
   47MOL   C19926051   2.485   5.054   7.659 -0.5533  0.2164  0.0072
   47MOL   C20026052   2.389   5.122   7.757  0.1366  0.0748  0.5774
   47MOL   C20126053   2.241   5.069   7.765 -0.9528  0.8914  0.3764
   47MOL   C20226054   2.155   5.134   7.876  0.2064 -0.4072 -0.5573
   47MOL   O20326055   2.019   5.102   7.850 -0.1753 -0.4991 -0.3265
   47MOL   C20426056   1.925   5.168   7.916  0.0415 -0.4465  0.1383
   47MOL   O20526057   1.948   5.265   7.990 -1.1317  0.6983  0.4595
   47MOL   C20626058   1.790   5.107   7.895  0.2576  0.1521  0.0564
   47MOL   C20726059   1.678   5.165   7.948 -0.1019 -0.0220 -0.0170
   47MOL   C20826060   1.551   5.108   7.936  0.1792 -0.0578  0.5672
   47MOL   C20926061   1.534   4.997   7.847  0.2675  0.0831 -0.4286
   47MOL   C21026062   1.397   4.940   7.819  0.8749  0.0211 -0.4285
   47MOL   O21126063   1.356   4.889   7.716  0.7414 -0.8016 -0.2065
   47MOL   C21226064   1.647   4.938   7.789 -0.9004 -0.1243 -0.2043
   47MOL   C21326065   1.778   4.985   7.820  0.4377 -0.0549 -0.6641
   47MOL   H21426066   2.577   5.111   7.645 -0.8807  0.5294 -0.9824
   47MOL   H21526067   2.443   5.033   7.560  1.5599  0.1220 -0.9017
   47MOL   H21626068   2.384   5.226   7.727 -0.8629 -0.1913 -0.2175
   47MOL   H21726069   2.432   5.120   7.857  0.8874  0.6090  0.2647
   47MOL   H21826070   2.201   5.085   7.665 -1.0597 -2.6645 -0.2237
   47MOL   H21926071   2.262   4.963   7.778  1.0780  1.5291  2.6410
   47MOL   H22026072   2.190   5.112   7.977 -0.1862 -1.0434 -0.5582
   47MOL   H22126073   2.171   5.241   7.861 -1.4584 -0.1319 -0.4903
   47MOL   H22226074   1.699   5.256   8.004 -0.1314 -0.1112  0.1383
   47MOL   H22326075   1.466   5.146   7.990 -0.7782 -1.0513 -0.2140
   47MOL   H22426076   1.645   4.850   7.726  2.2799 -0.2731 -0.1467
   47MOL   H22526077   1.858   4.928   7.775 -0.1848  0.2346 -2.1415
   47MOL   O22626078   1.328   4.953   7.933 -0.1130  0.5521 -0.0769
   47MOL   C22726079   1.190   4.901   7.935 -0.4433 -0.0609 -0.3909
   47MOL   C22826080   1.099   5.000   7.869  0.1245  0.2230  0.1061
   47MOL   C22926081   0.958   4.946   7.836 -0.0637  0.4365 -0.1915
   47MOL   C23026082   0.953   4.881   7.704 -0.1067 -0.1752  0.6711
   47MOL   O23126083   0.922   4.966   7.596  0.1275  0.2835  0.4751
   47MOL   C23226084   0.871   4.917   7.479 -0.3539  0.4656  0.0957
   47MOL   O23326085   0.844   4.795   7.455 -0.3439  0.5544 -0.4180
   47MOL   C23426086   0.855   5.025   7.380  0.1656  0.7532  0.0739
   47MOL   C23526087   0.838   4.987   7.249  0.8404  0.2717  0.0996
   47MOL   C23626088   0.826   5.081   7.146  0.4987 -0.9412 -0.2934
   47MOL   C23726089   0.823   5.216   7.182 -0.7026 -0.0427 -0.1092
   47MOL   C23826090   0.805   5.312   7.071 -0.9246  0.2662 -0.4422
   47MOL   O23926091   0.797   5.275   6.951 -0.0265  0.0585 -0.1872
   47MOL   C24026092   0.852   5.256   7.315 -0.2832 -0.2434 -0.1652
   47MOL   C24126093   0.859   5.160   7.414  0.3637 -0.5681 -0.3436
   47MOL   H24226094   1.182   4.804   7.887 -1.8514 -0.7900  1.2808
   47MOL   H24326095   1.161   4.891   8.039  3.0683 -1.2352  0.5215
   47MOL   H24426096   1.146   5.055   7.788  0.5485  0.6763  0.6600
   47MOL   H24526097   1.081   5.072   7.948 -2.1038 -0.6390  0.4264
   47MOL   H24626098   0.927   4.879   7.917 -0.4892  0.5931 -0.2212
   47MOL   H24726099   0.880   5.022   7.835 -0.7722 -0.2415  1.4257
   47MOL   H24826100   1.051   4.835   7.688  1.6652  2.7842  2.5601
   47MOL   H24926101   0.882   4.799   7.716 -1.3568  1.1023  2.2539
   47MOL   H25026102   0.831   4.882   7.225  0.0540  0.1432  0.8581
   47MOL   H25126103   0.805   5.039   7.049 -1.6582  2.4828 -1.3974
   47MOL   H25226104   0.854   5.361   7.342  2.6208 -0.1857 -0.3559
   47MOL   H25326105   0.873   5.187   7.517  1.7117  0.4246 -0.7638
   47MOL   O25426106   0.795   5.444   7.110 -0.4537  0.0147  0.7337
   47MOL   C25526107   0.777   5.543   7.017 -0.3440 -0.5208 -0.2310
   47MOL   C25626108   0.700   5.646   7.089  0.0237  0.8078 -0.2414
   47MOL   C25726109   0.691   5.774   7.014 -0.2498 -0.2638 -0.0350
   47MOL   C25826110   0.600   5.878   7.093  0.6434 -0.2012 -0.6051
   47MOL   O25926111   0.591   6.004   7.029 -0.2738 -0.4412  0.7295
   47MOL   C26026112   0.520   6.102   7.087  0.1530 -0.2384  0.2757
   47MOL   O26126113   0.449   6.083   7.189 -0.1467  0.7795  0.1144
   47MOL   C26226114   0.528   6.228   7.009 -0.0556  0.3587 -0.5503
   47MOL   C26326115   0.555   6.227   6.873 -0.6697 -1.0344  0.0792
   47MOL   C26426116   0.545   6.354   6.803 -0.4814  0.8587 -0.0992
   47MOL   C26526117   0.521   6.476   6.867 -0.1545  0.1920 -0.6270
   47MOL   C26626118   0.550   6.610   6.804 -0.1500  0.0671  1.1583
   47MOL   O26726119   0.529   6.717   6.852 -0.7530 -0.5420 -0.6977
   47MOL   C26826120   0.499   6.474   7.010  0.2866  0.4983 -0.1660
   47MOL   C26926121   0.499   6.349   7.077  0.6441 -0.2269 -0.4067
   47MOL   H27026122   0.872   5.589   6.987 -0.3082  0.8299  1.8320
   47MOL   H27126123   0.728   5.497   6.932 -0.4832 -0.7857 -0.0099
   47MOL   H27226124   0.730   5.660   7.193 -2.0904 -0.2856  0.5417
   47MOL   H27326125   0.599   5.610   7.108  0.2114  1.7663  2.8572
   47MOL   H27426126   0.790   5.818   6.997 -0.6872  0.9208  0.3851
   47MOL   H27526127   0.649   5.767   6.914 -0.4724  2.3064 -0.1503
   47MOL   H27626128   0.501   5.834   7.091 -0.3151  1.8482  0.0562
   47MOL   H27726129   0.638   5.886   7.195 -1.7880 -1.5913  0.4446
   47MOL   H27826130   0.592   6.144   6.815  2.2426  1.4417 -1.7820
   47MOL   H27926131   0.594   6.356   6.706 -2.1385  0.8830 -0.9499
   47MOL   H28026132   0.477   6.561   7.070 -0.1629 -0.4303  1.0287
   47MOL   H28126133   0.469   6.351   7.180  0.6076  1.0833 -0.4346
   47MOL   O28226134   0.588   6.595   6.679  0.0159  0.2143  0.0628
   47MOL   C28326135   0.613   6.717   6.603  0.2373 -0.6480  0.6975
   47MOL   C28426136   0.720   6.681   6.484  0.1396 -0.3835 -0.2636
   47MOL   C28526137   0.688   6.762   6.360  0.1161  0.3111  0.1953
   47MOL   C28626138   0.771   6.728   6.239 -0.0760 -0.1230 -0.1220
   47MOL   O28726139   0.764   6.820   6.129  0.4760  0.0039 -0.3010
   47MOL   C28826140   0.663   6.792   6.031 -1.0618  0.0052 -0.6217
   47MOL   O28926141   0.620   6.682   6.014  0.1483  0.6300 -0.2584
   47MOL   C29026142   0.624   6.911   5.946 -0.2794 -0.1438 -0.2906
   47MOL   C29126143   0.537   6.897   5.835  0.6917  0.4610  0.3239
   47MOL   C29226144   0.506   7.008   5.755  0.1288 -0.0376 -0.2035
   47MOL   C29326145   0.559   7.137   5.782 -0.2265  0.2188 -0.8968
   47MOL   C29426146   0.500   7.251   5.708  0.3858 -0.1817 -0.6726
   47MOL   O29526147   0.418   7.243   5.621 -0.5733 -0.1338  0.3173
   47MOL   C29626148   0.655   7.156   5.889  0.2440  0.8029 -0.0417
   47MOL   C29726149   0.684   7.044   5.969  0.7689 -0.5112 -0.0841
   47MOL   H29826150   0.513   6.736   6.565  0.4825 -0.3899  0.1827
   47MOL   H29926151   0.650   6.805   6.655  0.3928 -0.3219  0.0376
   47MOL   H30026152   0.717   6.573   6.473 -0.4904 -0.3845 -0.1348
   47MOL   H30126153   0.820   6.707   6.520 -0.0173 -0.2678  0.0948
   47MOL   H30226154   0.583   6.741   6.338  0.4519  1.0341 -2.1731
   47MOL   H30326155   0.704   6.866   6.387  1.4636  0.3425 -0.7027
   47MOL   H30426156   0.876   6.719   6.269  0.1354  1.7433 -0.2359
   47MOL   H30526157   0.761   6.626   6.202 -3.8839  0.0998  0.0797
   47MOL   H30626158   0.493   6.801   5.811 -0.3063  1.1496 -0.6843
   47MOL   H30726159   0.440   6.997   5.670 -0.6803  0.0213  0.4130
   47MOL   H30826160   0.693   7.255   5.910 -0.3306  1.3047 -1.3169
   47MOL   H30926161   0.751   7.053   6.053 -2.4247 -1.0878  2.6352
   47MOL   O31026162   0.554   7.372   5.750 -0.1809  0.6841 -0.0901
   47MOL   C31126163   0.494   7.491   5.706  0.5336  0.4357  0.5462
   47MOL   C31226164   0.587   7.612   5.716  0.3792  0.0618  0.0915
   47MOL   C31326165   0.626   7.656   5.855  0.5678  0.2475  0.6636
   47MOL   C31426166   0.698   7.800   5.848 -0.9752 -0.2001  0.2613
   47MOL   O31526167   0.796   7.804   5.742  0.1433 -0.1955 -0.5634
   47MOL   C31626168   0.919   7.749   5.761  0.8134 -0.0132  0.2298
   47MOL   O31726169   0.960   7.695   5.866  0.3327  0.0499  0.1381
   47MOL   C31826170   1.002   7.755   5.634  0.7063 -0.2103  0.5196
   47MOL   C31926171   1.140   7.731   5.639 -0.1281 -0.0352 -0.1481
   47MOL   C32026172   1.218   7.731   5.524 -0.1387 -0.0316 -0.6610
   47MOL   C32126173   1.165   7.766   5.397 -0.5631 -0.1137 -0.0260
   47MOL   C32226174   1.250   7.786   5.279 -0.8556  0.1388 -0.3078
   47MOL   O32326175   1.355   7.727   5.255  0.2281 -0.2945  0.8631
   47MOL   C32426176   1.024   7.795   5.388  0.7506 -0.5687 -0.0506
   47MOL   C32526177   0.950   7.797   5.508 -0.0457 -0.1890 -0.2364
   47MOL   H32626178   0.461   7.479   5.603 -1.0077  0.8919  0.9766
   47MOL   H32726179   0.402   7.509   5.761  0.1590 -1.7973  0.7323
   47MOL   H32826180   0.546   7.703   5.673  0.6713  0.7271  1.1968
   47MOL   H32926181   0.676   7.596   5.655 -0.3335  0.3707 -1.0452
   47MOL   H33026182   0.535   7.667   5.913 -1.7087  1.7713 -2.9677
   47MOL   H33126183   0.695   7.587   5.902 -1.7735 -0.4096  3.2240
   47MOL   H33226184   0.626   7.875   5.814 -0.9876  0.4347  1.6478
   47MOL   H33326185   0.734   7.832   5.946 -1.5202  0.5338  0.2305
   47MOL   H33426186   1.176   7.706   5.738 -5.1759  0.3110  1.9697
   47MOL   H33526187   1.322   7.712   5.547 -0.5776 -2.1149 -0.2495
   47MOL   H33626188   0.976   7.834   5.299 -0.8524 -1.7709  0.2703
   47MOL   H33726189   0.844   7.818   5.497  0.0093  0.2341  0.0249
   47MOL   O33826190   1.194   7.885   5.202  0.5242  0.0569 -0.4955
   47MOL   C33926191   1.267   7.913   5.085 -0.5028 -0.5870 -0.4127
   47MOL   C34026192   1.189   8.006   4.993 -0.1846  0.4679  0.2113
   47MOL   C34126193   1.040   7.973   4.976 -0.1517  0.0879  0.0399
   47MOL   C34226194   0.980   8.076   4.874  0.2635  0.6802 -0.2552
   47MOL   O34326195   1.015   8.039   4.743 -0.0228 -0.2759 -0.3530
   47MOL   C34426196   0.957   0.007   4.632 -0.8453  0.5911  0.2660
   47MOL   O34526197   0.879   0.101   4.648  0.3778 -0.4948 -0.1037
   47MOL   C34626198   0.998   8.046   4.498 -0.7499 -0.5202 -0.7003
   47MOL   C34726199   0.939   8.095   4.377 -0.6244  0.1475 -0.1153
   47MOL   C34826200   0.984   8.050   4.251  0.3552  0.2924  0.0506
   47MOL   C34926201   1.091   7.960   4.246 -0.7680 -0.5830  0.0288
   47MOL   C35026202   1.152   7.929   4.117  0.0483  0.0574  0.0943
   47MOL   O35126203   1.271   7.892   4.107  0.2732  1.6099  0.3783
   47MOL   C35226204   1.148   7.909   4.365  0.6102 -0.1409 -0.5832
   47MOL   C35326205   1.096   7.946   4.490 -0.6449 -0.0856 -0.7760
   47MOL   H35426206   1.366   7.951   5.111 -1.0452  0.4881  0.1506
   47MOL   H35526207   1.282   7.817   5.037  2.7149 -0.1714 -0.3091
   47MOL   H35626208   1.229   7.993   4.892  0.7509  0.3976  0.5920
   47MOL   H35726209   1.200   0.011   5.025 -0.2961 -0.3956  3.1942
   47MOL   H35826210   1.031   7.870   4.942 -0.9719 -0.1397  0.9259
   47MOL   H35926211   0.984   7.999   5.066 -3.5273 -1.5588 -1.5291
   47MOL   H36026212   0.871   8.068   4.881  0.2304  0.1283 -1.3142
   47MOL   H36126213   1.018   0.078   4.892  1.3717  0.5061 -1.5765
   47MOL   H36226214   0.853   0.061   4.386 -1.4648 -0.6512 -2.1818
   47MOL   H36326215   0.938   8.089   4.162  0.7433  2.6999  0.8757
   47MOL   H36426216   1.235   7.846   4.371  0.9376  0.3288 -0.3558
   47MOL   H36526217   1.143   7.912   4.580 -0.2805 -1.2992 -1.4137
   47MOL   O36626218   1.073   7.953   4.006  0.2181  0.1914 -0.5445
   47MOL   C36726219   1.140   7.958   3.878 -0.4717  0.1168  0.0437
   47MOL   C36826220   1.181   0.005   3.858  0.0802 -0.5620 -1.3716
   47MOL   C36926221   1.066   0.104   3.828 -0.4298 -0.2227 -0.6508
   47MOL   C37026222   1.019   0.089   3.685  0.4042  0.7886  0.2787
   47MOL   O37126223   1.117   0.153   3.608 -0.3218 -0.2163 -0.3764
   47MOL   C37226224   1.090   0.201   3.484  0.4473 -0.2048 -0.1593
   47MOL   O37326225   0.980   0.225   3.441  0.6007  0.2416  0.3571
   47MOL   C37426226   1.214   0.246   3.416  0.5830  0.1427 -0.4316
   47MOL   C37526227   1.337   0.226   3.482  0.3921 -0.2587 -0.0966
   47MOL   C37626228   1.458   0.283   3.426  0.2804  0.2884 -0.0419
   47MOL   C37726229   1.454   0.359   3.306  0.3378 -0.0190 -0.0284
   47MOL   C37826230   1.583   0.398   3.240 -0.4783  0.3124 -0.2910
   47MOL   O37926231   1.689   0.367   3.289  0.5461  0.3882 -0.3922
   47MOL   C38026232   1.327   0.376   3.246 -0.1656  0.2581 -0.2918
   47MOL   C38126233   1.205   0.325   3.300 -0.5394  0.0705  0.1546
   47MOL   H38226234   1.226   7.891   3.875 -0.4552  0.1216  0.4509
   47MOL   H38326235   1.065   7.932   3.803  0.4947 -1.1467 -0.4959
   47MOL   H38426236   1.257   0.010   3.780  0.0672  1.9234 -1.2775
   47MOL   H38526237   1.233   0.040   3.948 -0.4505 -3.2340  0.0261
   47MOL   H38626238   0.990   0.078   3.903 -0.9458 -0.1104 -1.1284
   47MOL   H38726239   1.093   0.205   3.857 -0.8062 -0.1944 -0.3876
   47MOL   H38826240   0.991   8.085   3.659 -1.2329  1.1797  0.4861
   47MOL   H38926241   0.928   0.147   3.673 -0.0272  0.0658 -0.0209
   47MOL   H39026242   1.355   0.184   3.580  3.9476  1.3016 -0.0134
   47MOL   H39126243   1.549   0.275   3.484  0.1722  2.2314  0.4504
   47MOL   H39226244   1.323   0.424   3.149 -1.3726 -0.8922 -0.8147
   47MOL   H39326245   1.112   0.337   3.246 -1.3171  0.1911  1.4984
   47MOL   O39426246   1.573   0.475   3.127  0.2707 -0.4878 -0.5320
   47MOL   C39526247   1.686   0.501   3.041  0.4593 -0.5229  0.2445
   47MOL   C39626248   1.658   0.580   2.910  0.0245 -0.3248 -0.1545
   47MOL   C39726249   1.527   0.535   2.844  0.2570 -0.0321 -0.0257
   47MOL   C39826250   1.479   0.635   2.742  1.3120  0.2098  0.4688
   47MOL   O39926251   1.343   0.608   2.695 -0.0919  0.1705 -1.1702
   47MOL   C40026252   1.255   0.710   2.705  0.1732 -0.2520 -0.1062
   47MOL   O40126253   1.281   0.817   2.765 -0.1155 -0.0406 -0.1660
   47MOL   C40226254   1.131   0.686   2.636 -0.1731  0.1406  0.8137
   47MOL   C40326255   1.088   0.560   2.597 -0.3403 -0.1732  0.5108
   47MOL   C40426256   0.958   0.529   2.541  0.0514 -0.2755  0.0335
   47MOL   C40526257   0.879   0.637   2.513 -0.5359 -0.2201  0.0046
   47MOL   C40626258   0.752   0.623   2.440  0.3930 -0.9449  0.0238
   47MOL   O40726259   0.712   0.516   2.396  0.1718  0.0750 -0.3614
   47MOL   C40826260   0.920   0.768   2.542  0.6091 -1.4384 -0.7126
   47MOL   C40926261   1.046   0.795   2.603 -0.3153  0.2142 -0.1588
   47MOL   H41026262   1.751   0.563   3.103 -0.9022  1.1349  0.0356
   47MOL   H41126263   1.736   0.407   3.019 -0.0754 -0.2181 -2.3704
   47MOL   H41226264   1.738   0.571   2.837 -0.4225  0.2764 -0.7185
   47MOL   H41326265   1.654   0.682   2.948  2.2585  0.3778 -1.7164
   47MOL   H41426266   1.543   0.445   2.786 -1.8296  0.3395 -1.2287
   47MOL   H41526267   1.438   0.508   2.903 -0.8022  0.8677 -1.1915
   47MOL   H41626268   1.488   0.731   2.792  1.8159 -0.2095  1.1798
   47MOL   H41726269   1.542   0.622   2.654  1.9757 -2.5036  1.2928
   47MOL   H41826270   1.156   0.480   2.620  1.7606  1.1133 -1.0518
   47MOL   H41926271   0.925   0.430   2.513  0.3555 -0.2463 -0.4416
   47MOL   H42026272   0.853   0.852   2.531  0.1063 -1.7094  0.2280
   47MOL   H42126273   1.097   0.887   2.626  0.8919  0.4122 -3.3380
   47MOL   O42226274   0.679   0.742   2.421 -0.1423  0.4139 -0.6183
   47MOL   C42326275   0.578   0.746   2.318  0.0635 -0.0192 -0.2592
   47MOL   C42426276   0.629   0.798   2.185  0.5242  0.1209  0.6970
   47MOL   C42526277   0.662   0.947   2.194 -0.5940  0.3297 -0.0199
   47MOL   C42626278   0.544   1.048   2.187  0.0235 -0.3109  0.5120
   47MOL   O42726279   0.471   1.059   2.305  0.0297  0.4702  0.2434
   47MOL   C42826280   0.354   1.127   2.310 -0.0654  0.0664 -0.0700
   47MOL   O42926281   0.305   1.182   2.215  0.3666  0.1498  0.4280
   47MOL   C43026282   0.305   1.134   2.457 -1.0309  0.5236 -0.0254
   47MOL   C43126283   0.195   1.207   2.503  0.2315  0.1753  0.3267
   47MOL   C43226284   0.155   1.206   2.638 -0.0256  0.5648 -0.0643
   47MOL   C43326285   0.227   1.137   2.735 -1.0032  0.2995 -0.1973
   47MOL   C43426286   0.186   1.138   2.877  0.1267  0.7353  0.6461
   47MOL   O43526287   0.066   1.143   2.919 -0.5181 -0.4510  0.0601
   47MOL   C43626288   0.346   1.065   2.692 -0.1635 -0.3992 -0.0469
   47MOL   C43726289   0.378   1.054   2.555 -0.0548 -0.0060 -0.0823
   47MOL   H43826290   0.542   0.644   2.306 -1.0217  0.1625  1.3440
   47MOL   H43926291   0.492   0.799   2.357 -0.7546 -0.3212 -1.6243
   47MOL   H44026292   0.553   0.773   2.111 -0.0398  0.6414  1.0873
   47MOL   H44126293   0.715   0.740   2.150  0.0919  1.4471 -2.7566
   47MOL   H44226294   0.729   0.969   2.277 -0.2161 -1.4496  0.1549
   47MOL   H44326295   0.717   0.973   2.103 -0.3825  1.3873  0.4050
   47MOL   H44426296   0.580   1.146   2.155 -0.9999 -0.0507  0.1481
   47MOL   H44526297   0.472   1.018   2.111 -0.1285  0.9598  0.1431
   47MOL   H44626298   0.140   1.267   2.432 -0.5607 -0.7594  0.1530
   47MOL   H44726299   0.072   1.263   2.678 -1.9283 -2.3750  0.2650
   47MOL   H44826300   0.408   1.016   2.766  0.5480  1.9342  0.9751
   47MOL   H44926301   0.467   0.998   2.530  1.4161  2.4359 -0.4705
   47MOL   O45026302   0.293   1.135   2.951 -0.0561 -0.3049  0.1470
   47MOL   C45126303   0.285   1.170   3.088 -0.4853  0.2349 -0.3238
   47MOL   C45226304   0.397   1.108   3.165  0.6066  0.0198  0.2720
   47MOL   C45326305   0.529   1.146   3.105 -0.0584 -0.2483 -0.4956
   47MOL   C45426306   0.634   1.091   3.204  0.8988 -0.5049 -0.1917
   47MOL   O45526307   0.613   0.952   3.216 -0.5329 -0.8099  0.4081
   47MOL   C45626308   0.693   0.882   3.300 -0.3788 -0.7759  0.1833
   47MOL   O45726309   0.784   0.926   3.367  0.6776  0.6388 -0.2279
   47MOL   C45826310   0.663   0.736   3.309  0.4222 -0.0980  0.3510
   47MOL   C45926311   0.546   0.680   3.246 -0.3867  0.1761  0.0635
   47MOL   C46026312   0.521   0.537   3.244 -0.1109 -0.0084  0.4951
   47MOL   C46126313   0.617   0.455   3.301  0.3548 -0.0563 -0.5076
   47MOL   C46226314   0.591   0.307   3.295  0.2435 -0.3865 -0.4186
   47MOL   O46326315   0.520   0.259   3.207 -0.6267 -0.0990  0.3850
   47MOL   C46426316   0.721   0.510   3.370 -0.1352  0.1806 -0.3358
   47MOL   C46526317   0.748   0.652   3.381 -0.0428  0.3308 -0.0161
   47MOL   H46626318   0.291   1.279   3.094  3.1525  0.0310  0.7505
   47MOL   H46726319   0.182   1.155   3.121 -0.8201 -0.1735 -1.5208
   47MOL   H46826320   0.375   1.002   3.161 -2.7287  0.6550 -0.5472
   47MOL   H46926321   0.396   1.116   3.274 -1.6134  0.6258  0.2461
   47MOL   H47026322   0.534   1.098   3.008  1.1531 -3.3163  1.0178
   47MOL   H47126323   0.552   1.250   3.081 -4.5524  0.3776 -2.5969
   47MOL   H47226324   0.734   1.120   3.171  1.0082 -0.5405  0.1097
   47MOL   H47326325   0.622   1.143   3.299  1.8514 -0.4296 -0.1075
   47MOL   H47426326   0.485   0.747   3.187 -0.3000  0.2554  0.0644
   47MOL   H47526327   0.429   0.513   3.193  0.7511 -0.9226 -0.6492
   47MOL   H47626328   0.792   0.445   3.418  0.3333  1.6814  1.0298
   47MOL   H47726329   0.833   0.684   3.440  1.5875  0.7038 -2.4755
   47MOL   O47826330   0.654   0.239   3.391 -0.3393 -0.6579  0.3744
   47MOL   C47926331   0.655   0.098   3.395  0.7996 -0.1686  0.0446
   47MOL   C48026332   0.519   0.046   3.441 -0.1904 -0.4381  1.2756
   47MOL   C48126333   0.473   0.081   3.581 -0.4530 -0.1606  0.5220
   47MOL   C48226334   0.546   0.016   3.694  0.6325 -0.1687 -0.0386
   47MOL   O48326335   0.549   7.972   3.676  0.1704 -0.3354  0.2279
   47MOL   C48426336   0.657   7.899   3.674 -0.1775 -0.0815  0.3531
   47MOL   O48526337   0.767   7.943   3.689  0.1144  0.4570  0.0540
   47MOL   C48626338   0.633   7.753   3.667  0.0054  0.2031  0.5542
   47MOL   C48726339   0.519   7.697   3.600 -0.4668 -0.6811  0.8641
   47MOL   C48826340   0.491   7.562   3.603 -1.0308  0.2463 -0.0224
   47MOL   C48926341   0.575   7.473   3.675  0.3618  0.1958  0.0970
   47MOL   C49026342   0.542   7.331   3.669  0.8968 -0.1418 -0.1863
   47MOL   O49126343   0.491   7.276   3.570 -0.6968  0.5651  0.2037
   47MOL   C49226344   0.678   7.528   3.755 -0.4263 -0.6561 -0.1316
   47MOL   C49326345   0.714   7.668   3.744  0.0403  0.6923  1.0834
   47MOL   H49426346   0.674   0.070   3.292  0.3620  2.2383 -0.7327
   47MOL   H49526347   0.733   0.056   3.458 -0.5550  0.0101  1.9161
   47MOL   H49626348   0.507   8.040   3.415  1.1194 -0.6289  1.4175
   47MOL   H49726349   0.444   0.081   3.370 -0.5733 -0.3522  1.7155
   47MOL   H49826350   0.482   0.188   3.599  0.8620 -0.2884  0.6863
   47MOL   H49926351   0.366   0.059   3.586 -0.7442  0.9982 -0.4676
   47MOL   H50026352   0.644   0.062   3.687  0.3943  0.6365  1.5201
   47MOL   H50126353   0.501   0.053   3.787  0.6871 -1.5772  0.5503
   47MOL   H50226354   0.442   7.753   3.548  1.1881  0.3553 -0.5298
   47MOL   H50326355   0.403   7.530   3.550 -1.3219  2.1362 -0.6954
   47MOL   H50426356   0.733   7.470   3.827  1.8177  0.5170 -0.8658
   47MOL   H50526357   0.803   7.706   3.791  1.1576  0.5855 -0.9065
   47MOL   O50626358   0.581   7.269   3.775  0.0227  0.4188  0.2210
   47MOL   C50726359   0.554   7.126   3.801  0.1352  0.0164 -1.0299
   47MOL   C50826360   0.460   7.112   3.923  0.1840  0.0092  0.4018
   47MOL   C50926361   0.541   7.125   4.055 -0.7150  0.6247  0.2020
   47MOL   C51026362   0.443   7.107   4.173  0.0745 -0.0438 -0.0436
   47MOL   O51126363   0.510   7.106   4.301 -0.1726  0.2331 -0.3822
   47MOL   C51226364   0.506   7.002   4.390  0.0274 -0.5346 -0.3497
   47MOL   O51326365   0.434   6.906   4.374 -0.4294 -0.0521  0.6293
   47MOL   C51426366   0.582   7.019   4.513 -0.6914 -0.3717  0.5419
   47MOL   C51526367   0.548   6.946   4.633 -0.7488 -0.5116  0.1817
   47MOL   C51626368   0.629   6.956   4.746 -0.5853  0.2511 -0.0363
   47MOL   C51726369   0.745   7.041   4.748 -0.5026  0.6665  0.3563
   47MOL   C51826370   0.838   7.054   4.868 -0.2614 -0.2577 -0.3258
   47MOL   O51926371   0.805   7.033   4.984  0.4142  0.3039 -0.0512
   47MOL   C52026372   0.769   7.118   4.629 -0.2643 -0.3817 -1.2176
   47MOL   C52126373   0.690   7.108   4.514 -0.0206 -0.7818  0.3164
   47MOL   H52226374   0.511   7.079   3.713 -1.8553 -0.4147  0.1677
   47MOL   H52326375   0.638   7.057   3.814  0.3241  0.6058  1.0256
   47MOL   H52426376   0.406   7.017   3.920 -4.1947  2.3473  1.4616
   47MOL   H52526377   0.380   7.184   3.913  0.7471  0.7312  0.9977
   47MOL   H52626378   0.621   7.052   4.058 -1.7459 -0.6274 -1.7078
   47MOL   H52726379   0.586   7.225   4.057 -0.5655  0.5568  0.2411
   47MOL   H52826380   0.367   7.183   4.159  1.1778  1.3055  1.1228
   47MOL   H52926381   0.383   7.016   4.166  0.5459 -0.2153 -2.2274
   47MOL   H53026382   0.467   6.876   4.643 -0.3226 -1.4350 -2.4928
   47MOL   H53126383   0.611   6.901   4.837 -1.2197 -1.3742 -1.1305
   47MOL   H53226384   0.863   7.172   4.628 -1.1214  1.2489  1.5915
   47MOL   H53326385   0.726   7.158   4.426 -0.4389  2.5776  1.9847
   47MOL   O53426386   0.962   7.096   4.835  0.3216  0.1072 -0.5151
   47MOL   C53526387   1.052   7.139   4.935  0.4922  0.4916  0.2843
   47MOL   C53626388   1.155   7.239   4.875  0.5755  0.0221 -0.2593
   47MOL   C53726389   1.263   7.184   4.773  0.1356 -0.1994  1.0669
   47MOL   C53826390   1.346   7.295   4.708 -0.4046 -0.3942  0.2692
   47MOL   O53926391   1.419   7.368   4.805  0.2370 -0.3527 -0.0771
   47MOL   C54026392   1.539   7.320   4.853 -0.8161 -0.3772  0.3019
   47MOL   O54126393   1.590   7.220   4.811 -0.1325 -0.1340 -0.0338
   47MOL   C54226394   1.597   7.417   4.946 -0.6071  0.0979  0.4339
   47MOL   C54326395   1.552   7.551   4.959 -0.6094  0.0608 -0.0541
   47MOL   C54426396   1.601   7.632   5.060 -1.0730 -0.0824 -0.3527
   47MOL   C54526397   1.697   7.581   5.149 -0.7780 -0.0929 -0.4281
   47MOL   C54626398   1.732   7.665   5.269  0.0836 -0.0682  0.7895
   47MOL   O54726399   1.813   7.640   5.355 -0.3565  0.1249  0.2962
   47MOL   C54826400   1.757   7.456   5.131 -0.3451 -0.2274 -0.0037
   47MOL   C54926401   1.701   7.369   5.034  0.1402  0.1988  0.6776
   47MOL   H55026402   0.995   7.177   5.020  1.5719  0.9392  0.8179
   47MOL   H55126403   1.114   7.058   4.973 -0.4172 -0.9292 -1.2244
   47MOL   H55226404   1.207   7.278   4.962  2.7452  0.8466 -1.8937
   47MOL   H55326405   1.091   7.316   4.831  2.9672  1.3110 -1.5837
   47MOL   H55426406   1.328   7.118   4.829  0.2817 -0.7544  0.2622
   47MOL   H55526407   1.214   7.113   4.706 -0.1798  0.6528  0.3710
   47MOL   H55626408   1.418   7.254   4.637 -2.8945 -1.2103 -1.8440
   47MOL   H55726409   1.289   7.366   4.649 -0.8067  1.2369  2.5764
   47MOL   H55826410   1.480   7.588   4.887 -0.0918  0.3225 -0.4338
   47MOL   H55926411   1.568   7.733   5.080 -2.0347  0.0061 -2.2243
   47MOL   H56026412   1.835   7.416   5.195  0.7697 -1.0509 -1.8225
   47MOL   H56126413   1.737   7.267   5.032  1.2957  0.6074 -2.3084
   47MOL   H56226414   1.673   7.757   5.271 -0.4454 -0.3332 -1.2721
   48MOL     O126415   3.816   0.628   1.094 -0.2168 -0.1024 -0.0416
   48MOL     C226416   3.706   0.561   1.158  0.5143  0.1167 -0.0903
   48MOL     C326417   3.742   0.415   1.190  0.6330  0.5544  0.0204
   48MOL     C426418   3.634   0.361   1.280  0.7709  0.7219 -0.4822
   48MOL     C526419   3.662   0.229   1.350  0.2799  0.1192  0.0099
   48MOL     O626420   3.550   0.185   1.431  0.1509  0.4552 -0.0922
   48MOL     C726421   3.563   0.067   1.516 -0.2378  0.3510  0.2759
   48MOL     O826422   3.667   8.095   1.514 -0.2736  0.3349 -0.1092
   48MOL     C926423   3.450   0.052   1.607 -0.2761 -0.2878  0.8194
   48MOL    C1026424   3.432   8.032   1.686 -0.2660  1.1368  0.5633
   48MOL    C1126425   3.318   8.010   1.769  0.0047  0.4294 -0.1537
   48MOL    C1226426   3.217   0.011   1.776 -0.5811  0.6639 -0.4442
   48MOL    C1326427   3.091   8.093   1.853  0.0434 -0.1160 -0.0313
   48MOL    O1426428   2.999   0.080   1.856  0.0062 -0.5356 -0.5318
   48MOL    C1526429   3.234   0.122   1.688  0.1730  0.8099  0.7869
   48MOL    C1626430   3.348   0.148   1.611 -0.5118  0.0701 -0.1556
   48MOL    H1726431   3.695   0.613   1.253 -2.6692 -0.1301 -0.2454
   48MOL    H1826432   3.617   0.572   1.095  0.6481  2.4268  0.0616
   48MOL    H1926433   3.831   0.418   1.254  0.5655  0.3599  0.1248
   48MOL    H2026434   3.763   0.354   1.102 -0.5968  1.3369 -0.8160
   48MOL    H2126435   3.608   0.432   1.358 -2.7400 -0.7294 -0.2396
   48MOL    H2226436   3.531   0.357   1.243  0.4941 -1.8312  0.4779
   48MOL    H2326437   3.685   0.153   1.275  0.9001 -2.1750  2.4714
   48MOL    H2426438   3.743   0.249   1.420  1.1336  0.2907 -1.0095
   48MOL    H2526439   3.513   7.961   1.689 -0.6300  0.7697  1.9710
   48MOL    H2626440   3.312   7.917   1.823  1.0059  0.5140  0.1138
   48MOL    H2726441   3.161   0.201   1.697 -0.0318  0.5544  1.4182
   48MOL    H2826442   3.336   0.236   1.549 -0.8900  0.8185  0.9631
   48MOL    H2926443   3.859   0.572   1.032 -1.1488  0.7584 -1.4801
   48MOL    O3026444   3.087   7.979   1.929  0.2699  0.2222  0.0803
   48MOL    C3126445   2.961   7.934   1.969 -0.3007  0.6897  0.6119
   48MOL    C3226446   2.889   7.882   1.840  0.1902  0.1451 -0.2194
   48MOL    C3326447   2.746   7.825   1.861  0.4876  0.5626  0.4166
   48MOL    C3426448   2.700   7.772   1.717 -0.2372  0.0394  0.1061
   48MOL    O3526449   2.689   7.878   1.620 -0.7231  0.3810  0.0241
   48MOL    C3626450   2.575   7.949   1.607 -0.2458  0.0688 -0.1489
   48MOL    O3726451   2.476   7.933   1.688  0.6456  0.6556  0.0100
   48MOL    C3826452   2.574   8.049   1.491  0.0281  0.6101  0.2085
   48MOL    C3926453   2.687   8.070   1.410 -0.3519 -0.2450 -0.0786
   48MOL    C4026454   2.681   0.071   1.312 -0.1433 -0.1000  0.9313
   48MOL    C4126455   2.564   0.143   1.283 -0.3015  0.0886 -0.3004
   48MOL    C4226456   2.563   0.254   1.179 -0.2253  0.3017 -0.0362
   48MOL    O4326457   2.658   0.302   1.123  0.0509  0.3424 -0.2412
   48MOL    C4426458   2.451   0.122   1.365  0.4726 -0.2976  0.0907
   48MOL    C4526459   2.455   0.021   1.460 -0.2012 -0.5862 -0.4024
   48MOL    H4626460   2.970   7.861   2.049 -0.9796 -0.8528 -0.6888
   48MOL    H4726461   2.898   8.016   2.005 -0.9885  0.9247 -1.0905
   48MOL    H4826462   2.937   7.792   1.803  0.9638 -0.5214  2.3358
   48MOL    H4926463   2.874   7.966   1.771 -0.8714 -0.9470 -1.3450
   48MOL    H5026464   2.737   7.753   1.941  1.0960  0.6307  0.5488
   48MOL    H5126465   2.686   7.913   1.885  1.0371  1.2316 -0.5918
   48MOL    H5226466   2.767   7.698   1.673 -0.3314  1.2486 -2.1557
   48MOL    H5326467   2.605   7.719   1.722  0.6238 -1.5932 -0.6673
   48MOL    H5426468   2.787   8.032   1.427  0.2871  2.5575  2.9685
   48MOL    H5526469   2.769   0.101   1.257 -2.2900 -1.1331 -3.2356
   48MOL    H5626470   2.355   0.166   1.345  0.7994  0.1330 -0.5587
   48MOL    H5726471   2.366   0.005   1.519  0.5084  2.4307  1.6074
   48MOL    O5826472   2.438   0.301   1.147  0.2380 -0.2930 -0.2492
   48MOL    C5926473   2.427   0.389   1.029  0.8278 -0.3205 -0.3881
   48MOL    C6026474   2.398   0.318   0.894 -0.0737  0.0031 -0.0218
   48MOL    C6126475   2.508   0.333   0.790  0.1477 -0.8935  0.8521
   48MOL    C6226476   2.560   0.481   0.756  0.1290  0.6226 -0.2975
   48MOL    O6326477   2.461   0.569   0.722 -0.1876 -0.2549  0.0731
   48MOL    C6426478   2.496   0.686   0.643  0.3438 -0.0628 -0.3448
   48MOL    O6526479   2.608   0.700   0.597  0.2957  0.8019  0.2760
   48MOL    C6626480   2.391   0.796   0.621  0.2716  0.6644  0.5211
   48MOL    C6726481   2.259   0.764   0.666 -0.3956 -0.4358 -0.1834
   48MOL    C6826482   2.155   0.862   0.650  0.3006 -0.8185 -0.2481
   48MOL    C6926483   2.184   0.990   0.597  0.1233 -0.3922  0.0288
   48MOL    C7026484   2.075   1.086   0.571 -0.8308  0.0128 -0.6331
   48MOL    O7126485   1.956   1.055   0.563 -0.0109  0.0283  0.4141
   48MOL    C7226486   2.321   1.025   0.568  0.6835 -0.0902 -0.3792
   48MOL    C7326487   2.423   0.929   0.581 -0.8470  0.0010  0.2514
   48MOL    H7426488   2.337   0.449   1.045  1.7567  1.2680 -1.0367
   48MOL    H7526489   2.511   0.459   1.025 -0.0645  0.8165  0.4812
   48MOL    H7626490   2.311   0.364   0.848 -1.3752 -0.1216  2.2411
   48MOL    H7726491   2.376   0.211   0.895  0.6733 -0.2291 -2.6710
   48MOL    H7826492   2.593   0.271   0.819  0.6580 -0.6780 -0.1659
   48MOL    H7926493   2.483   0.285   0.695 -0.9184 -2.3622  1.8614
   48MOL    H8026494   2.627   0.498   0.841 -0.6040 -1.2532  0.6787
   48MOL    H8126495   2.628   0.464   0.673 -1.1198 -2.0821 -0.8283
   48MOL    H8226496   2.225   0.670   0.707 -0.7912 -0.9731 -1.7277
   48MOL    H8326497   2.054   0.839   0.678  0.2708  0.6798  0.8808
   48MOL    H8426498   2.345   1.121   0.526  3.5385 -0.0251  1.3127
   48MOL    H8526499   2.522   0.942   0.541 -1.0863  0.5978 -0.1532
   48MOL    O8626500   2.119   1.216   0.570  0.0508 -0.3212  0.3173
   48MOL    C8726501   2.031   1.321   0.589  0.1924 -0.2101  0.7502
   48MOL    C8826502   2.101   1.451   0.551  0.3368  0.0341  0.2203
   48MOL    C8926503   2.128   1.466   0.407  0.2233  0.6771 -0.2452
   48MOL    C9026504   2.206   1.589   0.362 -0.3299  0.0957 -0.8491
   48MOL    O9126505   2.135   1.703   0.398 -0.3717  0.4810  0.0849
   48MOL    C9226506   2.151   1.819   0.330  0.4042 -0.6877  0.5060
   48MOL    O9326507   2.233   1.835   0.237 -0.5385 -0.0834 -0.1882
   48MOL    C9426508   2.061   1.921   0.386  0.4018 -0.1743 -0.6049
   48MOL    C9526509   2.046   2.047   0.319 -0.6851 -0.1498  0.3330
   48MOL    C9626510   1.972   2.148   0.380  0.3987  0.5648  0.4247
   48MOL    C9726511   1.913   2.134   0.510 -0.5443  0.6099  0.2323
   48MOL    C9826512   1.852   2.246   0.580 -0.3710 -0.3998 -0.2006
   48MOL    O9926513   1.766   2.318   0.528 -0.3914  0.2015  0.3712
   48MOL   C10026514   1.924   2.005   0.577  0.2150 -0.4963  0.3987
   48MOL   C10126515   1.995   1.899   0.512 -0.1280 -0.3900  0.1318
   48MOL   H10226516   1.937   1.308   0.535  0.4002  0.9056  0.1148
   48MOL   H10326517   2.015   1.319   0.697  1.4649 -1.4304  0.9287
   48MOL   H10426518   2.197   1.443   0.601  1.3461 -0.2954 -1.7612
   48MOL   H10526519   2.036   1.532   0.586 -1.8862 -0.5983 -2.2671
   48MOL   H10626520   2.186   1.385   0.363  0.4462 -0.5325  2.1482
   48MOL   H10726521   2.042   1.443   0.345  0.6239  0.4434 -0.7162
   48MOL   H10826522   2.309   1.594   0.396 -0.1787 -1.0134 -1.1038
   48MOL   H10926523   2.225   1.581   0.255  0.9015 -1.2762 -0.5465
   48MOL   H11026524   2.095   2.063   0.224 -1.3675 -0.1247 -0.0213
   48MOL   H11126525   1.972   2.245   0.331  2.7746 -0.3355 -1.4586
   48MOL   H11226526   1.876   1.993   0.673  0.2403 -0.1555  0.4543
   48MOL   H11326527   2.001   1.805   0.564  1.2275  0.5457  1.7553
   48MOL   O11426528   1.870   2.245   0.714 -0.6703 -0.1784 -0.3082
   48MOL   C11526529   1.836   2.358   0.795 -0.2643  0.0649  0.3711
   48MOL   C11626530   1.682   2.343   0.831 -0.4651  0.2923  0.0521
   48MOL   C11726531   1.652   2.201   0.886  0.4740  0.4854  0.7300
   48MOL   C11826532   1.553   2.207   1.002  0.1097 -0.2263 -0.2886
   48MOL   O11926533   1.560   2.086   1.076 -0.3005 -0.2154  0.2345
   48MOL   C12026534   1.460   2.058   1.162  0.0779  0.6722 -0.5811
   48MOL   O12126535   1.356   2.121   1.175 -0.1673 -0.4152  0.0401
   48MOL   C12226536   1.484   1.927   1.246 -0.5256 -0.1939  0.6463
   48MOL   C12326537   1.398   1.897   1.352 -0.0523 -0.5810 -0.2105
   48MOL   C12426538   1.419   1.770   1.423  0.3388 -0.2866  0.5310
   48MOL   C12526539   1.523   1.682   1.392  0.4771 -1.1895 -0.9145
   48MOL   C12626540   1.543   1.553   1.462 -0.6685  1.0213  0.1125
   48MOL   O12726541   1.645   1.494   1.468 -0.1730 -0.3564  0.0487
   48MOL   C12826542   1.612   1.718   1.288  0.4124  0.4995  0.3852
   48MOL   C12926543   1.592   1.838   1.220 -0.3448  0.5805  0.0017
   48MOL   H13026544   1.897   2.368   0.884 -0.1319 -1.1299  0.4250
   48MOL   H13126545   1.866   2.450   0.746  1.1499 -0.0972  0.9267
   48MOL   H13226546   1.613   2.367   0.750 -2.4400 -0.2071  1.5241
   48MOL   H13326547   1.653   2.414   0.909 -0.6664  0.0323  0.2135
   48MOL   H13426548   1.615   2.137   0.806  3.1679 -0.7942  0.4264
   48MOL   H13526549   1.748   2.164   0.921  0.2232  0.4618  1.4016
   48MOL   H13626550   1.578   2.293   1.065 -1.6279  0.9980 -1.2141
   48MOL   H13726551   1.454   2.234   0.966  0.4725  0.4767 -0.7833
   48MOL   H13826552   1.329   1.976   1.380  0.0290 -0.0628 -1.4251
   48MOL   H13926553   1.351   1.732   1.498  1.9211  0.1311  2.2060
   48MOL   H14026554   1.688   1.649   1.256 -0.7704 -0.2430 -0.8588
   48MOL   H14126555   1.657   1.855   1.135  1.2030 -1.3302  0.7602
   48MOL   O14226556   1.427   1.499   1.510 -0.1865 -0.8607  0.2010
   48MOL   C14326557   1.431   1.376   1.585  0.2300 -0.9697  0.1742
   48MOL   C14426558   1.395   1.256   1.492  0.5113 -0.6482 -0.1627
   48MOL   C14526559   1.273   1.181   1.547  0.0059 -1.3355 -0.7539
   48MOL   C14626560   1.233   1.066   1.457  1.1383 -0.1179  0.3344
   48MOL   O14726561   1.310   0.951   1.497  0.0402  0.0633  0.3994
   48MOL   C14826562   1.310   0.830   1.423  0.3694  0.3671 -0.3675
   48MOL   O14926563   1.276   0.818   1.305 -0.3150  0.6394 -0.2468
   48MOL   C15026564   1.363   0.721   1.507  0.3654 -0.5981 -0.2491
   48MOL   C15126565   1.378   0.589   1.457  0.1598 -0.0580  0.0503
   48MOL   C15226566   1.426   0.486   1.542  0.4023 -0.6268 -0.6849
   48MOL   C15326567   1.458   0.509   1.679 -0.1921 -0.2885  0.6854
   48MOL   C15426568   1.516   0.403   1.762  0.1665  0.1585 -0.0012
   48MOL   O15526569   1.584   0.311   1.715 -0.1590  0.3148  0.1939
   48MOL   C15626570   1.434   0.637   1.731 -0.5215 -0.1852  0.0056
   48MOL   C15726571   1.385   0.737   1.647  0.1493  0.3203  0.3221
   48MOL   H15826572   1.526   1.361   1.635  0.3239 -0.8663  0.0284
   48MOL   H15926573   1.365   1.385   1.671  0.6871  2.1075  0.2403
   48MOL   H16026574   1.479   1.186   1.498 -0.6227 -1.9712  0.3956
   48MOL   H16126575   1.381   1.279   1.386  0.9964 -1.1653 -0.3398
   48MOL   H16226576   1.292   1.156   1.651  2.3202  1.9999 -0.3121
   48MOL   H16326577   1.189   1.251   1.549  0.4791 -0.7879  0.7574
   48MOL   H16426578   1.126   1.061   1.477  0.7297  3.7824 -0.5529
   48MOL   H16526579   1.242   1.091   1.351 -0.5786 -1.8001 -0.2380
   48MOL   H16626580   1.348   0.560   1.357  0.6619 -1.3637  0.2629
   48MOL   H16726581   1.445   0.388   1.503  0.6090 -0.2305 -1.5856
   48MOL   H16826582   1.464   0.665   1.831  1.0451 -3.6823  0.5591
   48MOL   H16926583   1.383   0.835   1.691 -1.1936  0.6096 -0.3680
   48MOL   O17026584   1.497   0.421   1.900 -0.1065  0.5650 -0.4238
   48MOL   C17126585   1.543   0.319   1.992 -0.1560 -0.7076  0.0388
   48MOL   C17226586   1.443   0.201   2.026 -0.2425  0.3047  1.0834
   48MOL   C17326587   1.510   0.094   2.106 -0.5850 -0.0030 -0.3543
   48MOL   C17426588   1.438   8.056   2.119  0.0043  0.3649 -0.4355
   48MOL   O17526589   1.524   7.979   2.196 -0.6500 -0.4805 -0.4080
   48MOL   C17626590   1.490   7.857   2.231  0.1818  0.1510 -0.3551
   48MOL   O17726591   1.378   7.807   2.203 -0.0211  0.4381 -0.5269
   48MOL   C17826592   1.603   7.789   2.302 -0.3449 -0.0070 -0.6436
   48MOL   C17926593   1.738   7.816   2.265 -0.6650 -0.6865 -0.4848
   48MOL   C18026594   1.846   7.762   2.337  0.1604  0.2920  0.0989
   48MOL   C18126595   1.824   7.677   2.445 -0.0470  0.9939 -0.6094
   48MOL   C18226596   1.944   7.629   2.521 -0.0764 -0.1841 -0.0436
   48MOL   O18326597   2.063   7.654   2.498 -0.0294 -0.2797 -0.3749
   48MOL   C18426598   1.693   7.645   2.485  0.2289 -0.4699  0.4654
   48MOL   C18526599   1.578   7.704   2.418  0.4755  1.1264 -0.4839
   48MOL   H18626600   1.646   0.291   1.975 -0.5554 -0.3225 -3.3236
   48MOL   H18726601   1.553   0.367   2.089 -1.5716  0.1536 -0.2235
   48MOL   H18826602   1.419   0.157   1.929  1.8359  2.4949 -0.4908
   48MOL   H18926603   1.351   0.235   2.073 -0.0582  0.6551  1.1901
   48MOL   H19026604   1.606   0.069   2.059  0.8693 -0.5763  2.7586
   48MOL   H19126605   1.533   0.130   2.207  2.4165  0.4240 -1.1238
   48MOL   H19226606   1.345   8.061   2.177  0.7580 -0.6838  0.8897
   48MOL   H19326607   1.412   8.007   2.025 -1.7304  0.4021  0.0089
   48MOL   H19426608   1.766   7.872   2.177  2.9491 -1.4837  0.0662
   48MOL   H19526609   1.945   7.786   2.300  0.8899  0.1988  1.8965
   48MOL   H19626610   1.681   7.591   2.578 -3.0018 -0.4891  0.0856
   48MOL   H19726611   1.474   7.690   2.443  0.8309 -1.4128 -0.2779
   48MOL   O19826612   1.902   7.567   2.627  0.4891 -0.0725 -0.1707
   48MOL   C19926613   1.999   7.508   2.718 -0.4090 -0.1455 -0.3789
   48MOL   C20026614   1.929   7.426   2.830 -0.0019 -0.2946  0.1162
   48MOL   C20126615   2.013   7.358   2.936  0.3923 -0.0318 -0.4703
   48MOL   C20226616   2.110   7.244   2.907 -0.2757 -0.1928 -0.0340
   48MOL   O20326617   2.193   7.274   2.797 -0.5275  0.3145  0.1635
   48MOL   C20426618   2.315   7.213   2.787 -0.6671  0.5381 -0.1931
   48MOL   O20526619   2.354   7.129   2.869 -0.0058 -0.0134  0.3235
   48MOL   C20626620   2.387   7.255   2.669  0.0749 -0.0147  0.4440
   48MOL   C20726621   2.525   7.223   2.656 -0.2139 -0.2158 -0.6656
   48MOL   C20826622   2.601   7.271   2.550  0.3821  0.7356  0.2265
   48MOL   C20926623   2.543   7.343   2.448 -0.6693 -0.4108  0.9823
   48MOL   C21026624   2.625   7.400   2.345 -0.1477  0.8082 -0.3248
   48MOL   O21126625   2.742   7.394   2.348 -0.6119  0.4091 -0.0656
   48MOL   C21226626   2.406   7.376   2.452  0.0430  0.4982  0.3083
   48MOL   C21326627   2.326   7.332   2.562  0.3144  1.0817  0.2364
   48MOL   H21426628   2.068   7.452   2.655  0.2739 -0.6015  0.7490
   48MOL   H21526629   2.064   7.590   2.750 -1.5481  1.2106 -1.4834
   48MOL   H21626630   1.860   7.356   2.783  0.7164  0.7279 -2.5776
   48MOL   H21726631   1.862   7.492   2.885  0.1095 -1.1149  1.2609
   48MOL   H21826632   2.073   7.443   2.968  3.5217 -2.7599  1.3452
   48MOL   H21926633   1.952   7.334   3.024  0.6528  2.0105  0.2959
   48MOL   H22026634   2.162   7.211   2.997  0.1097  0.9281  0.1583
   48MOL   H22126635   2.048   7.157   2.885  0.7910 -1.0532  0.3193
   48MOL   H22226636   2.581   7.159   2.722 -2.8347 -1.2916  0.5737
   48MOL   H22326637   2.705   7.245   2.554 -0.0757 -1.0254  0.8806
   48MOL   H22426638   2.363   7.447   2.383 -0.4564  1.2173  1.3464
   48MOL   H22526639   2.221   7.357   2.565 -0.1679 -0.8903  0.5296
   48MOL   O22626640   2.557   7.436   2.239 -0.0533 -0.0802 -0.1851
   48MOL   C22726641   2.633   7.466   2.122 -0.0068 -0.5626  0.0034
   48MOL   C22826642   2.537   7.488   2.003  0.2151  0.1130  0.8017
   48MOL   C22926643   2.447   7.618   2.005  0.2958 -0.6129 -0.4907
   48MOL   C23026644   2.320   7.575   1.931 -0.4420 -0.3553  0.1152
   48MOL   O23126645   2.243   7.684   1.904  0.1522  0.2149  0.5309
   48MOL   C23226646   2.152   7.720   1.992 -0.4454  0.2020 -0.3456
   48MOL   O23326647   2.136   7.682   2.106 -0.8607  0.4518  0.0337
   48MOL   C23426648   2.048   7.806   1.931  0.8447  0.3238  0.5372
   48MOL   C23526649   2.003   7.786   1.797  0.4082  1.0498  0.0089
   48MOL   C23626650   1.891   7.845   1.742 -0.5845  0.4469 -0.4373
   48MOL   C23726651   1.823   7.937   1.825  0.3164  0.0939  0.4549
   48MOL   C23826652   1.703   8.007   1.779 -0.0046 -0.0912 -0.2299
   48MOL   O23926653   1.618   8.043   1.857 -0.6124 -0.4264 -0.6605
   48MOL   C24026654   1.868   7.965   1.954  0.0530 -0.0673 -0.1757
   48MOL   C24126655   1.980   7.902   2.006 -0.0409  0.1104  0.6260
   48MOL   H24226656   2.696   7.552   2.141  0.5684 -1.1226  0.6563
   48MOL   H24326657   2.705   7.388   2.096  2.4250  1.5637  0.2161
   48MOL   H24426658   2.474   7.399   1.999  0.7432 -0.2927  1.5307
   48MOL   H24526659   2.608   7.495   1.920 -1.1687 -1.1756 -0.5164
   48MOL   H24626660   2.421   7.646   2.107 -0.2804 -0.9031 -0.5525
   48MOL   H24726661   2.499   7.700   1.956 -0.2399  0.6248  0.9911
   48MOL   H24826662   2.346   7.544   1.830  0.1265 -1.4825  0.5880
   48MOL   H24926663   2.271   7.495   1.988 -0.6506 -0.3102 -0.0002
   48MOL   H25026664   2.056   7.716   1.736 -0.7290  1.4537 -1.4683
   48MOL   H25126665   1.860   7.829   1.640  1.0550  1.7599 -1.1679
   48MOL   H25226666   1.817   8.033   2.020 -1.3912  0.8712 -2.1920
   48MOL   H25326667   2.000   7.912   2.112  0.6895 -4.2621  0.9655
   48MOL   O25426668   1.697   8.015   1.641 -0.3463 -0.3304  0.2703
   48MOL   C25526669   1.585   8.073   1.582 -0.6072  0.3966  0.1148
   48MOL   C25626670   1.581   8.036   1.433 -0.1599 -0.2077  0.4128
   48MOL   C25726671   1.557   7.886   1.420 -0.1914  0.5607  0.4297
   48MOL   C25826672   1.437   7.857   1.328  0.2607  0.6185 -0.0728
   48MOL   O25926673   1.420   7.721   1.289 -0.4813 -0.3194 -0.0206
   48MOL   C26026674   1.440   7.682   1.163  0.2961 -0.1341 -0.5886
   48MOL   O26126675   1.491   7.757   1.080 -0.4638  0.1151  0.0671
   48MOL   C26226676   1.395   7.542   1.137  0.4543 -0.9183  0.2185
   48MOL   C26326677   1.327   7.463   1.225 -0.1435  0.1654 -0.2215
   48MOL   C26426678   1.295   7.329   1.188  0.4331  0.3361 -0.0344
   48MOL   C26526679   1.329   7.281   1.057  0.1378  0.1551 -0.1662
   48MOL   C26626680   1.290   7.139   1.016  0.1875  0.0850 -0.8820
   48MOL   O26726681   1.204   7.075   1.087 -0.1910  0.2013 -0.0188
   48MOL   C26826682   1.403   7.360   0.974 -0.0457 -0.3575  0.7437
   48MOL   C26926683   1.431   7.494   1.010 -0.2682 -0.1174 -0.0362
   48MOL   H27026684   1.493   8.029   1.621 -0.3726 -0.9850 -0.8370
   48MOL   H27126685   1.585   0.081   1.603 -1.7985 -0.0471  2.5594
   48MOL   H27226686   1.666   8.056   1.368 -2.0864 -0.7685 -2.3648
   48MOL   H27326687   1.501   8.097   1.391  0.1643  0.4964  0.7922
   48MOL   H27426688   1.637   7.841   1.362 -0.8566 -2.5250  1.8290
   48MOL   H27526689   1.550   7.833   1.515 -1.5630  0.0110  0.0266
   48MOL   H27626690   1.354   7.888   1.391  0.0567  0.0005 -0.0316
   48MOL   H27726691   1.427   7.923   1.241  1.1106  1.9562  0.8386
   48MOL   H27826692   1.316   7.493   1.328 -2.2127  0.0196 -0.3637
   48MOL   H27926693   1.248   7.256   1.251  4.4505 -1.5309  0.9366
   48MOL   H28026694   1.428   7.328   0.874 -2.4423  0.9300 -0.2873
   48MOL   H28126695   1.486   7.555   0.939 -0.5074 -0.2909 -0.3695
   48MOL   O28226696   1.352   7.103   0.911 -0.5862  0.4671 -0.5203
   48MOL   C28326697   1.328   6.984   0.848  0.3164  0.5304  0.2715
   48MOL   C28426698   1.458   6.904   0.815 -0.6841  0.1576  0.0424
   48MOL   C28526699   1.555   6.882   0.938  0.0337  0.0923 -0.5270
   48MOL   C28626700   1.653   6.764   0.913  0.1896 -0.3359 -0.1873
   48MOL   O28726701   1.712   6.731   1.035 -0.3088 -0.7530  0.2529
   48MOL   C28826702   1.801   6.622   1.039  0.6658  0.3180 -0.6317
   48MOL   O28926703   1.828   6.562   0.937  0.6777  0.0396 -0.2238
   48MOL   C29026704   1.862   6.580   1.170  0.1776  0.0401 -0.2252
   48MOL   C29126705   1.828   6.641   1.291  0.2053 -0.0786 -0.4374
   48MOL   C29226706   1.883   6.588   1.413  0.0165  0.0450 -0.1534
   48MOL   C29326707   1.976   6.476   1.407  0.5379 -0.3527  0.2583
   48MOL   C29426708   2.037   6.424   1.529 -0.4522  0.2447 -0.0186
   48MOL   O29526709   2.129   6.340   1.522  0.5299  0.0431  1.1575
   48MOL   C29626710   2.013   6.421   1.285  0.0293 -0.1459  0.0976
   48MOL   C29726711   1.948   6.474   1.174 -0.1903  0.5615  0.1461
   48MOL   H29826712   1.261   6.918   0.903 -0.6189  1.9489  0.8790
   48MOL   H29926713   1.275   7.012   0.756  0.5780 -0.8974 -0.3255
   48MOL   H30026714   1.517   6.952   0.736 -1.5256 -1.7906 -1.8122
   48MOL   H30126715   1.436   6.807   0.771  0.5065 -0.1075 -0.0040
   48MOL   H30226716   1.616   6.972   0.947  0.1509  0.1654 -1.8573
   48MOL   H30326717   1.502   6.874   1.032 -1.7322 -3.0501 -1.7151
   48MOL   H30426718   1.612   6.673   0.869 -0.7912 -0.8326  1.6799
   48MOL   H30526719   1.730   6.796   0.842  0.2512  1.3933  0.6180
   48MOL   H30626720   1.754   6.717   1.310 -0.4343 -1.1636  1.5298
   48MOL   H30726721   1.855   6.632   1.507 -0.6007 -0.8514  0.0952
   48MOL   H30826722   2.086   6.342   1.273  0.7661  0.7193 -1.1931
   48MOL   H30926723   1.975   6.421   1.084 -1.0525 -0.6445  0.5804
   48MOL   O31026724   1.990   6.476   1.635  0.3234  0.3410 -0.1790
   48MOL   C31126725   2.065   6.465   1.758  0.2800  0.1785 -0.3148
   48MOL   C31226726   2.127   6.601   1.798  0.0130 -0.3277  0.0424
   48MOL   C31326727   2.233   6.654   1.697  0.1169  0.9017  0.4546
   48MOL   C31426728   2.293   6.792   1.732  0.9257  0.0726  0.0820
   48MOL   O31526729   2.199   6.887   1.687  0.0725  0.2194  0.1240
   48MOL   C31626730   2.214   7.019   1.719 -0.1707 -0.0494 -0.0618
   48MOL   O31726731   2.307   7.062   1.786  0.1259 -0.4323  0.1764
   48MOL   C31826732   2.104   7.105   1.656 -0.1307 -0.5811 -0.4788
   48MOL   C31926733   2.008   7.065   1.561  0.7156 -0.4750 -0.1016
   48MOL   C32026734   1.926   7.155   1.494 -0.2156 -0.2594  0.6607
   48MOL   C32126735   1.925   7.292   1.535 -0.0355  0.1367  0.4915
   48MOL   C32226736   1.829   7.394   1.480 -0.4682  0.1411  0.2753
   48MOL   O32326737   1.809   7.507   1.525  0.3809 -0.6369 -0.2676
   48MOL   C32426738   1.998   7.330   1.644  0.0630  0.2779 -0.0074
   48MOL   C32526739   2.091   7.239   1.699 -0.3171  0.3899  0.1915
   48MOL   H32626740   2.005   6.433   1.843  3.0935 -0.7393  1.3965
   48MOL   H32726741   2.143   6.391   1.738  1.9760  1.6604  0.7190
   48MOL   H32826742   2.168   6.582   1.897  1.1683  0.5250 -0.2553
   48MOL   H32926743   2.046   6.673   1.808 -0.3486 -0.6167 -0.7836
   48MOL   H33026744   2.316   6.584   1.692 -0.3604  0.4858 -2.6468
   48MOL   H33126745   2.193   6.638   1.597 -0.6578  0.0685  0.8850
   48MOL   H33226746   2.314   6.789   1.839  0.6883 -1.8193  0.0914
   48MOL   H33326747   2.394   6.803   1.691  0.8489  0.9768  0.1192
   48MOL   H33426748   2.006   6.963   1.526 -1.3966  0.0261 -1.5619
   48MOL   H33526749   1.862   7.109   1.419 -0.5420  2.4345 -0.7549
   48MOL   H33626750   1.998   7.429   1.686 -0.6562  0.7218 -1.0322
   48MOL   H33726751   2.144   7.284   1.782  0.0516  0.4205 -0.0565
   48MOL   O33826752   1.759   7.339   1.382  0.4794 -0.6825  0.2438
   48MOL   C33926753   1.668   7.411   1.302  0.0657  0.1314 -0.0851
   48MOL   C34026754   1.744   7.464   1.182 -0.1111 -0.1603 -0.0472
   48MOL   C34126755   1.799   7.362   1.079  0.4133 -0.2302  0.6533
   48MOL   C34226756   1.928   7.296   1.141  0.1935  0.0252 -0.2877
   48MOL   O34326757   2.002   7.223   1.047  0.2400 -0.0054 -0.4022
   48MOL   C34426758   1.978   7.088   1.030 -0.6461 -0.8316  0.2538
   48MOL   O34526759   1.918   7.007   1.104 -0.0683 -0.0120  0.1398
   48MOL   C34626760   2.039   7.043   0.901 -0.6885  0.5718 -0.0913
   48MOL   C34726761   2.119   7.125   0.815 -0.3841 -1.3401 -0.4459
   48MOL   C34826762   2.186   7.071   0.699  0.0110 -0.4223  0.0729
   48MOL   C34926763   2.179   6.934   0.665  0.1657  0.0749  0.0084
   48MOL   C35026764   2.256   6.881   0.549 -0.2279  0.7131  0.0534
   48MOL   O35126765   2.336   6.951   0.485 -0.0987  0.5478 -0.2826
   48MOL   C35226766   2.106   6.855   0.756  0.4143 -0.0266  0.5489
   48MOL   C35326767   2.029   6.907   0.863 -0.2322  0.0626 -0.3942
   48MOL   H35426768   1.593   7.341   1.264  0.0566  1.0246 -1.7466
   48MOL   H35526769   1.606   7.481   1.358  1.0444  0.3854  0.7009
   48MOL   H35626770   1.825   7.530   1.215  0.1313 -0.4415 -0.0738
   48MOL   H35726771   1.690   7.542   1.128  0.2247 -0.4167 -0.7618
   48MOL   H35826772   1.744   7.274   1.044  1.2707  0.0562 -1.4943
   48MOL   H35926773   1.835   7.411   0.989 -0.9576 -0.3864  0.0104
   48MOL   H36026774   1.993   7.374   1.181  0.3192  0.0521 -0.5407
   48MOL   H36126775   1.905   7.243   1.233  1.1422 -0.1020 -0.1221
   48MOL   H36226776   2.144   7.228   0.837  0.5701 -1.5230 -0.6461
   48MOL   H36326777   2.248   7.136   0.638  1.1323 -1.9755 -0.4909
   48MOL   H36426778   2.095   6.751   0.727 -0.7996  0.0414  0.7012
   48MOL   H36526779   1.966   6.846   0.926 -0.3875  2.3622  1.7648
   48MOL   O36626780   2.232   6.751   0.523  0.1447  0.5487  0.1190
   48MOL   C36726781   2.292   6.683   0.414 -0.4434  0.0236 -0.4375
   48MOL   C36826782   2.304   6.540   0.474  0.0288 -0.0362  0.1259
   48MOL   C36926783   2.364   6.429   0.390  0.5261 -0.2388  0.6027
   48MOL   C37026784   2.488   6.459   0.309 -0.0372 -0.3569 -0.0534
   48MOL   O37126785   2.602   6.456   0.384  0.0423 -0.2431 -0.5755
   48MOL   C37226786   2.708   6.524   0.335 -0.1193  0.0314 -0.0389
   48MOL   O37326787   2.712   6.585   0.228  0.1030 -0.2930 -0.2364
   48MOL   C37426788   2.821   6.514   0.424 -0.4588 -0.6947 -0.5671
   48MOL   C37526789   2.951   6.494   0.373  0.7019 -0.3367 -0.1266
   48MOL   C37626790   3.065   6.487   0.458  0.1258  0.0138  0.0258
   48MOL   C37726791   3.058   6.531   0.590  0.3138 -0.2161  0.1948
   48MOL   C37826792   3.173   6.532   0.674  0.8185  0.3240  0.2623
   48MOL   O37926793   3.161   6.520   0.797  0.2070 -0.1923  0.0258
   48MOL   C38026794   2.926   6.562   0.643  0.1957 -0.3509  0.0064
   48MOL   C38126795   2.809   6.537   0.565 -0.4382 -0.2678 -0.6938
   48MOL   H38226796   2.233   6.696   0.324  0.2972  2.9579 -0.5544
   48MOL   H38326797   2.394   6.720   0.399 -0.5816  2.7388  4.2158
   48MOL   H38426798   2.207   6.502   0.503 -0.1654  0.5350  0.2331
   48MOL   H38526799   2.367   6.563   0.560 -1.1600 -0.9219  1.2494
   48MOL   H38626800   2.389   6.339   0.446 -0.7924 -0.3088  1.0931
   48MOL   H38726801   2.286   6.392   0.324  0.3009  1.3378 -0.0484
   48MOL   H38826802   2.493   6.380   0.234 -2.3223 -1.3204  0.7810
   48MOL   H38926803   2.478   6.551   0.251  0.6201 -1.6083 -2.2128
   48MOL   H39026804   2.962   6.478   0.266 -0.3061  0.3023 -0.3373
   48MOL   H39126805   3.159   6.463   0.411  0.0145  1.3571 -0.9290
   48MOL   H39226806   2.915   6.588   0.747  0.2650  4.0500 -1.0117
   48MOL   H39326807   2.712   6.545   0.613 -0.5854 -2.5436 -0.5638
   48MOL   O39426808   3.288   6.550   0.611 -0.7431 -0.3818  0.4034
   48MOL   C39526809   3.410   6.556   0.687 -0.6240  0.3662  0.4053
   48MOL   C39626810   3.524   6.628   0.607 -0.5167  0.5238 -0.1726
   48MOL   C39726811   3.655   6.654   0.686 -0.0556 -0.2170 -0.0373
   48MOL   C39826812   3.643   6.795   0.759 -0.0215 -0.0026 -0.3046
   48MOL   O39926813   3.612   6.781   0.900  0.7436  0.2786  0.5414
   48MOL   C40026814   3.502   6.824   0.954  0.2249  0.4860  0.7517
   48MOL   O40126815   3.418   6.891   0.893  0.0580  0.0421 -0.3497
   48MOL   C40226816   3.490   6.803   1.101 -0.0464  0.0690  0.4967
   48MOL   C40326817   3.606   6.762   1.176  0.6009 -0.7436  0.1595
   48MOL   C40426818   3.599   6.751   1.317 -0.1074 -0.5137 -0.2006
   48MOL   C40526819   3.475   6.771   1.386 -1.2830 -0.1291  0.1726
   48MOL   C40626820   3.467   6.747   1.536 -1.4023 -0.4426 -0.5037
   48MOL   O40726821   3.562   6.695   1.604 -0.3825  0.2348 -0.4290
   48MOL   C40826822   3.368   6.823   1.312  0.0212 -0.5702  0.0305
   48MOL   C40926823   3.370   6.830   1.165  0.1235  0.0210 -0.2043
   48MOL   H41026824   3.385   6.622   0.770  1.2578 -0.6067  1.7882
   48MOL   H41126825   3.428   6.453   0.716 -0.6189  0.6535  1.4388
   48MOL   H41226826   3.487   6.723   0.569  0.0727  0.3827 -1.1210
   48MOL   H41326827   3.536   6.566   0.518 -0.9213  1.8657 -1.1809
   48MOL   H41426828   3.684   6.570   0.750 -0.6999 -1.7554 -1.7117
   48MOL   H41526829   3.736   6.672   0.616 -0.4367 -1.3465 -0.7831
   48MOL   H41626830   3.737   6.852   0.757 -0.2193  0.4377  1.6653
   48MOL   H41726831   3.566   6.860   0.719  0.4498  2.0517  2.0087
   48MOL   H41826832   3.700   6.739   1.128  1.1650  0.0945  0.8651
   48MOL   H41926833   3.681   6.714   1.376  1.3317 -0.8915 -2.3701
   48MOL   H42026834   3.273   6.840   1.361 -1.2229 -1.8688 -1.8659
   48MOL   H42126835   3.294   6.879   1.107 -0.3060 -0.6465 -0.2047
   48MOL   O42226836   3.348   6.786   1.587 -0.1933 -0.6644 -0.1207
   48MOL   C42326837   3.318   6.763   1.719  0.0801 -0.1634 -0.0262
   48MOL   C42426838   3.162   6.773   1.727 -0.7596  0.6661  0.7477
   48MOL   C42526839   3.094   6.896   1.674  0.0326 -0.0767  0.0027
   48MOL   C42626840   3.162   7.023   1.722 -0.1823 -0.1495 -0.0913
   48MOL   O42726841   3.154   7.052   1.859  0.5079 -0.1920 -0.1474
   48MOL   C42826842   3.036   7.094   1.906  0.4209 -0.2352  0.0714
   48MOL   O42926843   2.933   7.109   1.840 -0.4451  0.8661  0.1773
   48MOL   C43026844   3.034   7.105   2.058 -0.1975  0.3512 -0.5451
   48MOL   C43126845   3.155   7.084   2.133  0.7347 -0.3980  0.6337
   48MOL   C43226846   3.147   7.077   2.274  0.1847  0.1900  0.1527
   48MOL   C43326847   3.025   7.096   2.338 -0.0893  0.5479 -0.2329
   48MOL   C43426848   3.025   7.078   2.482 -0.5566 -0.2134 -0.1547
   48MOL   O43526849   3.119   7.068   2.558 -0.5392  0.2025  0.1080
   48MOL   C43626850   2.905   7.136   2.264 -0.5980  0.0773  0.2892
   48MOL   C43726851   2.909   7.133   2.121  0.5166  0.8012  0.3497
   48MOL   H43826852   3.356   6.667   1.753 -1.4138 -0.3396  1.1663
   48MOL   H43926853   3.372   6.833   1.783  0.6481  0.8879 -1.6039
   48MOL   H44026854   3.137   6.762   1.833 -3.5238  1.5560  0.2278
   48MOL   H44126855   3.129   6.680   1.680 -1.4626 -0.0311  2.5698
   48MOL   H44226856   3.090   6.885   1.565  1.1789  1.7343 -0.2504
   48MOL   H44326857   2.990   6.906   1.705 -0.3189  0.4523 -1.3146
   48MOL   H44426858   3.264   7.021   1.684 -0.2717  4.2560 -0.8142
   48MOL   H44526859   3.131   7.109   1.663  1.8632  1.1286  0.6094
   48MOL   H44626860   3.253   7.079   2.087  0.8915 -1.9342  1.1051
   48MOL   H44726861   3.239   7.063   2.328 -0.2574 -1.3841  0.5372
   48MOL   H44826862   2.815   7.151   2.322  0.6397  1.2805  1.9460
   48MOL   H44926863   2.820   7.158   2.065  0.6913  1.3163  0.3010
   48MOL   O45026864   2.904   7.075   2.526  0.3217  0.5564 -0.7381
   48MOL   C45126865   2.876   7.049   2.668 -0.5383 -0.0405 -0.0031
   48MOL   C45226866   2.872   7.172   2.759 -0.0441  0.3014  0.0534
   48MOL   C45326867   2.811   7.149   2.893 -0.9403 -0.0383 -0.2410
   48MOL   C45426868   2.825   7.267   2.992 -0.3313 -0.7968 -0.2500
   48MOL   O45526869   2.746   7.371   2.946 -0.3590  0.3733 -0.3141
   48MOL   C45626870   2.622   7.387   3.012 -0.4334 -0.1076 -0.1244
   48MOL   O45726871   2.579   7.316   3.106 -0.0923 -0.2771  0.4418
   48MOL   C45826872   2.548   7.501   2.954 -0.0526  0.0672 -0.1072
   48MOL   C45926873   2.604   7.571   2.844  0.6515 -0.5130 -0.2214
   48MOL   C46026874   2.535   7.678   2.788  0.4255 -0.7649 -0.5821
   48MOL   C46126875   2.405   7.709   2.834 -0.3692 -0.3953 -0.4297
   48MOL   C46226876   2.319   7.810   2.772 -0.4482  0.0594  0.2971
   48MOL   O46326877   2.211   7.851   2.814  0.4743  0.2057  0.2308
   48MOL   C46426878   2.351   7.637   2.947 -0.1450  0.1989  0.2099
   48MOL   C46526879   2.422   7.531   3.008 -0.2605 -0.5018  0.0549
   48MOL   H46626880   2.779   6.999   2.668 -0.4100 -0.2884 -0.1470
   48MOL   H46726881   2.942   6.970   2.704 -0.9904  0.1064  1.1741
   48MOL   H46826882   2.821   7.260   2.719 -0.2592 -0.7104 -1.9556
   48MOL   H46926883   2.977   7.201   2.772  1.0708 -2.6242 -1.9628
   48MOL   H47026884   2.706   7.122   2.887 -0.9808  0.1317 -0.3014
   48MOL   H47126885   2.856   7.061   2.940  0.6417  2.1388  2.4859
   48MOL   H47226886   2.805   7.227   3.091  1.2545 -2.6470 -0.6490
   48MOL   H47326887   2.928   7.300   2.983  0.1973 -1.9934  1.2081
   48MOL   H47426888   2.704   7.565   2.804 -0.1965 -4.3599 -1.9966
   48MOL   H47526889   2.582   7.716   2.698  0.5504 -0.2432 -0.2947
   48MOL   H47626890   2.252   7.646   2.990 -1.0223 -0.6187 -1.5938
   48MOL   H47726891   2.377   7.474   3.087 -1.8580  2.1179  1.0968
   48MOL   O47826892   2.383   7.867   2.666 -0.1452  0.3491  0.8931
   48MOL   C47926893   2.332   7.976   2.598 -0.2048  0.0042  0.2292
   48MOL   C48026894   2.448   8.069   2.556  0.8740  1.0068  0.2079
   48MOL   C48126895   2.416   0.068   2.444  0.0346 -0.2780 -0.5272
   48MOL   C48226896   2.531   0.173   2.411  0.0678 -0.0636  0.7374
   48MOL   O48326897   2.656   0.110   2.410  0.0272  0.9007 -0.1778
   48MOL   C48426898   2.748   0.147   2.312  0.3658  0.0093  0.5845
   48MOL   O48526899   2.720   0.232   2.222  0.4282  0.4103 -0.0975
   48MOL   C48626900   2.877   0.071   2.321  0.1996 -0.7703  0.4441
   48MOL   C48726901   2.898   8.080   2.423  0.4360 -0.2883 -0.0754
   48MOL   C48826902   3.018   8.010   2.425 -0.3189  0.4142  0.7238
   48MOL   C48926903   3.129   8.038   2.337 -1.0838  1.1987 -0.0782
   48MOL   C49026904   3.261   7.961   2.348  0.7987 -0.4235 -0.4392
   48MOL   O49126905   3.289   7.897   2.450 -0.4684  0.2410  0.4861
   48MOL   C49226906   3.103   0.037   2.242 -0.0779 -0.7629  0.3977
   48MOL   C49326907   2.981   0.107   2.233 -0.0343 -1.2438 -0.7195
   48MOL   H49426908   2.276   7.933   2.515 -1.6013 -0.4112  1.3814
   48MOL   H49526909   2.276   8.040   2.666 -0.5606 -0.6949  0.5856
   48MOL   H49626910   2.531   8.003   2.530  1.3745  1.3108  1.0222
   48MOL   H49726911   2.477   0.025   2.646  2.4285 -0.3443  0.5659
   48MOL   H49826912   2.391   0.012   2.354  0.0001  0.0940 -0.7497
   48MOL   H49926913   2.324   0.122   2.467  0.9220  1.0595 -0.0745
   48MOL   H50026914   2.508   0.206   2.310  2.1482  1.7282  0.8051
   48MOL   H50126915   2.541   0.267   2.466  0.5656  0.1849  0.2242
   48MOL   H50226916   2.822   8.053   2.496  0.9158 -0.0685  0.5048
   48MOL   H50326917   3.038   7.952   2.514 -0.5992  1.5644  1.5486
   48MOL   H50426918   3.185   0.061   2.175 -1.5352 -3.0520 -2.3212
   48MOL   H50526919   2.979   0.179   2.152  0.2028  0.8346  1.0844
   48MOL   O50626920   3.334   7.964   2.232  0.1378  0.7957  0.6289
   48MOL   C50726921   3.450   7.884   2.222 -0.3023 -0.3263 -0.7211
   48MOL   C50826922   3.509   7.910   2.089  0.5747 -0.5609  0.1670
   48MOL   C50926923   3.550   8.056   2.058  0.6863  0.3860  0.0967
   48MOL   C51026924   3.692   8.085   2.105 -0.0798  0.2014 -0.2733
   48MOL   O51126925   3.781   8.046   2.001  0.0401 -0.4454 -0.0913
   48MOL   C51226926   3.877   7.953   2.022  0.1279 -0.0453  0.2661
   48MOL   O51326927   3.903   7.905   2.134 -0.2469  0.1439 -0.2449
   48MOL   C51426928   3.938   7.908   1.900 -0.5940  0.3752 -0.0014
   48MOL   C51526929   4.005   7.784   1.905  0.2792  0.7105 -0.1980
   48MOL   C51626930   4.057   7.731   1.787  0.1529 -0.8311  0.0785
   48MOL   C51726931   4.043   7.789   1.665  0.9673 -0.1034  0.0491
   48MOL   C51826932   4.099   7.732   1.539 -0.4385 -0.6923 -0.3977
   48MOL   O51926933   4.181   7.645   1.551 -0.4217  0.6059  0.2559
   48MOL   C52026934   3.951   7.903   1.655 -0.5545  0.2076 -0.4777
   48MOL   C52126935   3.911   7.973   1.773 -0.6647  1.0413 -0.0917
   48MOL   H52226936   3.526   7.913   2.295 -1.7049  0.2981  0.5193
   48MOL   H52326937   3.441   7.775   2.223  1.5963 -0.5362 -2.6209
   48MOL   H52426938   3.440   7.888   2.008  0.2903  0.8232  0.0130
   48MOL   H52526939   3.593   7.843   2.069 -0.4236 -1.6098 -0.5342
   48MOL   H52626940   3.561   8.078   1.952 -1.7937  0.9286 -0.0682
   48MOL   H52726941   3.490   0.029   2.114  3.0106  3.2825 -0.9729
   48MOL   H52826942   3.711   0.090   2.131  0.2774  0.3790 -1.2052
   48MOL   H52926943   3.711   8.025   2.194 -2.8088 -0.4362 -0.0704
   48MOL   H53026944   4.019   7.733   1.999 -1.2253  1.4113  0.4143
   48MOL   H53126945   4.108   7.636   1.793  0.1692 -0.8261  0.0184
   48MOL   H53226946   3.924   7.946   1.560  0.1588  0.4112 -0.5918
   48MOL   H53326947   3.853   8.063   1.772  0.1140  1.5592 -2.9888
   48MOL   O53426948   4.039   7.783   1.432  0.1580  0.5135  0.6252
   48MOL   C53526949   4.082   7.735   1.302  0.1222  0.6069  0.0345
   48MOL   C53626950   4.016   7.832   1.199  0.3403 -0.1856  0.2794
   48MOL   C53726951   4.007   7.777   1.054 -0.3992 -0.2583  0.0910
   48MOL   C53826952   3.958   7.865   0.941  0.6021  0.0312  0.0419
   48MOL   O53926953   3.825   7.904   0.977  0.0340  0.0443  0.1618
   48MOL   C54026954   3.796   8.038   0.963 -0.1654  0.1081  0.2604
   48MOL   O54126955   3.874   0.012   0.896 -0.1858  0.3045  0.3804
   48MOL   C54226956   3.673   8.082   1.031 -0.1387 -0.2017  0.3149
   48MOL   C54326957   3.615   8.011   1.138  1.1965 -0.1828  0.4899
   48MOL   C54426958   3.495   8.050   1.201 -0.1824  0.6489 -0.2109
   48MOL   C54526959   3.437   0.074   1.161  0.3734  0.0350 -0.2678
   48MOL   C54626960   3.315   0.126   1.227 -0.6683 -0.2910  0.2411
   48MOL   O54726961   3.242   0.219   1.192  0.0556 -0.4021 -0.1023
   48MOL   C54826962   3.496   0.156   1.059  0.4174 -0.2452  0.2729
   48MOL   C54926963   3.614   0.112   0.994 -0.2528  0.1827 -0.1879
   48MOL   H55026964   4.191   7.731   1.290 -0.1378 -2.9960 -1.9534
   48MOL   H55126965   4.042   7.635   1.283  1.6606 -0.3074  1.3878
   48MOL   H55226966   4.069   7.927   1.195 -0.2862  0.1751  0.5014
   48MOL   H55326967   3.920   7.868   1.235 -0.7363 -0.8992 -1.7975
   48MOL   H55426968   4.106   7.738   1.029 -0.8938 -0.7202 -1.2192
   48MOL   H55526969   3.956   7.682   1.070 -1.3639 -0.0104 -1.3664
   48MOL   H55626970   4.029   7.947   0.931  0.8412 -0.4408 -2.6458
   48MOL   H55726971   3.947   7.814   0.845 -0.8528  0.8764 -0.2500
   48MOL   H55826972   3.666   7.920   1.166 -1.6991 -1.4867  1.8413
   48MOL   H55926973   3.436   7.985   1.264 -2.3979  1.9896 -0.8366
   48MOL   H56026974   3.451   0.252   1.038  2.5877  0.2815 -2.2788
   48MOL   H56126975   3.656   0.169   0.913  0.7032 -1.7764 -1.0948
   48MOL   H56226976   3.282   0.074   1.318 -2.7297 -0.9246 -0.8518
   49MOL     O126977   7.295   6.160   1.910  0.2663 -0.0454 -0.2357
   49MOL     C226978   7.326   6.268   2.000  0.0449  0.0015 -0.1407
   49MOL     C326979   7.243   6.265   2.130  0.3251 -0.3262 -0.2578
   49MOL     C426980   7.266   6.135   2.213  0.6898  0.3767 -0.5146
   49MOL     C526981   7.399   6.115   2.288 -0.3473 -0.4336 -0.1492
   49MOL     O626982   7.425   6.231   2.365 -0.2272  0.3848  0.2000
   49MOL     C726983   7.543   6.280   2.363 -0.1379  0.5443 -0.1913
   49MOL     O826984   7.645   6.224   2.325 -0.3636  0.2986 -0.4891
   49MOL     C926985   7.547   6.426   2.409 -0.2974  0.0895  0.4792
   49MOL    C1026986   7.428   6.491   2.428  0.3707 -0.2088  0.1402
   49MOL    C1126987   7.426   6.624   2.451 -0.4230 -0.0814 -0.2918
   49MOL    C1226988   7.543   6.703   2.473 -0.4102 -0.4113  0.1557
   49MOL    C1326989   7.543   6.846   2.517  0.1075 -0.5212  0.4303
   49MOL    O1426990   7.443   6.920   2.505 -0.1391 -0.0696 -0.5470
   49MOL    C1526991   7.667   6.630   2.460 -0.1373 -0.0668  0.0412
   49MOL    C1626992   7.667   6.497   2.424 -0.2634 -0.1760 -0.8395
   49MOL    H1726993   7.433   6.256   2.014  0.3435  0.3241 -2.1043
   49MOL    H1826994   7.312   6.367   1.958 -0.1458 -0.1846 -0.5156
   49MOL    H1926995   7.138   6.278   2.104 -0.2607 -0.9762  1.6675
   49MOL    H2026996   7.280   6.348   2.191  0.8328 -1.3325  0.8256
   49MOL    H2126997   7.194   6.132   2.295 -1.9774  0.1627 -2.7826
   49MOL    H2226998   7.237   6.049   2.153 -1.4530  0.8099 -0.1260
   49MOL    H2326999   7.405   6.031   2.357  1.2625  0.2807  0.6029
   49MOL    H2427000   7.476   6.082   2.219  0.8267  0.1550  0.8481
   49MOL    H2527001   7.331   6.445   2.424  0.7165 -0.7883 -2.5415
   49MOL    H2627002   7.328   6.670   2.456 -0.5985 -0.3064 -1.6220
   49MOL    H2727003   7.764   6.676   2.471 -0.2580  0.0377  0.6893
   49MOL    H2827004   7.760   6.443   2.417  0.1459  0.6618 -1.8194
   49MOL    H2927005   7.329   6.080   1.948 -1.9376  0.2062  2.4394
   49MOL    O3027006   7.653   6.887   2.580 -0.0329 -0.1249 -0.0105
   49MOL    C3127007   7.668   7.018   2.630 -0.2742 -0.5579 -0.1408
   49MOL    C3227008   7.817   7.059   2.611  0.4224 -0.1708 -0.2882
   49MOL    C3327009   7.856   7.092   2.469  1.0215  0.6787  0.2494
   49MOL    C3427010   8.010   7.109   2.450 -0.1420  0.4211 -0.5663
   49MOL    O3527011   8.062   7.189   2.552 -0.0381 -0.5694 -0.2662
   49MOL    C3627012   0.098   7.183   2.579  0.1700  0.4176 -1.0536
   49MOL    O3727013   0.171   7.103   2.522  0.0918 -0.3004 -0.3995
   49MOL    C3827014   0.134   7.252   2.698  0.1244  0.1708 -0.1757
   49MOL    C3927015   0.043   7.336   2.761  0.0033 -0.0290 -0.5711
   49MOL    C4027016   0.078   7.392   2.884  0.9200  0.3706  0.7343
   49MOL    C4127017   0.203   7.370   2.948  0.7944  0.4911  0.4016
   49MOL    C4227018   0.226   7.443   3.070 -0.6967  0.6658  0.1203
   49MOL    O4327019   0.145   7.519   3.124  0.3980  0.4900  0.5567
   49MOL    C4427020   0.295   7.292   2.884 -0.7104  0.5364  0.0815
   49MOL    C4527021   0.261   7.238   2.759 -0.2738 -0.6081 -0.0312
   49MOL    H4627022   7.603   7.095   2.587 -0.9335 -0.5774  0.7994
   49MOL    H4727023   7.638   7.020   2.735 -0.1221  3.0292 -0.0957
   49MOL    H4827024   7.880   6.975   2.641  0.3448 -0.2861 -0.4475
   49MOL    H4927025   7.838   7.144   2.676  1.9450 -0.4888 -0.3443
   49MOL    H5027026   7.808   7.026   2.396  1.5083 -0.0690  0.5954
   49MOL    H5127027   7.800   7.181   2.440 -0.0983  0.0922  0.5828
   49MOL    H5227028   8.056   7.011   2.450 -0.5702  0.2117  0.8945
   49MOL    H5327029   8.025   7.154   2.352  3.1065  0.7550  0.0514
   49MOL    H5427030   8.042   7.351   2.722 -0.5536 -2.9465 -0.3765
   49MOL    H5527031   0.008   7.458   2.932  2.7532  2.3188  0.7924
   49MOL    H5627032   0.391   7.265   2.926 -0.3584 -1.7595 -2.0681
   49MOL    H5727033   0.332   7.174   2.710  1.4648  1.3302 -0.1274
   49MOL    O5827034   0.353   7.426   3.115 -0.1228  0.1633 -0.2513
   49MOL    C5927035   0.400   7.538   3.187 -0.3070  0.4114 -0.7054
   49MOL    C6027036   0.541   7.503   3.237 -0.2541 -0.0987 -0.3553
   49MOL    C6127037   0.637   7.470   3.123  0.4349  0.2450  0.1915
   49MOL    C6227038   0.646   7.320   3.095 -0.0507  0.3174 -0.5477
   49MOL    O6327039   0.728   7.258   3.195  0.0445 -0.5032  0.0835
   49MOL    C6427040   0.778   7.136   3.176 -0.2360 -0.3769 -0.0896
   49MOL    O6527041   0.775   7.088   3.061 -0.4242 -0.3214 -0.8251
   49MOL    C6627042   0.831   7.067   3.292 -0.4653  0.6032  0.5793
   49MOL    C6727043   0.777   7.082   3.422  0.0783  0.4210 -0.5483
   49MOL    C6827044   0.838   7.028   3.531 -0.2548  0.4020  0.1379
   49MOL    C6927045   0.951   6.942   3.529 -0.4439 -0.0697  0.9534
   49MOL    C7027046   1.020   6.882   3.646  0.0143  0.0029  0.4100
   49MOL    O7127047   1.110   6.798   3.635  0.0628 -0.0176  0.0061
   49MOL    C7227048   1.002   6.917   3.396 -0.1346 -0.7860 -0.6847
   49MOL    C7327049   0.944   6.981   3.281 -0.0897  0.9424 -0.6790
   49MOL    H7427050   0.418   7.632   3.136 -1.6012  1.9421  1.5920
   49MOL    H7527051   0.336   7.565   3.270 -0.1706  0.3493 -0.5798
   49MOL    H7627052   0.531   7.427   3.315 -1.5734 -1.3792 -1.7317
   49MOL    H7727053   0.577   7.594   3.286 -1.4994 -1.0294  2.4116
   49MOL    H7827054   0.612   7.525   3.032 -1.5335 -2.3235 -0.8901
   49MOL    H7927055   0.741   7.498   3.131  0.3234  1.2420 -1.5187
   49MOL    H8027056   0.547   7.273   3.089  0.9012 -1.5193 -2.8919
   49MOL    H8127057   0.687   7.298   2.996 -2.2960 -0.4598 -1.3420
   49MOL    H8227058   0.690   7.139   3.449 -1.8115 -1.7689 -1.8441
   49MOL    H8327059   0.796   7.047   3.628 -0.7586 -2.4587  0.5157
   49MOL    H8427060   1.091   6.857   3.395  0.7776  0.5149  0.3388
   49MOL    H8527061   0.986   6.962   3.184  0.2475 -0.0481 -0.3487
   49MOL    O8627062   0.964   6.921   3.759 -0.4227  0.1710  0.4249
   49MOL    C8727063   1.008   6.877   3.883  0.3581  0.7734  0.8433
   49MOL    C8827064   0.884   6.816   3.957  0.1328 -1.7126 -0.2015
   49MOL    C8927065   0.928   6.750   4.078  0.3416  1.1326 -0.6673
   49MOL    C9027066   0.818   6.696   4.170 -0.3116  0.1009 -0.3914
   49MOL    O9127067   0.754   6.591   4.100 -0.1107  0.1332 -0.1886
   49MOL    C9227068   0.684   6.500   4.165  0.6077  0.7040  0.1172
   49MOL    O9327069   0.664   6.506   4.289 -0.4651  0.0265  0.0246
   49MOL    C9427070   0.634   6.386   4.073  0.7504  0.3744 -0.7009
   49MOL    C9527071   0.663   6.380   3.938 -0.1923  0.9702  0.0431
   49MOL    C9627072   0.627   6.268   3.857  0.0021  0.2417  0.0236
   49MOL    C9727073   0.558   6.161   3.911  0.0223 -0.1466 -0.3972
   49MOL    C9827074   0.519   6.032   3.844 -0.0148  0.4487  0.1158
   49MOL    O9927075   0.426   5.956   3.881 -0.0806 -0.7895  0.2759
   49MOL   C10027076   0.523   6.166   4.044 -0.0165 -0.2779  0.3736
   49MOL   C10127077   0.561   6.274   4.122 -0.2980 -0.4928  0.2195
   49MOL   H10227078   1.074   6.791   3.878  0.1315  0.5891  0.9831
   49MOL   H10327079   1.052   6.962   3.935  1.3810  0.6835  0.1297
   49MOL   H10427080   0.844   6.736   3.894  0.7780 -2.9011  0.8698
   49MOL   H10527081   0.814   6.896   3.982  3.8713  1.4974  0.4489
   49MOL   H10627082   0.991   6.666   4.050  0.6332  1.7570 -1.8960
   49MOL   H10727083   0.982   6.821   4.141  0.4159  0.5875 -0.1101
   49MOL   H10827084   0.853   6.676   4.272 -0.6838 -1.3877 -0.5494
   49MOL   H10927085   0.736   6.768   4.178 -0.5555 -0.3913  1.9541
   49MOL   H11027086   0.717   6.462   3.894 -0.0577  0.2987 -1.0443
   49MOL   H11127087   0.670   6.265   3.758  1.0395  0.8694  0.4516
   49MOL   H11227088   0.471   6.086   4.093 -2.1391 -0.0205 -1.4179
   49MOL   H11327089   0.552   6.268   4.230 -0.1949  2.9320  0.4625
   49MOL   O11427090   0.604   6.006   3.746  0.7258  0.0725 -0.1408
   49MOL   C11527091   0.596   5.872   3.692  0.5366 -0.3285 -0.1979
   49MOL   C11627092   0.643   5.859   3.542  0.3181 -0.5130 -0.5464
   49MOL   C11727093   0.791   5.887   3.513  0.1838 -0.6801 -0.3069
   49MOL   C11827094   0.839   6.036   3.516 -0.5594  0.2285  0.3359
   49MOL   O11927095   0.904   6.061   3.642  0.6310  0.1957  0.1914
   49MOL   C12027096   0.955   6.186   3.662 -0.6427 -0.5967  0.1174
   49MOL   O12127097   0.982   6.261   3.566 -0.6902 -0.1312 -0.0698
   49MOL   C12227098   0.983   6.219   3.811  0.5347  0.1220  0.5125
   49MOL   C12327099   0.942   6.137   3.918  0.0115 -0.5715  0.6309
   49MOL   C12427100   0.966   6.174   4.054  0.3171  0.2660 -0.2159
   49MOL   C12527101   1.032   6.296   4.084 -0.9239  0.3184  0.0623
   49MOL   C12627102   1.050   6.350   4.224 -0.0309  0.2028 -0.4539
   49MOL   O12727103   1.065   6.467   4.252  0.2642  0.0591 -0.3586
   49MOL   C12827104   1.068   6.379   3.972  0.0872 -0.2263 -0.1402
   49MOL   C12927105   1.055   6.333   3.840 -0.4183 -0.5627 -0.4308
   49MOL   H13027106   0.642   5.796   3.755 -1.0753 -1.9512 -0.9136
   49MOL   H13127107   0.496   5.828   3.697  0.0708  0.8345  0.8534
   49MOL   H13227108   0.596   5.929   3.474 -0.3328 -0.9766 -0.5747
   49MOL   H13327109   0.617   5.758   3.509 -0.3743 -0.4449 -0.2146
   49MOL   H13427110   0.862   5.832   3.575 -0.5817 -0.1793  1.0373
   49MOL   H13527111   0.802   5.850   3.411 -0.6315 -1.3593 -0.1587
   49MOL   H13627112   0.918   6.049   3.442 -0.7608  2.0149  0.4302
   49MOL   H13727113   0.772   6.118   3.492 -1.8185 -1.0438 -0.6172
   49MOL   H13827114   0.892   6.043   3.897 -0.3017 -0.2154 -0.2317
   49MOL   H13927115   0.932   6.113   4.137  1.4781  0.4693  0.4104
   49MOL   H14027116   1.113   6.475   3.990  0.8227 -0.2976 -1.5079
   49MOL   H14127117   1.086   6.395   3.758  0.7804 -0.7032 -0.0963
   49MOL   O14227118   1.028   6.251   4.312 -0.5030 -0.0368  0.0845
   49MOL   C14327119   0.998   6.274   4.446 -0.5750 -0.0234 -0.2913
   49MOL   C14427120   0.911   6.163   4.506 -0.5174 -0.8643  0.6035
   49MOL   C14527121   0.770   6.180   4.462  0.8569 -0.2989  0.0042
   49MOL   C14627122   0.671   6.127   4.561 -0.5701  0.5303  0.9910
   49MOL   O14727123   0.555   6.090   4.508  0.3114 -0.2628  0.3758
   49MOL   C14827124   0.443   6.105   4.575 -0.1713 -0.2347 -0.7162
   49MOL   O14927125   0.435   6.129   4.697 -0.3521  0.2228 -0.6426
   49MOL   C15027126   0.317   6.096   4.491  0.2774 -0.1625  0.0185
   49MOL   C15127127   0.325   6.077   4.351 -0.7065  0.2947  0.1976
   49MOL   C15227128   0.208   6.066   4.270 -0.0772  0.1143  0.7263
   49MOL   C15327129   0.089   6.055   4.335  0.0198 -0.1973  0.5617
   49MOL   C15427130   8.064   6.024   4.260 -0.7404 -0.4689 -0.1109
   49MOL   O15527131   7.952   6.018   4.317  0.1784  0.4838  0.0535
   49MOL   C15627132   0.075   6.061   4.475  0.2689 -0.9415 -0.5257
   49MOL   C15727133   0.188   6.080   4.552  0.2499 -0.3960 -0.0921
   49MOL   H15827134   1.091   6.283   4.501 -0.9987  2.3624  0.1121
   49MOL   H15927135   0.943   6.367   4.464 -0.7510 -0.3261  0.7531
   49MOL   H16027136   0.918   6.176   4.614 -3.6217 -0.1096  0.7589
   49MOL   H16127137   0.957   6.067   4.484 -2.5485 -2.2637  2.3124
   49MOL   H16227138   0.734   6.281   4.439  0.7925 -0.5345 -0.9491
   49MOL   H16327139   0.753   6.137   4.363 -1.1792  0.1268  0.1412
   49MOL   H16427140   0.713   6.046   4.620 -1.3196 -2.3904 -2.3208
   49MOL   H16527141   0.664   6.198   4.644  1.2382 -0.8081  2.3176
   49MOL   H16627142   0.424   6.074   4.308 -0.3263 -1.4101  1.1576
   49MOL   H16727143   0.229   6.077   4.164 -0.5900 -2.1946  0.3607
   49MOL   H16827144   8.081   6.053   4.531  1.5511 -1.6769  1.5395
   49MOL   H16927145   0.193   6.082   4.660  2.1614 -1.5359 -0.1463
   49MOL   O17027146   8.089   6.011   4.129 -0.1722 -0.3080 -0.3608
   49MOL   C17127147   7.990   5.960   4.045  0.3451  0.1982  0.7297
   49MOL   C17227148   8.061   5.877   3.938 -0.2592  0.0731 -0.5551
   49MOL   C17327149   0.049   5.960   3.848 -0.6264  0.3877 -0.1203
   49MOL   C17427150   0.141   5.882   3.750  0.7304  1.1097 -0.2077
   49MOL   O17527151   0.064   5.818   3.648  0.2120 -0.9120 -0.0907
   49MOL   C17627152   0.122   5.770   3.538 -0.7546 -0.3484 -0.2481
   49MOL   O17727153   0.243   5.778   3.511 -1.0527 -0.1307 -0.5085
   49MOL   C17827154   0.026   5.694   3.453  0.2302 -0.8024  0.1331
   49MOL   C17927155   7.988   5.674   3.482 -0.6111 -0.3152 -0.0972
   49MOL   C18027156   7.905   5.603   3.393 -0.0925 -0.8142 -0.4760
   49MOL   C18127157   7.961   5.545   3.275 -1.0642 -0.3018  0.0979
   49MOL   C18227158   7.886   5.468   3.175 -0.5150  0.6660 -0.0018
   49MOL   O18327159   7.947   5.413   3.083 -0.0016 -0.3108 -0.1783
   49MOL   C18427160   0.001   5.571   3.247 -0.7754  0.2894 -0.4800
   49MOL   C18527161   0.084   5.642   3.336  0.8765  0.0616  0.0436
   49MOL   H18627162   7.927   5.892   4.101  1.8627 -2.7548 -1.0297
   49MOL   H18727163   7.922   6.028   3.994  2.6180  2.4642  0.6437
   49MOL   H18827164   7.980   5.825   3.887  0.5077 -1.4352 -0.2587
   49MOL   H18927165   0.024   5.805   3.992  3.6229  1.9171 -2.3289
   49MOL   H19027166   8.078   6.015   3.785 -0.3608  2.6095  1.4491
   49MOL   H19127167   0.110   6.034   3.900 -0.4306 -0.0513  0.2804
   49MOL   H19227168   0.208   5.955   3.703 -0.7124  1.6495 -1.4651
   49MOL   H19327169   0.203   5.810   3.804  0.0471  1.4697  1.0773
   49MOL   H19427170   7.937   5.726   3.562  0.2585 -1.0437  0.9656
   49MOL   H19527171   7.801   5.609   3.420  0.8702  2.3783  2.8805
   49MOL   H19627172   0.046   5.537   3.154  1.8692  0.7845  0.5620
   49MOL   H19727173   0.180   5.670   3.296  0.6749  1.8038  0.7117
   49MOL   O19827174   7.754   5.470   3.191  0.3731  0.5279  0.2310
   49MOL   C19927175   7.665   5.416   3.099 -0.3033 -0.3521 -0.1555
   49MOL   C20027176   7.517   5.442   3.132  0.2885  0.0418 -0.0982
   49MOL   C20127177   7.495   5.595   3.146  0.3112  0.0442 -0.4022
   49MOL   C20227178   7.352   5.648   3.106 -0.7189 -0.1873  0.0513
   49MOL   O20327179   7.261   5.568   3.173 -0.5404 -0.0995  0.1333
   49MOL   C20427180   7.127   5.578   3.140  0.4746  0.5028  0.4189
   49MOL   O20527181   7.083   5.667   3.072 -0.5223 -0.5889  0.3130
   49MOL   C20627182   7.034   5.468   3.202 -0.1905 -0.2412  0.1527
   49MOL   C20727183   6.890   5.481   3.194 -0.6514  0.0423  0.3725
   49MOL   C20827184   6.806   5.404   3.278  0.8717  0.0289  0.2671
   49MOL   C20927185   6.857   5.290   3.339 -0.4897  0.3860 -0.1128
   49MOL   C21027186   6.755   5.199   3.401  0.2543 -0.6880 -0.3607
   49MOL   O21127187   6.637   5.233   3.424  0.8777 -0.5412 -0.1414
   49MOL   C21227188   6.999   5.269   3.343 -0.2416 -0.0900 -0.5715
   49MOL   C21327189   7.088   5.356   3.271  0.5811 -0.2030  0.2365
   49MOL   H21427190   7.689   5.464   3.004  1.0090  1.1821  0.9331
   49MOL   H21527191   7.679   5.308   3.086 -2.6124 -0.6849 -0.1647
   49MOL   H21627192   7.478   5.387   3.218 -0.2420  0.5476 -0.0180
   49MOL   H21727193   7.455   5.404   3.050 -0.1403  1.7849 -0.5989
   49MOL   H21827194   7.502   5.636   3.247  0.6659  0.8237 -0.7385
   49MOL   H21927195   7.564   5.649   3.081  1.7079 -0.2468  0.8071
   49MOL   H22027196   7.346   5.752   3.138 -1.5411 -0.1100 -0.3300
   49MOL   H22127197   7.341   5.631   2.999  3.3764 -0.0233 -0.4629
   49MOL   H22227198   6.856   5.565   3.134  0.3451  0.3214  0.1761
   49MOL   H22327199   6.700   5.421   3.288  1.0354 -0.2272  2.6187
   49MOL   H22427200   7.028   5.171   3.379  0.3696 -0.1467 -1.2189
   49MOL   H22527201   7.192   5.333   3.254  0.1065 -2.1997  0.0032
   49MOL   O22627202   6.808   5.079   3.444 -0.0052 -0.1834  0.6472
   49MOL   C22727203   6.726   4.984   3.506  0.5622 -1.0898 -0.2993
   49MOL   C22827204   6.640   4.897   3.410 -0.1021  0.7269 -0.5440
   49MOL   C22927205   6.739   4.816   3.321 -0.3367 -0.0505 -0.5491
   49MOL   C23027206   6.764   4.888   3.192  0.3484 -0.6514  0.8678
   49MOL   O23127207   6.845   4.805   3.103  0.6032  0.7693  0.2050
   49MOL   C23227208   6.872   4.865   2.978 -1.4599  0.2820  0.2437
   49MOL   O23327209   6.843   4.981   2.952 -0.2007  0.5801  0.7709
   49MOL   C23427210   6.950   4.777   2.885  0.4552  0.3377  0.2527
   49MOL   C23527211   6.967   4.637   2.910  0.1797 -0.6315 -0.5222
   49MOL   C23627212   7.039   4.557   2.818  0.5478 -0.0574  0.2562
   49MOL   C23727213   7.109   4.615   2.706  0.2957 -0.0611  0.5480
   49MOL   C23827214   7.170   4.533   2.596  0.2239  0.7058 -0.0121
   49MOL   O23927215   7.136   4.417   2.568  0.0555  0.4110  0.6046
   49MOL   C24027216   7.106   4.756   2.690  0.0297 -0.6684 -0.3023
   49MOL   C24127217   7.013   4.834   2.772  0.5770 -0.2542 -0.1989
   49MOL   H24227218   6.797   4.920   3.558  0.3940 -1.6109 -0.7053
   49MOL   H24327219   6.670   5.029   3.588  0.0046 -0.6779 -0.8961
   49MOL   H24427220   6.574   4.963   3.354 -0.8791 -0.3592 -0.9351
   49MOL   H24527221   6.584   4.825   3.470 -1.1594  1.1077 -1.0637
   49MOL   H24627222   6.834   4.799   3.373 -0.2518 -0.0973 -0.7189
   49MOL   H24727223   6.701   4.717   3.299 -0.7364  0.6058 -2.8516
   49MOL   H24827224   6.674   4.913   3.136  2.5602  0.4570 -2.3332
   49MOL   H24927225   6.806   4.988   3.204 -0.4363 -0.2943  0.6841
   49MOL   H25027226   6.906   4.587   2.983  0.1397  0.3124  0.1026
   49MOL   H25127227   7.032   4.450   2.830 -0.8505  0.0316  0.3876
   49MOL   H25227228   7.152   4.812   2.610  0.1369  2.8686  2.0910
   49MOL   H25327229   7.006   4.939   2.752  0.4437 -0.4657 -1.3083
   49MOL   O25427230   7.268   4.596   2.530  0.1476  0.6106  0.1064
   49MOL   C25527231   7.354   4.528   2.441  0.6722 -0.2584 -0.2656
   49MOL   C25627232   7.450   4.634   2.387  0.1997 -0.5569  0.2912
   49MOL   C25727233   7.515   4.716   2.501  0.0982  0.0488  0.8923
   49MOL   C25827234   7.618   4.633   2.583  0.3555  0.3609  0.5509
   49MOL   O25927235   7.613   4.673   2.720 -0.2939 -0.1363  0.3738
   49MOL   C26027236   7.681   4.606   2.812 -0.0132  0.7260  0.1390
   49MOL   O26127237   7.740   4.499   2.787  0.5069 -0.2488  0.0901
   49MOL   C26227238   7.682   4.673   2.945  1.0776  0.8099  0.4001
   49MOL   C26327239   7.659   4.813   2.956  0.0251  0.3118 -0.3404
   49MOL   C26427240   7.661   4.880   3.078  0.0327  0.2051  0.4515
   49MOL   C26527241   7.697   4.805   3.192  0.0161 -0.1201  0.1916
   49MOL   C26627242   7.697   4.860   3.326 -0.7893  0.2466 -0.2396
   49MOL   O26727243   7.732   4.800   3.427 -0.1021  0.5571  0.0455
   49MOL   C26827244   7.709   4.666   3.188  0.3186  0.1025  0.1756
   49MOL   C26927245   7.714   4.601   3.063 -0.1590 -0.0785 -0.2380
   49MOL   H27027246   7.415   4.450   2.485 -1.6454 -0.2225  3.1868
   49MOL   H27127247   7.294   4.480   2.363  0.4288  0.7486 -0.7151
   49MOL   H27227248   7.383   4.698   2.330 -0.4809 -0.8448  0.7745
   49MOL   H27327249   7.530   4.594   2.323 -0.5261  0.7312 -1.4359
   49MOL   H27427250   7.570   4.797   2.454  1.0166 -2.5111 -2.6285
   49MOL   H27527251   7.440   4.751   2.572 -0.4878  2.7538 -1.0152
   49MOL   H27627252   7.605   4.529   2.553 -0.0976  0.5675  0.0126
   49MOL   H27727253   7.714   4.668   2.544 -0.5131 -1.1763 -3.1480
   49MOL   H27827254   7.639   4.872   2.868  1.1487  1.2746  0.0354
   49MOL   H27927255   7.660   4.988   3.068 -0.2221  0.4070  2.5217
   49MOL   H28027256   7.718   4.611   3.280 -3.1060  0.1407  0.5799
   49MOL   H28127257   7.732   4.494   3.061 -1.4582 -0.3990  2.4420
   49MOL   O28227258   7.648   4.983   3.330 -0.1304 -0.8075 -0.1686
   49MOL   C28327259   7.617   5.042   3.449  0.6263  0.5272 -0.2928
   49MOL   C28427260   7.514   5.162   3.440 -0.1203 -0.4126 -0.2824
   49MOL   C28527261   7.502   5.254   3.556  0.6381 -0.3786 -0.0415
   49MOL   C28627262   7.629   5.337   3.591 -0.3209  0.3570 -0.0875
   49MOL   O28727263   7.610   5.418   3.714  0.0762 -0.0556 -0.3658
   49MOL   C28827264   7.722   5.470   3.783 -0.0411  0.0429  0.9058
   49MOL   O28927265   7.828   5.475   3.722 -0.2838  0.1510 -0.3486
   49MOL   C29027266   7.689   5.527   3.921  0.1495  0.2554  0.2167
   49MOL   C29127267   7.571   5.481   3.985 -0.4243  0.3818  0.1335
   49MOL   C29227268   7.533   5.546   4.103  0.0963  0.4995 -0.3356
   49MOL   C29327269   7.612   5.647   4.163 -0.5445 -0.2120  0.7605
   49MOL   C29427270   7.578   5.715   4.292 -0.2882 -0.5053  0.1431
   49MOL   O29527271   7.652   5.798   4.353  0.2857  0.1063 -0.3460
   49MOL   C29627272   7.732   5.694   4.096  0.0827 -0.5005  0.4150
   49MOL   C29727273   7.766   5.627   3.978 -0.0446  0.0477 -0.3954
   49MOL   H29827274   7.572   4.983   3.529 -1.3322  0.5026 -1.3952
   49MOL   H29927275   7.711   5.081   3.487 -0.0180  1.6675  0.1597
   49MOL   H30027276   7.411   5.132   3.420  0.8027 -2.6995 -1.8395
   49MOL   H30127277   7.543   5.205   3.344 -1.1053 -0.7963 -0.7614
   49MOL   H30227278   7.422   5.328   3.546  0.6279 -0.1164  1.7901
   49MOL   H30327279   7.482   5.197   3.647 -0.0380 -2.6648 -1.5906
   49MOL   H30427280   7.718   5.278   3.612 -0.2274 -0.0883 -1.6473
   49MOL   H30527281   7.653   5.407   3.511  1.8208 -0.3791 -0.1326
   49MOL   H30627282   7.504   5.404   3.948 -0.7277  0.5590  0.3105
   49MOL   H30727283   7.438   5.533   4.152  1.0951 -2.2534  0.9695
   49MOL   H30827284   7.781   5.783   4.131  1.2022 -1.6182  1.7242
   49MOL   H30927285   7.858   5.640   3.923 -0.0850 -0.4522 -0.5767
   49MOL   O31027286   7.455   5.684   4.346  0.0710  0.4061  0.2605
   49MOL   C31127287   7.425   5.730   4.475 -0.2040 -0.9827 -0.4445
   49MOL   C31227288   7.283   5.694   4.523  0.5187 -0.7679  0.1460
   49MOL   C31327289   7.160   5.734   4.438 -0.0447 -0.3806 -0.0924
   49MOL   C31427290   7.113   5.876   4.463  0.3087  0.0673 -0.1101
   49MOL   O31527291   7.206   5.966   4.412  0.1643  0.4847 -0.2834
   49MOL   C31627292   7.212   6.093   4.444 -0.8579 -1.1436  0.0402
   49MOL   O31727293   7.113   6.143   4.497 -0.3241  0.2009 -0.1719
   49MOL   C31827294   7.334   6.162   4.411  0.4694  0.0611 -0.1532
   49MOL   C31927295   7.358   6.290   4.468  0.2043 -0.5949 -0.8079
   49MOL   C32027296   7.484   6.351   4.460  0.8543 -0.2067  0.0446
   49MOL   C32127297   7.585   6.292   4.381 -0.2938  0.1266 -0.5338
   49MOL   C32227298   7.707   6.372   4.335  0.1455 -0.1171  1.1798
   49MOL   O32327299   7.750   6.471   4.398  0.2028 -0.0370  0.4163
   49MOL   C32427300   7.569   6.164   4.324 -0.4389 -0.2854 -0.0248
   49MOL   C32527301   7.442   6.097   4.343  0.9001  0.0881  0.2748
   49MOL   H32627302   7.498   5.707   4.552 -1.4825  0.0432  1.1101
   49MOL   H32727303   7.433   5.839   4.472 -1.2218 -0.9031 -0.6267
   49MOL   H32827304   7.265   5.731   4.623 -0.0430 -1.0128  0.1348
   49MOL   H32927305   7.281   5.586   4.538  0.5988 -0.5358  1.8816
   49MOL   H33027306   7.184   5.726   4.332  0.7762  1.2403 -0.0317
   49MOL   H33127307   7.078   5.665   4.457 -1.2281  0.2368 -2.7153
   49MOL   H33227308   7.013   5.893   4.423  0.6250  1.3683 -0.3819
   49MOL   H33327309   7.085   5.880   4.568  0.2156  0.3542 -0.1467
   49MOL   H33427310   7.286   6.347   4.524  1.8865  0.8138 -0.0261
   49MOL   H33527311   7.495   6.450   4.502  1.5105  0.2448 -1.1684
   49MOL   H33627312   7.642   6.108   4.267  1.1654  2.7684 -1.0932
   49MOL   H33727313   7.447   5.995   4.308  0.1798  0.1341  0.0302
   49MOL   O33827314   7.746   6.334   4.212 -0.6616 -0.0160 -0.4211
   49MOL   C33927315   7.865   6.386   4.163 -0.6254  0.1591 -0.5372
   49MOL   C34027316   7.838   6.508   4.074 -0.1476  0.1525  0.2803
   49MOL   C34127317   7.725   6.495   3.961  0.4800 -0.4268  0.1846
   49MOL   C34227318   7.754   6.379   3.866 -0.1593 -0.1038  0.2956
   49MOL   O34327319   7.674   6.267   3.905  0.3194 -0.6045  0.5132
   49MOL   C34427320   7.709   6.140   3.863  0.0844  0.2284  0.3687
   49MOL   O34527321   7.821   6.121   3.808  0.6379  0.0710  0.4092
   49MOL   C34627322   7.613   6.033   3.890  0.8174  0.3768 -0.1245
   49MOL   C34727323   7.513   6.042   3.993 -0.2854 -0.0451  0.7439
   49MOL   C34827324   7.413   5.949   4.010  0.6348 -0.4569  0.2873
   49MOL   C34927325   7.411   5.838   3.924  0.1297  0.9332  0.5568
   49MOL   C35027326   7.289   5.755   3.933  0.7396 -0.3951  0.1678
   49MOL   O35127327   7.202   5.776   4.014  0.1325 -0.3979 -0.7091
   49MOL   C35227328   7.512   5.812   3.831 -0.6199 -0.3213 -0.2416
   49MOL   C35327329   7.614   5.910   3.817 -0.4877 -0.6321 -0.8206
   49MOL   H35427330   7.946   6.400   4.234 -0.8165  2.3933 -0.7246
   49MOL   H35527331   7.899   6.305   4.098  2.1545  0.3897  0.5801
   49MOL   H35627332   7.937   6.528   4.032 -1.1122  0.8578 -1.7369
   49MOL   H35727333   7.807   6.588   4.142 -0.4045  0.0654  0.2653
   49MOL   H35827334   7.638   6.479   4.025 -0.9238  4.4525 -0.2979
   49MOL   H35927335   7.721   6.591   3.909  1.6635  0.0832  1.0263
   49MOL   H36027336   7.723   6.406   3.766  0.3231  0.3527  0.2638
   49MOL   H36127337   7.862   6.359   3.864 -0.0516  0.5464 -0.6829
   49MOL   H36227338   7.503   6.137   4.042 -0.6516  0.1127  0.3626
   49MOL   H36327339   7.329   5.970   4.073  2.0901  2.0202  1.4575
   49MOL   H36427340   7.508   5.721   3.774  2.3239 -0.2363 -0.6687
   49MOL   H36527341   7.688   5.900   3.739  0.6493 -0.7496  0.2711
   49MOL   O36627342   7.290   5.654   3.839 -0.3136 -0.3700 -0.0689
   49MOL   C36727343   7.173   5.581   3.828  1.1971 -0.6167  0.4414
   49MOL   C36827344   7.122   5.584   3.680 -0.2936  0.8690 -0.4266
   49MOL   C36927345   7.225   5.578   3.576 -0.7028  0.2546  0.3005
   49MOL   C37027346   7.225   5.704   3.485 -0.0694  1.1535 -0.3834
   49MOL   O37127347   7.252   5.818   3.562  0.0792  0.6557 -0.1793
   49MOL   C37227348   7.364   5.900   3.528  0.2629 -0.7234  0.4463
   49MOL   O37327349   7.459   5.867   3.454 -0.5578  0.2443 -0.2686
   49MOL   C37427350   7.357   6.027   3.604  0.1639 -0.7517  0.0482
   49MOL   C37527351   7.252   6.068   3.693  0.2363 -0.7721  0.1042
   49MOL   C37627352   7.242   6.199   3.753 -0.1010 -0.1824 -0.5335
   49MOL   C37727353   7.349   6.291   3.736  0.3386 -0.6160  0.2208
   49MOL   C37827354   7.365   6.422   3.810 -0.0650 -0.5115  0.1073
   49MOL   O37927355   7.434   6.517   3.769  0.3167 -0.6786  0.0108
   49MOL   C38027356   7.461   6.244   3.655  0.2711 -0.3472  0.5674
   49MOL   C38127357   7.463   6.124   3.583  0.1607  0.6230  0.5154
   49MOL   H38227358   7.203   5.480   3.854 -1.2131 -1.6145 -0.5416
   49MOL   H38327359   7.091   5.613   3.892  0.9530 -3.1210  1.3991
   49MOL   H38427360   7.054   5.668   3.662 -1.1793  0.4104  0.7382
   49MOL   H38527361   7.060   5.496   3.665 -0.1329  0.6956 -0.0715
   49MOL   H38627362   7.325   5.565   3.617 -0.8263 -1.8136  0.0440
   49MOL   H38727363   7.197   5.493   3.514  1.5789 -0.2962 -0.0127
   49MOL   H38827364   7.285   5.683   3.397 -0.5675 -1.1940 -0.2155
   49MOL   H38927365   7.124   5.716   3.447 -0.2764  1.3511  0.2254
   49MOL   H39027366   7.165   6.007   3.712  0.7912 -2.1213 -1.5654
   49MOL   H39127367   7.152   6.219   3.810  0.3561  0.6205 -0.0819
   49MOL   H39227368   7.540   6.318   3.653 -0.7642  0.7803  0.8398
   49MOL   H39327369   7.545   6.107   3.515 -0.9627  0.4206 -0.8250
   49MOL   O39427370   7.295   6.428   3.924  0.3889  0.3071 -0.0481
   49MOL   C39527371   7.292   6.537   4.014  0.8785  0.0636  0.3954
   49MOL   C39627372   7.352   6.502   4.148  0.5385  0.0427 -0.2680
   49MOL   C39727373   7.391   6.626   4.229  0.1629  0.1227  0.0649
   49MOL   C39827374   7.515   6.699   4.185 -0.3956 -0.9198  0.4052
   49MOL   O39927375   7.549   6.818   4.262  0.5661 -0.0315 -0.6822
   49MOL   C40027376   7.648   6.906   4.224  0.3006  0.4572 -1.2340
   49MOL   O40127377   7.722   6.892   4.129 -0.0180 -0.6762 -0.3617
   49MOL   C40227378   7.652   7.028   4.311  0.4353  0.0094  0.6155
   49MOL   C40327379   7.561   7.031   4.419  0.4729  0.6500  0.5086
   49MOL   C40427380   7.571   7.143   4.501  0.1000  0.2433  0.1893
   49MOL   C40527381   7.648   7.253   4.467 -0.2043  0.3171  0.3204
   49MOL   C40627382   7.640   7.385   4.547 -0.0280 -0.2169 -0.1449
   49MOL   O40727383   7.547   7.400   4.630  0.4429  0.0656 -0.0062
   49MOL   C40827384   7.745   7.238   4.374  0.5235  0.6708  1.1913
   49MOL   C40927385   7.751   7.125   4.291  0.1943 -0.0194  0.3372
   49MOL   H41027386   7.358   6.614   3.975  0.2162  1.0103  1.1191
   49MOL   H41127387   7.190   6.570   4.037  1.8745  2.1295  1.9874
   49MOL   H41227388   7.446   6.452   4.126  0.9134  0.2431  0.8251
   49MOL   H41327389   7.285   6.428   4.191  1.0555  0.0634  0.5863
   49MOL   H41427390   7.306   6.694   4.228 -0.6377 -0.6630  4.1030
   49MOL   H41527391   7.383   6.600   4.335 -2.0629 -0.5379 -0.2242
   49MOL   H41627392   7.602   6.633   4.182  1.3799  1.4166 -1.8313
   49MOL   H41727393   7.504   6.728   4.081  3.3457  0.1813  0.2715
   49MOL   H41827394   7.486   6.958   4.445  0.2847  0.6149 -0.1327
   49MOL   H41927395   7.504   7.157   4.585  0.9906 -2.0685  1.3336
   49MOL   H42027396   7.822   7.312   4.357  0.3933  0.1184 -2.2352
   49MOL   H42127397   7.826   7.115   4.214 -1.8191  0.8802 -1.8130
   49MOL   O42227398   7.720   7.488   4.510 -0.0515 -0.3414 -0.1028
   49MOL   C42327399   7.696   7.613   4.577 -0.5587  0.6807 -0.5898
   49MOL   C42427400   7.829   7.688   4.581  0.0064  0.5975 -0.7244
   49MOL   C42527401   7.894   7.702   4.439 -0.4392 -0.1590  0.4865
   49MOL   C42627402   8.033   7.772   4.434  0.0677  0.7707  0.0385
   49MOL   O42727403   8.054   7.831   4.306  0.1233  0.0769  0.4377
   49MOL   C42827404   0.076   7.879   4.273  0.2815  0.2065 -0.4628
   49MOL   O42927405   0.176   7.865   4.339  0.0277  0.1163 -0.3028
   49MOL   C43027406   0.075   7.969   4.150 -0.1395  0.7370  0.9851
   49MOL   C43127407   8.056   7.978   4.067 -0.1271 -0.3275  0.2101
   49MOL   C43227408   8.069   8.054   3.949  0.0592 -0.3052 -0.6250
   49MOL   C43327409   0.084   0.025   3.907 -0.2243 -0.8019  0.0897
   49MOL   C43427410   0.085   0.117   3.791 -0.5033  0.9687 -0.5543
   49MOL   O43527411   0.189   0.146   3.733 -0.0992 -0.0211  0.4008
   49MOL   C43627412   0.202   0.010   3.986  0.1188 -0.5644 -0.6017
   49MOL   C43727413   0.195   8.037   4.107 -0.0242 -0.6337  0.5331
   49MOL   H43827414   7.620   7.681   4.537 -2.0350  0.5250  1.8645
   49MOL   H43927415   7.666   7.603   4.681  2.3134  1.9583  0.4242
   49MOL   H44027416   7.894   7.634   4.650 -2.6088  0.4054  1.6471
   49MOL   H44127417   7.814   7.790   4.616  0.3383 -0.3703  2.3326
   49MOL   H44227418   7.908   7.602   4.400 -0.0955  0.3388 -0.6822
   49MOL   H44327419   7.826   7.767   4.384 -0.4069 -0.5671 -0.0264
   49MOL   H44427420   8.032   7.851   4.509  0.0580 -0.4543  1.3446
   49MOL   H44527421   0.012   7.711   4.481  0.4950  2.1633  1.1647
   49MOL   H44627422   7.963   7.937   4.103 -0.8978 -0.4492 -1.8797
   49MOL   H44727423   7.975   8.070   3.899 -0.0383 -0.8627 -0.6326
   49MOL   H44827424   0.293   0.054   3.947  0.2957  0.5206  1.0091
   49MOL   H44927425   0.280   8.036   4.173 -1.2984  1.1550  2.2436
   49MOL   O45027426   8.063   0.157   3.759  0.3124  0.0445  0.2614
   49MOL   C45127427   8.043   0.222   3.636  0.2127  0.3532  0.7904
   49MOL   C45227428   7.918   0.168   3.576 -0.2350 -0.1198 -0.3287
   49MOL   C45327429   7.937   0.018   3.531  0.4966 -0.2200  0.3113
   49MOL   C45427430   7.807   8.039   3.491  0.1235  0.6968  0.0566
   49MOL   O45527431   7.714   8.003   3.595 -0.2164  0.7076  0.3646
   49MOL   C45627432   7.592   8.056   3.605  0.5508 -0.1492 -0.3782
   49MOL   O45727433   7.566   0.060   3.554  0.3916 -0.0844 -0.3085
   49MOL   C45827434   7.482   7.989   3.692 -0.0081 -0.1558 -0.2050
   49MOL   C45927435   7.503   7.867   3.756  0.6066 -0.1794 -0.2684
   49MOL   C46027436   7.401   7.801   3.827  0.6493 -0.5019 -0.3259
   49MOL   C46127437   7.277   7.863   3.844  0.3024  0.7887 -0.4273
   49MOL   C46227438   7.178   7.790   3.930  0.2350  0.2531  0.3711
   49MOL   O46327439   7.205   7.698   4.007 -0.0972  0.1157 -0.4732
   49MOL   C46427440   7.251   7.979   3.776  0.6790  0.2932  0.4283
   49MOL   C46527441   7.351   8.044   3.700 -0.3029 -0.1603  0.1195
   49MOL   H46627442   8.042   0.330   3.652  1.7898  0.4352  0.3372
   49MOL   H46727443   0.025   0.197   3.568  0.4730 -1.1360  1.6287
   49MOL   H46827444   7.893   0.235   3.494 -1.6729 -0.3795 -0.1252
   49MOL   H46927445   7.831   0.177   3.641 -1.0169  2.5180 -1.6757
   49MOL   H47027446   8.003   0.030   3.445  1.4945  0.2537  1.1315
   49MOL   H47127447   8.000   8.053   3.592  0.0158 -0.5262  0.4905
   49MOL   H47227448   7.759   8.086   3.405  0.9369  1.7197  0.1477
   49MOL   H47327449   7.836   7.949   3.438  0.8777  0.5312  0.7499
   49MOL   H47427450   7.599   7.824   3.733 -0.3213 -1.1196 -2.4860
   49MOL   H47527451   7.428   7.704   3.866 -1.3639 -1.1826 -0.5758
   49MOL   H47627452   7.162   8.038   3.792  1.6533  1.5939  1.1810
   49MOL   H47727453   7.338   0.038   3.645  2.4812  0.8113  1.0465
   49MOL   O47827454   7.054   7.835   3.916  0.3054  0.9564 -0.4630
   49MOL   C47927455   6.952   7.774   4.002  1.3923  0.4834 -0.6904
   49MOL   C48027456   6.819   7.852   3.998 -0.3531 -0.3117  0.2748
   49MOL   C48127457   6.759   7.848   3.858  0.1006  0.2300  0.1302
   49MOL   C48227458   6.606   7.860   3.866  0.3457  0.1740 -0.4204
   49MOL   O48327459   6.550   7.732   3.901 -0.5141  0.4727  0.0193
   49MOL   C48427460   6.427   7.691   3.859  1.4651  0.3030  0.4468
   49MOL   O48527461   6.356   7.767   3.793  0.0447  0.5367 -0.4383
   49MOL   C48627462   6.394   7.553   3.904  0.9305 -0.2690  0.1118
   49MOL   C48727463   6.272   7.484   3.865 -0.0545 -0.1298  0.4426
   49MOL   C48827464   6.239   7.353   3.920 -0.4251 -0.1607  0.3170
   49MOL   C48927465   6.331   7.287   4.000 -0.2435  0.0985  0.3042
   49MOL   C49027466   6.295   7.150   4.054  0.7808 -0.2544 -0.6461
   49MOL   O49127467   6.347   7.094   4.147 -0.2636  0.2490 -0.5888
   49MOL   C49227468   6.456   7.347   4.025 -0.0041 -0.1245  0.0846
   49MOL   C49327469   6.488   7.480   3.979  0.2583 -0.0701 -0.9919
   49MOL   H49427470   6.932   7.676   3.958  1.5498  0.1666 -0.0668
   49MOL   H49527471   6.980   7.743   4.103 -0.2544  0.1810 -0.3093
   49MOL   H49627472   6.836   7.953   4.036  2.5487 -1.1398  1.2802
   49MOL   H49727473   6.748   7.814   4.073 -1.3765 -0.6133 -0.8294
   49MOL   H49827474   6.804   7.926   3.796 -3.9141  2.1896 -0.4505
   49MOL   H49927475   6.784   7.753   3.810 -0.3688 -0.0255  0.3953
   49MOL   H50027476   6.577   7.932   3.943 -2.9045 -2.8834  1.3596
   49MOL   H50127477   6.569   7.893   3.769  1.0610  0.3661 -0.6293
   49MOL   H50227478   6.194   7.535   3.811  1.8866  1.5383 -0.8255
   49MOL   H50327479   6.144   7.307   3.897 -1.0523  0.1078  2.2216
   49MOL   H50427480   6.523   7.282   4.080 -1.1316  1.1040  2.9965
   49MOL   H50527481   6.584   7.521   4.007  1.6328 -5.6637  3.1595
   49MOL   O50627482   6.196   7.093   3.986 -0.1352  0.7133  0.3562
   49MOL   C50727483   6.187   6.948   3.984 -0.0731  0.3664 -0.3989
   49MOL   C50827484   6.044   6.885   3.956  0.5783 -0.1245 -0.4262
   49MOL   C50927485   6.035   6.734   3.982  0.2689  0.0946  0.5873
   49MOL   C51027486   5.901   6.672   3.942  0.2620  0.4587 -0.2611
   49MOL   O51127487   5.795   6.719   4.023  0.5213  0.1137  0.0309
   49MOL   C51227488   5.777   6.684   4.153 -0.1743  1.1790  0.8856
   49MOL   O51327489   5.855   6.614   4.211 -0.2125  0.5472  0.5703
   49MOL   C51427490   5.649   6.738   4.213  0.7545  0.0556 -0.0924
   49MOL   C51527491   5.539   6.797   4.138  0.5016 -0.0227  0.5277
   49MOL   C51627492   5.422   6.837   4.201 -0.8855  0.0981 -0.7232
   49MOL   C51727493   5.419   6.832   4.342 -0.5832  0.2047 -0.0095
   49MOL   C51827494   5.297   6.886   4.409  0.4778 -0.2515  0.2852
   49MOL   O51927495   5.189   6.906   4.357  0.4643 -0.6440  0.7524
   49MOL   C52027496   5.525   6.779   4.421 -0.6673 -0.0390 -0.4300
   49MOL   C52127497   5.638   6.729   4.356 -0.1553  0.2781  0.0398
   49MOL   H52227498   6.248   6.903   3.905  1.8417  0.2079  1.1442
   49MOL   H52327499   6.213   6.899   4.077  0.6959  1.5667  0.0358
   49MOL   H52427500   6.014   6.890   3.852 -1.0048 -0.0959  0.0144
   49MOL   H52527501   5.964   6.940   4.006  1.6546 -0.8238  2.1735
   49MOL   H52627502   6.113   6.683   3.925  1.5308  2.1752  0.3838
   49MOL   H52727503   6.058   6.722   4.088  1.9323 -3.2559 -0.0998
   49MOL   H52827504   5.874   6.710   3.843 -0.7426 -2.3372 -1.1136
   49MOL   H52927505   5.907   6.564   3.929  0.5339  0.5173 -0.6307
   49MOL   H53027506   5.546   6.803   4.030  0.6907  1.7062  0.6193
   49MOL   H53127507   5.336   6.874   4.148 -0.6372  2.7307  0.6241
   49MOL   H53227508   5.511   6.779   4.528 -0.8943  0.5851 -0.4595
   49MOL   H53327509   5.727   6.690   4.402 -1.0118 -0.8570  0.7705
   49MOL   O53427510   5.324   6.917   4.543  0.0858 -0.2545 -0.0266
   49MOL   C53527511   5.218   6.970   4.623 -0.0871 -0.0668  0.2046
   49MOL   C53627512   5.284   7.052   4.732 -0.5244  0.4494  0.1147
   49MOL   C53727513   5.190   7.118   4.832  0.1259 -0.6557 -0.2933
   49MOL   C53827514   5.268   7.177   4.953  0.6334  0.1464 -0.7597
   49MOL   O53927515   5.289   7.316   4.928 -0.3668 -0.0573  0.0787
   49MOL   C54027516   5.327   7.391   5.030  0.0106  0.2165  0.1560
   49MOL   O54127517   5.351   7.345   5.139  0.2831  0.3653  0.3722
   49MOL   C54227518   5.337   7.540   4.992 -0.2063 -0.0362 -0.0925
   49MOL   C54327519   5.298   7.576   4.857  0.0630 -0.2408 -0.1269
   49MOL   C54427520   5.322   7.706   4.810 -0.0456  0.4894 -0.4454
   49MOL   C54527521   5.368   7.805   4.899  0.2133  0.3370  0.6350
   49MOL   C54627522   5.383   7.947   4.859 -0.3210  0.5862  0.1570
   49MOL   O54727523   5.352   7.988   4.745 -0.2737 -0.5186  0.5338
   49MOL   C54827524   5.398   7.769   5.029 -0.3625  0.3978  0.5914
   49MOL   C54927525   5.379   7.639   5.082 -0.4400 -0.6922 -0.0475
   49MOL   H55027526   5.154   7.037   4.566  1.9463  2.1704  0.4733
   49MOL   H55127527   5.147   6.902   4.670 -0.7917  1.0976  0.8468
   49MOL   H55227528   5.327   7.139   4.684 -0.3387 -0.0901 -0.7093
   49MOL   H55327529   5.367   6.999   4.779  0.6906  3.0056  0.9443
   49MOL   H55427530   5.127   7.197   4.789 -0.3568  0.4270  2.3021
   49MOL   H55527531   5.122   7.052   4.886 -0.8028  1.6428  1.4569
   49MOL   H55627532   5.202   7.171   5.039 -0.4175  0.0052 -1.5501
   49MOL   H55727533   5.349   7.108   4.977  1.3429  0.3459 -2.4676
   49MOL   H55827534   5.266   7.499   4.788 -1.5957 -0.8931  1.3518
   49MOL   H55927535   5.306   7.727   4.705  1.2007  0.5267 -0.6279
   49MOL   H56027536   5.447   7.840   5.095 -1.4950  0.3541  1.5031
   49MOL   H56127537   5.404   7.621   5.186  1.0048 -1.3798 -0.4950
   49MOL   H56227538   5.434   8.009   4.933  0.7092  0.0806 -0.1264
   50MOL     O127539   4.013   6.936   5.868 -0.5090  0.1147 -0.1844
   50MOL     C227540   4.059   6.799   5.881 -0.1832 -0.1678 -0.2110
   50MOL     C327541   4.190   6.797   5.803 -0.0006  0.1765 -0.3219
   50MOL     C427542   4.308   6.886   5.855  0.3269  0.5858 -0.0991
   50MOL     C527543   4.437   6.855   5.790 -0.3847 -0.5110 -0.1593
   50MOL     O627544   4.448   6.860   5.646 -0.5312  0.2401  0.1450
   50MOL     C727545   4.455   6.976   5.580  0.3942  0.0783  0.2328
   50MOL     O827546   4.462   7.088   5.629  0.5535  0.1571 -0.5026
   50MOL     C927547   4.460   6.964   5.427 -0.1793  1.0815 -0.8173
   50MOL    C1027548   4.449   7.083   5.348  0.1539  0.0412 -0.3559
   50MOL    C1127549   4.452   7.068   5.208  0.1801 -0.7934  0.2345
   50MOL    C1227550   4.439   6.940   5.145 -0.4811  0.4209  0.9993
   50MOL    C1327551   4.431   6.924   5.000  0.0276 -0.0883 -0.2575
   50MOL    O1427552   4.443   6.819   4.943  0.1616 -0.6491  0.3566
   50MOL    C1527553   4.447   6.827   5.223  0.4642 -1.0806  0.4846
   50MOL    C1627554   4.466   6.837   5.363  0.1897  0.0615  0.0226
   50MOL    H1727555   4.063   6.777   5.987  0.5854  0.5161 -0.0965
   50MOL    H1827556   3.988   6.732   5.833  0.4539 -1.6223  0.8720
   50MOL    H1927557   4.165   6.807   5.697 -3.3242  2.8133  0.6093
   50MOL    H2027558   4.240   6.700   5.809 -0.7695 -0.1694  0.6637
   50MOL    H2127559   4.281   6.991   5.845 -0.1028  0.6468  1.5528
   50MOL    H2227560   4.320   6.872   5.962  2.1253 -0.5918 -0.4411
   50MOL    H2327561   4.508   6.932   5.818 -2.0090  1.2775 -0.8293
   50MOL    H2427562   4.488   6.766   5.829 -2.1270  0.1739  3.9765
   50MOL    H2527563   4.447   7.176   5.402  0.8453 -0.9073  1.3138
   50MOL    H2627564   4.471   7.151   5.142  0.4654 -1.1016 -0.0745
   50MOL    H2727565   4.440   6.730   5.177 -0.6695 -2.0561  2.6164
   50MOL    H2827566   4.480   6.749   5.424 -0.2892 -1.5791 -2.1334
   50MOL    H2927567   4.015   6.956   5.776  0.9726  0.0021 -0.2029
   50MOL    O3027568   4.404   7.046   4.936 -0.0630 -0.1362  0.0073
   50MOL    C3127569   4.375   7.044   4.798 -0.2893 -0.0425  0.1300
   50MOL    C3227570   4.446   7.172   4.754  0.3972 -0.4257  0.3357
   50MOL    C3327571   4.450   7.173   4.609 -0.4432  0.2623  0.6455
   50MOL    C3427572   4.495   7.304   4.555 -0.1388  0.0692  0.1998
   50MOL    O3527573   4.636   7.318   4.577 -0.2199 -0.0913 -0.3060
   50MOL    C3627574   4.684   7.440   4.621  0.5057  0.1449  0.8023
   50MOL    O3727575   4.613   7.533   4.661  0.9215  0.4388 -0.4507
   50MOL    C3827576   4.836   7.436   4.617 -0.0395  0.1818 -0.5407
   50MOL    C3927577   4.913   7.557   4.637  0.4477  0.7672  0.1241
   50MOL    C4027578   5.050   7.552   4.607 -0.7443  0.1448 -0.1357
   50MOL    C4127579   5.122   7.436   4.568  0.2200 -0.9788  0.8275
   50MOL    C4227580   5.267   7.436   4.530 -0.9400 -0.5544  0.4974
   50MOL    O4327581   5.333   7.338   4.508  0.4712  0.4736  0.0309
   50MOL    C4427582   5.044   7.314   4.561 -0.1122 -0.3716  0.2608
   50MOL    C4527583   4.906   7.315   4.584  0.1764  0.4125 -0.6017
   50MOL    H4627584   4.422   6.956   4.754  0.6094  1.5386 -2.1467
   50MOL    H4727585   4.270   7.043   4.766 -0.3782  0.5160  0.4133
   50MOL    H4827586   4.543   7.170   4.803  2.4088 -0.1945 -3.4403
   50MOL    H4927587   4.383   7.256   4.783  0.3035 -0.2085 -0.4879
   50MOL    H5027588   4.522   7.098   4.575 -1.5776 -0.6637  0.2412
   50MOL    H5127589   4.354   7.162   4.559  0.1428 -0.7319 -0.2928
   50MOL    H5227590   4.476   7.309   4.448 -1.3591 -0.9545  0.3642
   50MOL    H5327591   4.450   7.388   4.608 -0.6797  0.4367 -0.8313
   50MOL    H5427592   4.865   7.652   4.657 -1.0039 -0.1006  0.9123
   50MOL    H5527593   5.100   7.647   4.616  1.1213 -0.7192 -1.1254
   50MOL    H5627594   5.090   7.223   4.528  2.3681  0.7704  0.4595
   50MOL    H5727595   4.858   7.219   4.578  0.2120  0.3922 -0.5636
   50MOL    O5827596   5.320   7.560   4.520 -0.7562  0.0467  0.1771
   50MOL    C5927597   5.445   7.584   4.456 -0.2430 -0.4502  0.2848
   50MOL    C6027598   5.524   7.680   4.545 -0.9930  0.0694  0.0055
   50MOL    C6127599   5.664   7.718   4.491 -0.3182 -0.5508 -0.1295
   50MOL    C6227600   5.722   7.845   4.559 -0.2953 -0.4167  0.0464
   50MOL    O6327601   5.649   7.958   4.506  0.2660  0.0257  0.0811
   50MOL    C6427602   5.700   8.043   4.416 -0.1747 -0.3519 -0.3040
   50MOL    O6527603   5.814   8.028   4.367 -0.4853  0.3153 -0.0405
   50MOL    C6627604   5.605   0.054   4.392  0.1094  0.1907  0.0848
   50MOL    C6727605   5.477   0.060   4.451 -0.0319  0.6873 -0.4050
   50MOL    C6827606   5.389   0.165   4.421 -0.7760 -0.8081  0.1895
   50MOL    C6927607   5.435   0.279   4.347 -0.1317 -0.0375  0.7172
   50MOL    C7027608   5.341   0.392   4.331  0.3167  0.5740 -0.7802
   50MOL    O7127609   5.225   0.391   4.357  0.5039 -0.0755  0.8123
   50MOL    C7227610   5.562   0.275   4.288  0.1597  0.8831  0.1768
   50MOL    C7327611   5.642   0.155   4.306 -0.4556 -0.4899 -0.5489
   50MOL    H7427612   5.500   7.490   4.444  0.4260  0.3094 -2.9095
   50MOL    H7527613   5.437   7.619   4.353  1.0602 -0.3924  0.1908
   50MOL    H7627614   5.537   7.637   4.644  0.7224  3.9961  1.5951
   50MOL    H7727615   5.457   7.764   4.563 -0.0595  0.7968  0.1446
   50MOL    H7827616   5.724   7.632   4.517 -1.6859 -1.4382  0.1503
   50MOL    H7927617   5.667   7.733   4.383 -0.0495  1.3853  0.1254
   50MOL    H8027618   5.696   7.829   4.663  0.8315 -0.2596  0.3514
   50MOL    H8127619   5.830   7.858   4.552 -0.1302 -0.2933  2.5093
   50MOL    H8227620   5.433   8.071   4.495 -1.0411  0.8512 -1.0580
   50MOL    H8327621   5.287   0.164   4.456 -1.3137  1.4800 -1.2460
   50MOL    H8427622   5.596   0.357   4.226 -0.2659  1.6142  0.8987
   50MOL    H8527623   5.739   0.157   4.258 -0.3193 -1.0234 -0.3015
   50MOL    O8627624   5.403   0.506   4.285  0.4167  0.1307 -0.0704
   50MOL    C8727625   5.325   0.605   4.220  0.5725  0.0136 -0.6148
   50MOL    C8827626   5.415   0.729   4.203  0.8262 -0.3746  0.0298
   50MOL    C8927627   5.525   0.723   4.098 -0.6391  0.2843  0.4016
   50MOL    C9027628   5.637   0.621   4.141 -0.3662 -0.7469  0.2304
   50MOL    O9127629   5.759   0.642   4.070 -0.3928 -0.0671  0.4600
   50MOL    C9227630   5.845   0.537   4.062  0.0115  1.0248 -0.2790
   50MOL    O9327631   5.852   0.440   4.141  0.3537 -0.4106 -0.1470
   50MOL    C9427632   5.954   0.556   3.959 -0.3965 -0.0777 -0.2072
   50MOL    C9527633   6.084   0.504   3.981 -0.1988  0.4910  0.0238
   50MOL    C9627634   6.178   0.516   3.876 -0.6721 -0.6534 -0.0746
   50MOL    C9727635   6.142   0.586   3.758 -0.0680  0.2565 -0.2601
   50MOL    C9827636   6.238   0.620   3.654  0.3057  0.1524 -0.1791
   50MOL    O9927637   6.231   0.713   3.576  0.1309 -0.0910 -0.0202
   50MOL   C10027638   6.013   0.637   3.739  0.3189 -0.3345 -0.3430
   50MOL   C10127639   5.919   0.623   3.841  0.0188  0.0530 -0.3180
   50MOL   H10227640   5.280   0.567   4.128 -0.0815  1.5826 -0.9465
   50MOL   H10327641   5.235   0.624   4.278  0.3258  0.5065 -1.1513
   50MOL   H10427642   5.467   0.763   4.292  2.0462 -2.3130  0.0785
   50MOL   H10527643   5.344   0.812   4.191 -1.6834 -2.3739  0.5665
   50MOL   H10627644   5.482   0.691   4.003  1.1012  0.0662 -0.3313
   50MOL   H10727645   5.575   0.817   4.072  1.5622 -1.1100 -0.5197
   50MOL   H10827646   5.669   0.622   4.245  0.3874 -1.1374  0.0006
   50MOL   H10927647   5.605   0.519   4.119 -1.1982 -0.2415 -0.9701
   50MOL   H11027648   6.123   0.457   4.070  1.2368  0.9396 -0.3367
   50MOL   H11127649   6.278   0.477   3.892 -0.6347  0.2361  1.9769
   50MOL   H11227650   5.979   0.695   3.655 -0.5822 -0.4426 -0.0576
   50MOL   H11327651   5.819   0.664   3.827  0.6839  1.4823 -1.0229
   50MOL   O11427652   6.332   0.527   3.647 -0.4896  0.7571 -0.2284
   50MOL   C11527653   6.433   0.531   3.541  0.8087  0.7044 -0.3271
   50MOL   C11627654   6.394   0.434   3.422  0.4719  0.1452 -0.0232
   50MOL   C11727655   6.266   0.467   3.352 -0.0455 -0.0499 -0.0498
   50MOL   C11827656   6.239   0.387   3.221  0.6551  0.2342  0.2196
   50MOL   O11927657   6.122   0.425   3.150  0.1049 -0.2326  0.2571
   50MOL   C12027658   6.098   0.375   3.030 -0.7154 -0.1219  0.6977
   50MOL   O12127659   6.186   0.307   2.974 -0.8776  0.0521 -0.1959
   50MOL   C12227660   5.965   0.411   2.971 -0.1900  0.4362 -0.6018
   50MOL   C12327661   5.872   0.499   3.029 -0.0627  0.4751 -0.1217
   50MOL   C12427662   5.753   0.539   2.959  0.3464 -0.7601  0.5087
   50MOL   C12527663   5.723   0.472   2.840 -0.1377  0.0569 -0.5957
   50MOL   C12627664   5.596   0.506   2.770 -0.5667  0.5708  0.5310
   50MOL   O12727665   5.579   0.474   2.651 -0.2885  0.0040  0.2698
   50MOL   C12827666   5.820   0.388   2.785 -0.8623 -0.1497  0.4705
   50MOL   C12927667   5.943   0.357   2.849  0.2278  0.1155 -1.0849
   50MOL   H13027668   6.445   0.633   3.504  0.9754  1.1329  0.8648
   50MOL   H13127669   6.530   0.491   3.568  0.4091 -0.9809 -1.3077
   50MOL   H13227670   6.389   0.334   3.464 -0.7728  0.6143  0.9587
   50MOL   H13327671   6.476   0.437   3.350  1.5951  1.8761  1.2689
   50MOL   H13427672   6.178   0.483   3.416  1.6794  0.6739  2.2142
   50MOL   H13527673   6.284   0.572   3.330 -0.6360 -0.1260 -0.8864
   50MOL   H13627674   6.331   0.406   3.166  1.6475 -2.9940  0.6992
   50MOL   H13727675   6.242   0.285   3.258  0.0163  0.4627  0.9048
   50MOL   H13827676   5.907   0.550   3.118  2.3841  1.1430 -1.4113
   50MOL   H13927677   5.683   0.604   3.008  1.6212 -0.6807  2.2720
   50MOL   H14027678   5.788   0.340   2.693 -0.3893  1.7616 -0.7086
   50MOL   H14127679   6.013   0.288   2.805 -0.7176 -1.2031 -0.5341
   50MOL   O14227680   5.512   0.586   2.836 -0.2658 -0.1657 -0.3105
   50MOL   C14327681   5.382   0.631   2.790  0.6334 -0.0507 -0.5649
   50MOL   C14427682   5.269   0.558   2.865 -0.2116 -0.3256 -0.8010
   50MOL   C14527683   5.257   0.624   3.011  0.4096 -0.2038 -0.7085
   50MOL   C14627684   5.209   0.529   3.116  0.1440  0.0228 -0.2466
   50MOL   O14727685   5.080   0.481   3.082 -0.0992  0.5280  0.3185
   50MOL   C14827686   5.024   0.381   3.164 -0.6201  0.0521 -0.1274
   50MOL   O14927687   5.090   0.340   3.257  0.3168 -0.4572 -0.9454
   50MOL   C15027688   4.883   0.342   3.133 -0.3855 -0.2415 -0.1696
   50MOL   C15127689   4.828   0.400   3.021 -0.5623 -0.3016 -0.3052
   50MOL   C15227690   4.687   0.382   2.998 -0.3160 -0.9386 -0.3842
   50MOL   C15327691   4.608   0.309   3.090 -0.5679 -0.2678  0.4761
   50MOL   C15427692   4.467   0.277   3.065 -0.4637 -0.0228 -0.7621
   50MOL   O15527693   4.401   0.205   3.133 -0.1218  0.5986  0.2532
   50MOL   C15627694   4.672   0.246   3.200 -0.5253  0.5862  0.1565
   50MOL   C15727695   4.809   0.262   3.225 -0.1867  0.5161  0.2206
   50MOL   H15827696   5.373   0.739   2.790  3.2480  0.2084  0.8266
   50MOL   H15927697   5.368   0.596   2.688  1.0833 -1.6193 -0.1059
   50MOL   H16027698   5.284   0.450   2.875  2.8035  0.3093  2.8608
   50MOL   H16127699   5.167   0.561   2.826 -0.6593  0.2547  0.4000
   50MOL   H16227700   5.354   0.668   3.031 -0.6792  1.4257  1.2038
   50MOL   H16327701   5.195   0.713   3.010  1.2849  0.5450  2.9948
   50MOL   H16427702   5.272   0.441   3.121 -1.3472 -1.0032  0.8794
   50MOL   H16527703   5.200   0.577   3.214 -1.0315 -1.0724  0.2006
   50MOL   H16627704   4.881   0.456   2.945  0.1242 -0.3229  0.1575
   50MOL   H16727705   4.641   0.426   2.911  1.6165  1.3032 -0.3245
   50MOL   H16827706   4.611   0.180   3.260  0.3342  1.0697  1.5892
   50MOL   H16927707   4.863   0.236   3.315 -2.1005  0.9288  1.5304
   50MOL   O17027708   4.416   0.333   2.950 -0.1793  0.4202 -0.0799
   50MOL   C17127709   4.294   0.291   2.896  0.4140  0.2674  0.0912
   50MOL   C17227710   4.271   0.357   2.763  0.4413 -0.1109  0.1448
   50MOL   C17327711   4.210   0.499   2.766  0.3845 -0.2541 -0.3428
   50MOL   C17427712   4.057   0.508   2.798 -0.4617  0.8728  0.1842
   50MOL   O17527713   4.015   0.640   2.816 -0.4612 -0.8138  0.0836
   50MOL   C17627714   3.979   0.678   2.944  0.3899 -0.7411  0.1930
   50MOL   O17727715   4.006   0.608   3.042 -0.0764  0.2643 -0.3830
   50MOL   C17827716   3.927   0.816   2.961  0.3634  0.1141  0.1177
   50MOL   C17927717   3.901   0.870   3.090 -0.2661  0.5060  0.5070
   50MOL   C18027718   3.857   1.005   3.107 -0.0760  0.4081  0.9832
   50MOL   C18127719   3.834   1.085   2.992 -0.3161 -0.2389 -0.3784
   50MOL   C18227720   3.776   1.227   3.001 -0.5897  0.0058  1.0052
   50MOL   O18327721   3.766   1.297   3.099  0.1443 -0.1123 -0.4330
   50MOL   C18427722   3.855   1.021   2.868  0.0173  0.5884  0.1002
   50MOL   C18527723   3.894   0.890   2.852  0.5232  0.2102  0.3506
   50MOL   H18627724   4.290   0.183   2.889 -0.4289  0.3961 -1.8383
   50MOL   H18727725   4.213   0.326   2.960 -0.1280  1.7519 -1.3752
   50MOL   H18827726   4.202   0.291   2.710 -0.4443  0.8003  0.1540
   50MOL   H18927727   4.367   0.349   2.711  1.2903  0.4311  1.5959
   50MOL   H19027728   4.262   0.550   2.847 -0.3672 -1.2021  0.7630
   50MOL   H19127729   4.239   0.557   2.678  1.5583 -2.1582 -1.2524
   50MOL   H19227730   4.002   0.473   2.710  0.5251 -0.5281  0.1073
   50MOL   H19327731   4.041   0.452   2.890  0.3127  0.3927  0.0252
   50MOL   H19427732   3.931   0.808   3.173 -2.1259  0.4068  1.1460
   50MOL   H19527733   3.850   1.056   3.202  0.4898  3.0380 -0.3423
   50MOL   H19627734   3.826   1.075   2.779 -1.4951  1.6626  1.2236
   50MOL   H19727735   3.902   0.853   2.751  2.5090  0.5282  0.3640
   50MOL   O19827736   3.732   1.274   2.890  0.2464  0.4096  0.0578
   50MOL   C19927737   3.676   1.404   2.887  0.6260  0.1644  0.4955
   50MOL   C20027738   3.652   1.432   2.744  0.6606  0.6185  0.3973
   50MOL   C20127739   3.600   1.581   2.734  0.2675  0.1608  0.4179
   50MOL   C20227740   3.551   1.620   2.600  0.5765 -0.6369  0.3182
   50MOL   O20327741   3.669   1.635   2.522  0.0151  0.1013 -0.9019
   50MOL   C20427742   3.660   1.638   2.393 -0.2139  0.1284  0.2311
   50MOL   O20527743   3.565   1.684   2.331 -0.1638  0.1144 -1.0170
   50MOL   C20627744   3.787   1.596   2.335  0.0440  0.4929 -0.4870
   50MOL   C20727745   3.879   1.507   2.396 -0.1623 -0.0312 -0.4424
   50MOL   C20827746   4.006   1.489   2.344 -0.0913  0.3245  0.7730
   50MOL   C20927747   4.043   1.544   2.223  0.2824  0.1538  0.4291
   50MOL   C21027748   4.174   1.506   2.157  1.4393 -0.2747  0.5037
   50MOL   O21127749   4.204   1.555   2.044 -0.1764  0.6708 -0.0443
   50MOL   C21227750   3.955   1.630   2.161  0.6965 -1.0015  0.3131
   50MOL   C21327751   3.826   1.657   2.212  0.0702 -0.0281 -0.5587
   50MOL   H21427752   3.583   1.406   2.944  0.5827 -0.8398  0.4721
   50MOL   H21527753   3.753   1.471   2.925 -0.6307  2.6088 -1.1458
   50MOL   H21627754   3.585   1.359   2.699  1.3955 -0.1041  0.4764
   50MOL   H21727755   3.748   1.418   2.695 -0.2799  0.1391 -1.3391
   50MOL   H21827756   3.513   1.601   2.796 -1.2010  3.3101 -2.4402
   50MOL   H21927757   3.668   1.658   2.769  0.7078  0.7216 -1.6259
   50MOL   H22027758   3.481   1.551   2.554 -1.4949  0.5994  1.5534
   50MOL   H22127759   3.512   1.722   2.600  2.5338  0.1456  1.3377
   50MOL   H22227760   3.865   1.477   2.499  0.6007 -0.8901 -0.5830
   50MOL   H22327761   4.070   1.420   2.398 -0.3266 -0.9749 -0.5669
   50MOL   H22427762   3.988   1.684   2.073 -2.9820  2.2963  0.8329
   50MOL   H22527763   3.754   1.720   2.161  0.7996  1.8129  0.6512
   50MOL   O22627764   4.243   1.417   2.229  0.2983  0.3476 -0.5097
   50MOL   C22727765   4.366   1.359   2.189  0.2442  0.2311  0.4622
   50MOL   C22827766   4.340   1.240   2.101  0.5470  0.4437  0.4020
   50MOL   C22927767   4.460   1.160   2.066  0.8193  1.0416  0.0705
   50MOL   C23027768   4.418   1.032   1.995  0.1371 -0.7772 -0.0854
   50MOL   O23127769   4.528   0.987   1.920  0.3230 -0.0097 -0.1248
   50MOL   C23227770   4.501   0.884   1.838 -0.4804  0.3274  0.3735
   50MOL   O23327771   4.388   0.832   1.832 -0.2569  0.0921  0.0050
   50MOL   C23427772   4.613   0.837   1.761 -0.2242  1.0326  0.2883
   50MOL   C23527773   4.722   0.923   1.737  0.7075 -0.0651  0.6530
   50MOL   C23627774   4.824   0.882   1.654 -0.7017 -0.3633  0.4422
   50MOL   C23727775   4.820   0.757   1.594 -0.2235 -0.5386 -0.0833
   50MOL   C23827776   4.929   0.717   1.505 -0.0834 -0.4789 -1.2859
   50MOL   O23927777   4.955   0.604   1.495 -0.1397  0.0520  0.0027
   50MOL   C24027778   4.711   0.669   1.619 -0.8887 -0.0925 -0.5497
   50MOL   C24127779   4.604   0.715   1.698 -0.0987 -0.3001 -0.1135
   50MOL   H24227780   4.420   1.435   2.133 -1.3912 -0.2287 -1.8213
   50MOL   H24327781   4.428   1.346   2.278 -2.2447 -0.7253  2.1267
   50MOL   H24427782   4.288   1.274   2.011  0.1253 -1.5533 -0.1317
   50MOL   H24527783   4.265   1.171   2.140 -0.0809  0.0967 -1.3558
   50MOL   H24627784   4.509   1.230   1.998 -1.2731 -0.5876 -3.2643
   50MOL   H24727785   4.537   1.133   2.138 -0.1460  0.6835  0.9811
   50MOL   H24827786   4.385   0.955   2.065 -0.9034  0.5650  0.9299
   50MOL   H24927787   4.334   1.052   1.928  1.2965  0.3365 -1.2603
   50MOL   H25027788   4.724   1.017   1.791  1.4962  1.1646 -1.4857
   50MOL   H25127789   4.913   0.943   1.646  1.3140 -3.4406 -1.3635
   50MOL   H25227790   4.702   0.588   1.548  0.1119  0.0375 -0.8317
   50MOL   H25327791   4.514   0.655   1.712 -0.2971  0.4016  1.7902
   50MOL   O25427792   5.005   0.812   1.450  0.4212 -0.4011 -0.1815
   50MOL   C25527793   5.110   0.783   1.359  0.3652  0.3227 -0.1630
   50MOL   C25627794   5.226   0.867   1.400  0.0158  0.0535 -0.4012
   50MOL   C25727795   5.348   0.825   1.313 -0.4549 -0.4181  0.3589
   50MOL   C25827796   5.465   0.914   1.345  0.1241 -0.5992 -0.4751
   50MOL   O25927797   5.520   0.881   1.474 -0.2421 -1.1105 -0.2953
   50MOL   C26027798   5.654   0.906   1.506 -0.5916  0.2054  1.1163
   50MOL   O26127799   5.731   0.954   1.425  0.1116 -0.5050  0.2536
   50MOL   C26227800   5.699   0.869   1.645  0.0533 -0.7938  0.5609
   50MOL   C26327801   5.818   0.924   1.696 -0.2299 -0.4474 -0.1639
   50MOL   C26427802   5.865   0.895   1.826 -0.1481 -0.2829 -0.1090
   50MOL   C26527803   5.793   0.811   1.911 -0.4623 -0.1283  0.5312
   50MOL   C26627804   5.842   0.778   2.044  0.1352  0.3949  0.3010
   50MOL   O26727805   5.771   0.730   2.129  0.2521  0.0501 -0.5014
   50MOL   C26827806   5.681   0.746   1.860  0.5374  0.1252 -0.0710
   50MOL   C26927807   5.638   0.772   1.727  0.1992 -1.1058 -0.0704
   50MOL   H27027808   5.130   0.677   1.344 -2.1081 -0.1368 -0.4512
   50MOL   H27127809   5.067   0.813   1.263  0.6204 -1.4572 -0.8584
   50MOL   H27227810   5.233   0.859   1.509 -0.5294 -0.5097 -0.4018
   50MOL   H27327811   5.198   0.971   1.384 -1.4125  0.1331  2.3358
   50MOL   H27427812   5.364   0.719   1.335 -2.7166 -0.6810  0.8703
   50MOL   H27527813   5.334   0.830   1.205 -0.6354  0.1007  0.4039
   50MOL   H27627814   5.544   0.900   1.272  1.2311 -0.3181  0.6382
   50MOL   H27727815   5.447   1.021   1.350  1.2700 -0.3284 -1.8282
   50MOL   H27827816   5.876   0.990   1.633 -0.3671 -0.4293 -0.2728
   50MOL   H27927817   5.953   0.943   1.866 -0.5154  0.1768  0.1580
   50MOL   H28027818   5.636   0.665   1.915  0.2499  1.3088  1.4788
   50MOL   H28127819   5.554   0.720   1.683 -1.1408 -0.0280  1.1884
   50MOL   O28227820   5.970   0.817   2.062 -0.1549 -0.3034 -0.9461
   50MOL   C28327821   6.030   0.766   2.180 -0.4774  0.0749  0.3364
   50MOL   C28427822   6.179   0.793   2.156 -1.1177 -0.3508 -0.1898
   50MOL   C28527823   6.221   0.933   2.192  0.9504 -0.8763 -0.3668
   50MOL   C28627824   6.369   0.954   2.170 -0.3947 -0.2881  0.0514
   50MOL   O28727825   6.394   0.940   2.033 -0.5350 -0.2780  0.0044
   50MOL   C28827826   6.524   0.942   1.975  0.2564 -0.5046 -0.4752
   50MOL   O28927827   6.630   0.936   2.036 -0.0158 -0.2430  0.3246
   50MOL   C29027828   6.520   0.945   1.828  0.1948  0.7024 -0.8830
   50MOL   C29127829   6.402   0.911   1.759 -0.2701 -0.2542  0.0158
   50MOL   C29227830   6.390   0.932   1.619  0.4004  0.3536 -0.1849
   50MOL   C29327831   6.505   0.976   1.549  0.3242  0.4392  0.0312
   50MOL   C29427832   6.487   0.987   1.399  0.4658  0.0896  0.1858
   50MOL   O29527833   6.381   0.992   1.332 -0.2725  0.1494 -0.7891
   50MOL   C29627834   6.631   0.999   1.614  0.3550  0.2235 -0.1743
   50MOL   C29727835   6.636   0.985   1.755  0.1018  0.3311  0.3859
   50MOL   H29827836   6.001   0.820   2.270  0.6153  1.4272 -0.1070
   50MOL   H29927837   6.011   0.660   2.200 -1.2265  0.3110  0.8696
   50MOL   H30027838   6.199   0.775   2.050  2.8070  0.4168  0.3542
   50MOL   H30127839   6.236   0.708   2.194 -1.0082  0.5319  1.6509
   50MOL   H30227840   6.158   1.005   2.140  2.1664  0.8304  0.4789
   50MOL   H30327841   6.213   0.954   2.298  2.3123  0.4907 -0.5092
   50MOL   H30427842   6.396   1.057   2.194 -1.0480 -0.2232  0.5154
   50MOL   H30527843   6.414   0.880   2.236 -0.3445 -0.0126  0.3288
   50MOL   H30627844   6.314   0.877   1.812  0.8201  0.6742  2.4659
   50MOL   H30727845   6.294   0.916   1.573  1.1509 -1.1903 -1.2615
   50MOL   H30827846   6.710   1.048   1.560  0.7876 -1.2313 -0.8778
   50MOL   H30927847   6.723   1.012   1.813  0.2053 -0.0669  0.4181
   50MOL   O31027848   6.607   0.998   1.338 -0.8054  0.1673  0.2104
   50MOL   C31127849   6.604   1.018   1.197  0.0472 -0.2206  0.4273
   50MOL   C31227850   6.651   1.164   1.181  0.4637  0.3963 -0.4516
   50MOL   C31327851   6.558   1.262   1.249  0.3930 -0.0215  0.8842
   50MOL   C31427852   6.562   1.398   1.179  0.8066  0.2367  0.5291
   50MOL   O31527853   6.456   1.479   1.227 -0.0429  0.1815  0.3528
   50MOL   C31627854   6.335   1.473   1.164  0.4791 -0.7645  0.5197
   50MOL   O31727855   6.302   1.394   1.073 -0.3896  0.0535  0.3464
   50MOL   C31827856   6.244   1.588   1.207  0.4716  0.1872 -0.1550
   50MOL   C31927857   6.124   1.613   1.147  0.7473  0.1973  1.2149
   50MOL   C32027858   6.028   1.698   1.201 -1.1768 -0.1953  0.7377
   50MOL   C32127859   6.059   1.777   1.311  0.0191  0.1325 -0.0922
   50MOL   C32227860   5.959   1.884   1.349  0.0471 -0.5895 -0.0831
   50MOL   O32327861   5.851   1.892   1.290 -0.3030  0.1323 -0.6512
   50MOL   C32427862   6.187   1.763   1.370 -0.2718 -0.0621  0.3188
   50MOL   C32527863   6.276   1.667   1.321 -0.1362  0.0193  0.5998
   50MOL   H32627864   6.675   0.942   1.165 -2.3834 -1.9946 -0.8851
   50MOL   H32727865   6.504   1.011   1.154 -1.6566 -0.1058  4.1720
   50MOL   H32827866   6.654   1.172   1.072  2.4391 -0.0647 -0.4438
   50MOL   H32927867   6.754   1.160   1.215  1.1275  2.5735 -2.0826
   50MOL   H33027868   6.453   1.235   1.246  0.0752  1.3340 -0.4940
   50MOL   H33127869   6.584   1.267   1.355 -0.4321  1.5294  1.0236
   50MOL   H33227870   6.660   1.438   1.205  1.3617 -0.9000  0.2402
   50MOL   H33327871   6.562   1.381   1.071 -1.9705 -0.3787  0.5770
   50MOL   H33427872   6.102   1.558   1.057 -0.2975 -0.5990  1.9328
   50MOL   H33527873   5.940   1.715   1.142 -0.2632  0.1949 -0.5441
   50MOL   H33627874   6.223   1.828   1.448  0.3792 -1.5356  1.2688
   50MOL   H33727875   6.375   1.658   1.365 -0.4936  1.1444  1.6340
   50MOL   O33827876   5.991   1.959   1.454 -0.3284  0.4854 -0.0649
   50MOL   C33927877   5.926   2.072   1.508 -0.5768 -0.4437  0.9745
   50MOL   C34027878   5.989   2.110   1.643  0.5262 -0.3269 -0.1490
   50MOL   C34127879   5.957   1.994   1.745 -0.7927  0.8925 -0.4308
   50MOL   C34227880   6.045   2.012   1.870 -0.4145  0.5866  0.1620
   50MOL   O34327881   6.008   2.134   1.932  0.2885  0.4672 -0.5536
   50MOL   C34427882   6.098   2.210   1.997 -0.5398 -0.2292  0.0661
   50MOL   O34527883   6.210   2.188   2.009  0.4439 -0.1775  0.0829
   50MOL   C34627884   6.023   2.333   2.041 -0.7932 -0.3394  0.5652
   50MOL   C34727885   6.069   2.412   2.146 -0.9344  0.0143 -0.1414
   50MOL   C34827886   5.992   2.518   2.199  0.5764  0.3858 -0.0272
   50MOL   C34927887   5.882   2.571   2.126 -0.5626  0.4955  0.7200
   50MOL   C35027888   5.814   2.696   2.167  0.1025 -0.1901 -0.2362
   50MOL   O35127889   5.718   2.746   2.102  0.2366 -0.3098  0.1554
   50MOL   C35227890   5.826   2.488   2.026  0.2910 -0.1580  0.4948
   50MOL   C35327891   5.900   2.373   1.986  0.2449  0.1441  0.2209
   50MOL   H35427892   5.936   2.148   1.431 -0.3627 -0.7303  0.7137
   50MOL   H35527893   5.821   2.051   1.528 -0.9733  0.1373 -0.4463
   50MOL   H35627894   5.937   2.200   1.676  0.2486 -0.0530 -1.3150
   50MOL   H35727895   6.094   2.138   1.638  0.6937 -0.7124  0.9645
   50MOL   H35827896   5.849   2.002   1.763 -0.7745  0.3410 -0.0389
   50MOL   H35927897   5.976   1.895   1.704  0.9658  0.9211  0.3011
   50MOL   H36027898   6.025   1.927   1.936 -1.0915  0.5428 -0.0991
   50MOL   H36127899   6.150   2.011   1.841 -0.6521  1.0338 -0.6996
   50MOL   H36227900   6.164   2.394   2.193 -1.0460 -3.5930 -1.1629
   50MOL   H36327901   6.029   2.572   2.285 -0.2371  1.4373 -0.3374
   50MOL   H36427902   5.735   2.521   1.979  0.2076 -0.2518  0.5901
   50MOL   H36527903   5.851   2.312   1.912 -0.9952  1.4284 -0.0386
   50MOL   O36627904   5.879   2.762   2.270 -0.6607 -0.4543 -0.3830
   50MOL   C36727905   5.848   2.895   2.309  0.8680 -0.6071 -0.3760
   50MOL   C36827906   5.940   2.917   2.431 -0.2803 -0.0222 -0.1067
   50MOL   C36927907   5.933   3.062   2.483 -0.3814  0.3592 -0.2913
   50MOL   C37027908   6.010   3.075   2.610 -0.0753  0.5835 -0.0559
   50MOL   O37127909   5.925   3.034   2.721  0.7382 -0.3714  0.0980
   50MOL   C37227910   5.932   2.906   2.775  0.0842 -0.4859  0.4639
   50MOL   O37327911   6.003   2.818   2.734  0.0082 -0.0713 -0.4460
   50MOL   C37427912   5.831   2.886   2.881 -0.5300  0.0866  0.7605
   50MOL   C37527913   5.764   2.997   2.937  0.2009 -0.1075 -0.4594
   50MOL   C37627914   5.658   2.979   3.024 -0.1545 -0.4424 -0.1737
   50MOL   C37727915   5.616   2.852   3.063  0.9784  0.0892 -0.1261
   50MOL   C37827916   5.509   2.837   3.162 -0.0293  0.5906  0.2740
   50MOL   O37927917   5.469   2.721   3.182 -0.3237  0.4628 -0.1743
   50MOL   C38027918   5.688   2.741   3.010 -0.9116  0.3174 -0.8779
   50MOL   C38127919   5.797   2.757   2.922 -0.2255 -0.2197 -0.2252
   50MOL   H38227920   5.866   2.970   2.233  1.4918  0.3663  0.7152
   50MOL   H38327921   5.745   2.896   2.345  1.4325 -1.2423  1.3272
   50MOL   H38427922   6.042   2.893   2.402 -0.8948 -0.5020 -1.9163
   50MOL   H38527923   5.918   2.849   2.513 -2.5905 -1.8972 -2.2238
   50MOL   H38627924   5.964   3.135   2.408  0.4366 -0.8176 -1.1054
   50MOL   H38727925   5.827   3.086   2.490 -0.6405  0.2631 -3.2754
   50MOL   H38827926   6.101   3.016   2.619 -1.0645 -1.0615 -0.5459
   50MOL   H38927927   6.024   3.181   2.630  0.6984  0.4450  0.1455
   50MOL   H39027928   5.785   3.098   2.907 -0.4280  0.7028  1.7268
   50MOL   H39127929   5.607   3.070   3.051 -2.0983 -0.8111 -2.4698
   50MOL   H39227930   5.653   2.642   3.035 -1.3991  0.5427 -0.6677
   50MOL   H39327931   5.843   2.662   2.900  1.2789  0.4769 -0.1386
   50MOL   O39427932   5.473   2.947   3.222 -0.6033  0.2747  0.3565
   50MOL   C39527933   5.384   2.935   3.332  0.0080 -0.8291 -0.4699
   50MOL   C39627934   5.343   3.075   3.376  0.1972  0.4008  0.2628
   50MOL   C39727935   5.453   3.153   3.450  0.6981 -0.1265 -0.6713
   50MOL   C39827936   5.539   3.065   3.546  0.1044 -0.4381 -0.2502
   50MOL   O39927937   5.616   3.164   3.620 -0.5034  0.0900  0.1329
   50MOL   C40027938   5.714   3.121   3.706  0.3386 -0.7405 -0.1630
   50MOL   O40127939   5.735   3.000   3.724  0.0549 -0.6769  0.0668
   50MOL   C40227940   5.776   3.224   3.795  0.5269  0.3890 -0.1579
   50MOL   C40327941   5.858   3.180   3.901  1.0241 -0.3095  0.4704
   50MOL   C40427942   5.930   3.272   3.973  0.2729 -0.3575 -0.3334
   50MOL   C40527943   5.906   3.408   3.955 -0.4080  0.2754 -0.3943
   50MOL   C40627944   5.971   3.496   4.046  0.2306  0.1796  0.1097
   50MOL   O40727945   6.070   3.461   4.108 -0.1708 -0.7745 -0.3969
   50MOL   C40827946   5.814   3.456   3.860  0.5974 -0.1578  0.2410
   50MOL   C40927947   5.742   3.361   3.783  0.4982  0.6263 -0.5267
   50MOL   H41027948   5.291   2.892   3.294 -1.5620  0.3246  1.9586
   50MOL   H41127949   5.415   2.864   3.409 -1.0463 -1.6157 -0.7517
   50MOL   H41227950   5.267   3.052   3.451  0.6736 -1.6722  0.1388
   50MOL   H41327951   5.308   3.133   3.291  0.4223 -0.2074 -0.2463
   50MOL   H41427952   5.522   3.191   3.374  0.8170 -1.1141 -1.0798
   50MOL   H41527953   5.407   3.238   3.499  0.3294 -0.1710 -0.9353
   50MOL   H41627954   5.472   3.001   3.604 -0.8638  1.1319  0.3940
   50MOL   H41727955   5.598   2.995   3.488  0.1239 -0.5188 -0.1336
   50MOL   H41827956   5.885   3.076   3.907  1.5465 -0.2454 -0.6077
   50MOL   H41927957   6.006   3.238   4.042 -2.1349 -1.0886  2.0396
   50MOL   H42027958   5.789   3.561   3.856 -0.3511 -0.4079 -0.7703
   50MOL   H42127959   5.666   3.398   3.715 -0.0262 -1.8855 -1.3750
   50MOL   O42227960   5.899   3.618   4.075  1.0851 -0.1363  0.5018
   50MOL   C42327961   5.955   3.700   4.179  0.3752 -0.2145  0.3769
   50MOL   C42427962   5.987   3.836   4.118  0.7799  0.2028 -0.4968
   50MOL   C42527963   5.860   3.902   4.051  0.3162 -0.3490  0.1629
   50MOL   C42627964   5.899   4.033   3.971  0.6149  0.3862 -0.6442
   50MOL   O42727965   5.775   4.092   3.910  0.3178 -0.2297 -0.0831
   50MOL   C42827966   5.749   4.077   3.780  0.6966 -0.5028  0.1157
   50MOL   O42927967   5.815   4.007   3.703  0.4149  0.1559 -0.6230
   50MOL   C43027968   5.627   4.157   3.733 -0.6897 -0.2405  0.1957
   50MOL   C43127969   5.545   4.227   3.825 -0.4794 -0.5649  0.9864
   50MOL   C43227970   5.427   4.297   3.785 -0.7202 -0.8208  0.4891
   50MOL   C43327971   5.396   4.295   3.647  0.3914  0.0978  0.5261
   50MOL   C43427972   5.281   4.366   3.596 -0.6155  0.1319  0.3903
   50MOL   O43527973   5.247   4.363   3.480 -0.1377 -0.3354  0.1345
   50MOL   C43627974   5.478   4.216   3.559  0.0038 -0.1351 -0.3749
   50MOL   C43727975   5.590   4.144   3.596 -0.4108 -0.4203 -0.0560
   50MOL   H43827976   5.896   3.697   4.271  1.2150 -2.0764  0.8813
   50MOL   H43927977   6.051   3.655   4.206  0.4286 -0.4555 -0.2068
   50MOL   H44027978   6.069   3.837   4.047  1.8958 -0.7468  0.7633
   50MOL   H44127979   6.015   3.905   4.198  2.0398 -1.0530  0.1583
   50MOL   H44227980   5.812   3.842   3.974 -1.5442 -0.4718  1.3819
   50MOL   H44327981   5.778   3.927   4.119 -0.5935  0.7071 -1.2852
   50MOL   H44427982   5.942   4.117   4.026  1.3614  0.4725 -1.3390
   50MOL   H44527983   5.971   4.004   3.894 -0.2730 -2.3172 -0.4731
   50MOL   H44627984   5.569   4.232   3.930 -0.1757  0.3875  0.8780
   50MOL   H44727985   5.371   4.354   3.857 -0.7809 -1.1827  0.7257
   50MOL   H44827986   5.459   4.207   3.453 -1.5850 -1.8094  0.0023
   50MOL   H44927987   5.643   4.085   3.523 -1.0848 -3.8323  2.1373
   50MOL   O45027988   5.232   4.451   3.691  0.3232 -0.3517 -0.2328
   50MOL   C45127989   5.109   4.517   3.681 -0.4947  0.1781  0.6036
   50MOL   C45227990   5.034   4.531   3.817  0.1192  0.2677  0.8969
   50MOL   C45327991   4.913   4.617   3.824 -0.2184 -0.0744 -0.1352
   50MOL   C45427992   4.950   4.761   3.824 -0.5256  0.2008 -0.8243
   50MOL   O45527993   4.987   4.791   3.690 -0.0422 -0.0427 -0.1946
   50MOL   C45627994   4.969   4.922   3.658  0.0045 -0.2425 -0.2350
   50MOL   O45727995   4.933   5.011   3.741  0.3777  0.0748  0.2096
   50MOL   C45827996   4.994   4.938   3.507  0.1072  0.2403  0.0829
   50MOL   C45927997   5.030   4.834   3.417  0.4332 -0.2807  0.5283
   50MOL   C46027998   5.035   4.865   3.275  0.7636  0.3367  0.3506
   50MOL   C46127999   5.016   4.996   3.227 -0.3400 -0.1604  0.2460
   50MOL   C46228000   5.028   5.020   3.076 -0.3022  0.1890  0.2845
   50MOL   O46328001   5.092   4.941   2.999  0.0092 -0.4344  0.2633
   50MOL   C46428002   4.975   5.097   3.319  0.8538  0.7836  0.0816
   50MOL   C46528003   4.972   5.069   3.458 -0.2194 -0.0777 -0.3238
   50MOL   H46628004   5.122   4.615   3.634  1.2935  0.1636  1.0437
   50MOL   H46728005   5.042   4.474   3.607 -1.3677  2.1005  0.2322
   50MOL   H46828006   5.095   4.569   3.899  0.0069 -0.6181  1.4024
   50MOL   H46928007   5.010   4.430   3.851 -0.4134 -0.0814 -0.5004
   50MOL   H47028008   4.851   4.598   3.736  0.5528 -0.7370 -0.5358
   50MOL   H47128009   4.863   4.584   3.915  1.1468  1.4009  1.1772
   50MOL   H47228010   4.857   4.809   3.854 -0.5185 -0.3852  0.1812
   50MOL   H47328011   5.033   4.790   3.889 -0.7035 -1.3492  0.1287
   50MOL   H47428012   5.057   4.736   3.454 -2.7699 -1.5579 -0.3182
   50MOL   H47528013   5.053   4.784   3.206  1.2471  0.7053  0.0353
   50MOL   H47628014   4.965   5.194   3.273  0.3841 -0.5048 -2.6296
   50MOL   H47728015   4.952   5.154   3.521 -0.1341  0.1707 -0.6297
   50MOL   O47828016   4.987   5.140   3.036  0.1160  0.2476 -0.3732
   50MOL   C47928017   4.976   5.184   2.903  0.2353  0.1084  1.1077
   50MOL   C48028018   5.079   5.300   2.872 -0.6141 -0.0204 -0.0349
   50MOL   C48128019   5.024   5.426   2.928  0.6192  0.1151 -0.5752
   50MOL   C48228020   5.092   5.546   2.868  0.1623 -0.2729  0.2755
   50MOL   O48328021   5.022   5.656   2.923 -0.1086 -0.0325 -0.3620
   50MOL   C48428022   5.069   5.782   2.910  0.3464  0.2761  0.0774
   50MOL   O48528023   5.173   5.811   2.850 -0.1686 -0.4727  0.3908
   50MOL   C48628024   4.979   5.887   2.958 -0.1619 -0.0390  0.1461
   50MOL   C48728025   5.028   6.018   2.971  0.2304 -0.2570 -0.0139
   50MOL   C48828026   4.945   6.124   3.001 -0.0859 -0.6347 -0.5928
   50MOL   C48928027   4.805   6.108   3.027  0.2515  0.3402 -0.5266
   50MOL   C49028028   4.727   6.220   3.067  0.1760 -0.2719 -0.4801
   50MOL   O49128029   4.774   6.335   3.087  0.0707  0.4110 -0.3512
   50MOL   C49228030   4.753   5.975   3.015  0.4668  0.3339 -0.1082
   50MOL   C49328031   4.839   5.870   2.977  0.2236  0.2772  0.1857
   50MOL   H49428032   4.981   5.097   2.838 -1.8161 -0.9141  2.2505
   50MOL   H49528033   4.880   5.233   2.882 -0.4439 -2.2216 -1.5170
   50MOL   H49628034   5.087   5.309   2.764  0.0499 -0.2801 -0.0140
   50MOL   H49728035   5.172   5.266   2.918 -0.5825  1.3120  0.9091
   50MOL   H49828036   4.919   5.427   2.897  0.1797 -2.1861  0.7056
   50MOL   H49928037   5.035   5.429   3.036 -1.8139 -1.5220 -0.2424
   50MOL   H50028038   5.199   5.543   2.888  0.3167 -4.0547 -0.7977
   50MOL   H50128039   5.057   5.538   2.765  1.4335  0.3283 -0.2132
   50MOL   H50228040   5.130   6.039   2.942  0.9049 -3.4763 -0.2245
   50MOL   H50328041   4.998   6.216   3.019 -0.7359 -0.2760 -0.4806
   50MOL   H50428042   4.645   5.965   3.018  0.4620 -0.0974 -1.3279
   50MOL   H50528043   4.794   5.772   2.970 -1.6807  0.9335  2.2687
   50MOL   O50628044   4.598   6.192   3.094 -0.4422  0.0568 -0.0874
   50MOL   C50728045   4.517   6.294   3.143 -0.0885 -0.5022  0.3722
   50MOL   C50828046   4.416   6.349   3.038 -0.3668 -0.0732 -0.5069
   50MOL   C50928047   4.336   6.232   2.965 -0.1095  0.8610 -0.1030
   50MOL   C51028048   4.404   6.175   2.834 -0.4864  0.5273  0.1717
   50MOL   O51128049   4.314   6.102   2.752  0.0399  0.1401 -0.0136
   50MOL   C51228050   4.288   5.968   2.765  0.1345 -0.5401 -0.5377
   50MOL   O51328051   4.308   5.905   2.869  0.1204  0.4158 -0.1504
   50MOL   C51428052   4.211   5.905   2.649 -0.4541 -0.5369 -0.7935
   50MOL   C51528053   4.198   5.975   2.525  0.1439  0.3365  0.1974
   50MOL   C51628054   4.134   5.907   2.417 -0.5646 -0.3252 -0.1233
   50MOL   C51728055   4.085   5.774   2.431 -0.2539 -0.0237  0.5419
   50MOL   C51828056   4.023   5.697   2.317  0.1122 -0.0932 -0.0574
   50MOL   O51928057   4.013   5.574   2.305  0.2095 -0.0948  0.5256
   50MOL   C52028058   4.107   5.703   2.552  0.4542 -0.0303 -0.2623
   50MOL   C52128059   4.162   5.773   2.663  0.1977  0.1772  0.4822
   50MOL   H52228060   4.465   6.258   3.231  0.3669 -0.1146  0.8007
   50MOL   H52328061   4.575   6.370   3.194 -0.2018 -0.9947  1.2418
   50MOL   H52428062   4.476   6.397   2.961  0.0946 -1.5408 -1.0856
   50MOL   H52528063   4.346   6.418   3.086 -0.5975  0.0948 -1.0809
   50MOL   H52628064   4.316   6.149   3.034 -0.2050  1.4323  0.5595
   50MOL   H52728065   4.238   6.270   2.938  0.0218  0.9881 -0.3996
   50MOL   H52828066   4.461   6.251   2.781 -1.3434  0.8219 -0.3279
   50MOL   H52928067   4.485   6.109   2.865  0.7963  1.9754 -0.0292
   50MOL   H53028068   4.229   6.078   2.516  2.0801 -0.2527 -0.1661
   50MOL   H53128069   4.119   5.957   2.322 -0.8102  0.9381  0.5654
   50MOL   H53228070   4.072   5.604   2.577  1.1727  0.0735  1.2368
   50MOL   H53328071   4.170   5.724   2.759  0.4420 -1.3526 -0.3076
   50MOL   O53428072   3.997   5.774   2.213  0.2259 -0.5175  0.2543
   50MOL   C53528073   3.937   5.719   2.093 -0.0387 -0.0775  0.3570
   50MOL   C53628074   3.821   5.812   2.056  0.0406  0.4823  0.0745
   50MOL   C53728075   3.865   5.943   1.994  0.1713  0.1057  0.2435
   50MOL   C53828076   3.754   6.050   1.974 -0.0131  0.3955  0.3805
   50MOL   O53928077   3.645   5.986   1.895 -0.5592  0.0331  0.5310
   50MOL   C54028078   3.536   5.941   1.950  0.1494  1.1093 -0.1728
   50MOL   O54128079   3.483   5.974   2.060 -0.4804  0.1475 -0.8207
   50MOL   C54228080   3.468   5.844   1.855 -1.0024 -0.2211 -0.8415
   50MOL   C54328081   3.539   5.780   1.750 -0.4693 -0.2352  0.7436
   50MOL   C54428082   3.470   5.713   1.652 -0.6629 -0.5957  0.8912
   50MOL   C54528083   3.329   5.704   1.660 -0.6348 -0.3627  0.2113
   50MOL   C54628084   3.243   5.627   1.571 -0.0764 -0.7791  0.1925
   50MOL   O54728085   3.289   5.566   1.468 -0.1794  0.3751  0.0483
   50MOL   C54828086   3.259   5.759   1.764  0.0676  0.3627 -0.1385
   50MOL   C54928087   3.330   5.824   1.864 -0.8614  0.8332 -0.4681
   50MOL   H55028088   4.007   5.709   2.010 -1.0555  0.2987 -0.5600
   50MOL   H55128089   3.903   5.617   2.112  0.5952 -0.2160  0.7862
   50MOL   H55228090   3.763   5.826   2.147 -0.9526 -2.0416 -0.1322
   50MOL   H55328091   3.757   5.762   1.983  0.4455  1.2267 -0.8072
   50MOL   H55428092   3.952   5.990   2.039  0.2111 -0.8750  1.2025
   50MOL   H55528093   3.890   5.914   1.891 -2.1531  0.9716 -0.6079
   50MOL   H55628094   3.725   6.098   2.067 -1.0285  0.6554 -0.0636
   50MOL   H55728095   3.793   6.123   1.904  0.0051 -1.4351 -1.5758
   50MOL   H55828096   3.647   5.777   1.744 -0.5709 -2.8254 -0.0412
   50MOL   H55928097   3.519   5.667   1.568 -2.0095 -0.3042 -0.0736
   50MOL   H56028098   3.153   5.745   1.774 -0.1793  1.1592 -1.5300
   50MOL   H56128099   3.275   5.846   1.954 -1.1065 -0.6076 -0.2578
   50MOL   H56228100   3.142   5.616   1.612 -0.3284 -0.9699 -0.4647
   51MOL     O128101   6.831   7.192   2.223 -0.4556  0.4966 -0.1276
   51MOL     C228102   6.930   7.166   2.129 -0.5696 -0.2334 -0.5437
   51MOL     C328103   7.070   7.169   2.193 -0.2990 -0.3907 -0.8156
   51MOL     C428104   7.098   7.043   2.276 -0.2251  0.2671 -0.1657
   51MOL     C528105   7.010   7.021   2.406  0.0716  0.1700 -0.0645
   51MOL     O628106   7.055   6.902   2.478  0.1216  0.4576 -0.7180
   51MOL     C728107   6.979   6.789   2.468  0.5128  0.3849 -0.2995
   51MOL     O828108   6.884   6.772   2.387  0.2221 -0.1411 -0.0019
   51MOL     C928109   7.026   6.676   2.548 -0.3021  0.4173 -0.3220
   51MOL    C1028110   7.127   6.696   2.644 -0.1551  0.4049 -0.7275
   51MOL    C1128111   7.185   6.585   2.706 -0.4866 -0.1897 -1.0207
   51MOL    C1228112   7.150   6.458   2.668  0.5468 -0.0579  0.4416
   51MOL    C1328113   7.206   6.336   2.737  0.5262 -0.1292 -0.0458
   51MOL    O1428114   7.292   6.342   2.825  0.1201 -0.2686  0.4741
   51MOL    C1528115   7.048   6.436   2.576  0.0039  0.1469 -0.3967
   51MOL    C1628116   6.980   6.546   2.522 -0.7212 -0.2157  0.3303
   51MOL    H1728117   6.901   7.065   2.099 -1.4388  0.0828 -0.7714
   51MOL    H1828118   6.932   7.223   2.036 -1.0692 -0.6212 -0.7963
   51MOL    H1928119   7.078   7.252   2.263  0.0749 -1.5122  0.5005
   51MOL    H2028120   7.146   7.181   2.115  0.5107 -0.6537 -0.0758
   51MOL    H2128121   7.093   6.955   2.212 -2.6090  0.3477 -0.1577
   51MOL    H2228122   7.199   7.046   2.316 -0.5829  0.6351  0.7236
   51MOL    H2328123   7.036   7.103   2.473 -1.5314  1.5083 -1.0405
   51MOL    H2428124   6.905   7.017   2.377 -0.5676  0.0460  2.1588
   51MOL    H2528125   7.157   6.796   2.673 -2.2511  0.6619  0.7011
   51MOL    H2628126   7.245   6.590   2.796  0.1297 -1.1769 -1.3792
   51MOL    H2728127   7.017   6.334   2.555 -1.7908  0.0043  2.5636
   51MOL    H2828128   6.902   6.532   2.449  0.2966 -0.3356 -0.7623
   51MOL    H2928129   6.748   7.188   2.179  0.3608  0.2730 -1.6725
   51MOL    O3028130   7.168   6.212   2.692 -0.4529 -0.5399  0.0197
   51MOL    C3128131   7.228   6.091   2.735 -0.0396 -0.2267  0.2287
   51MOL    C3228132   7.221   5.998   2.614  0.3514  0.6307  0.3249
   51MOL    C3328133   7.078   5.963   2.572 -0.7186 -0.6974  0.1562
   51MOL    C3428134   6.988   5.898   2.668 -0.1824 -0.4830  0.1989
   51MOL    O3528135   7.047   5.764   2.694 -0.5745 -0.1887  0.3899
   51MOL    C3628136   6.976   5.668   2.748  0.1184 -0.1484 -0.5974
   51MOL    O3728137   6.861   5.684   2.780  0.3358 -0.0533  0.0902
   51MOL    C3828138   7.059   5.550   2.782 -0.4126  0.3321 -0.2570
   51MOL    C3928139   7.193   5.537   2.748 -0.1497 -0.4913 -0.0785
   51MOL    C4028140   7.268   5.425   2.786  0.1899  0.4294  0.1020
   51MOL    C4128141   7.205   5.316   2.852 -0.7013 -0.2031  0.4336
   51MOL    C4228142   7.294   5.204   2.898 -0.6210 -0.1357  0.4323
   51MOL    O4328143   7.421   5.211   2.894  0.0720 -0.1720  0.3593
   51MOL    C4428144   7.066   5.321   2.887 -0.0925 -0.6595 -0.5268
   51MOL    C4528145   6.997   5.438   2.856  0.1538 -0.2668  0.4718
   51MOL    H4628146   7.333   6.101   2.763 -0.5886 -1.2682  2.7806
   51MOL    H4728147   7.172   6.049   2.818 -3.2727  3.4410  0.0583
   51MOL    H4828148   7.278   5.909   2.638  1.9904  1.6925  0.4847
   51MOL    H4928149   7.276   6.042   2.531 -1.7781 -1.1332 -2.0904
   51MOL    H5028150   7.028   6.051   2.530 -2.8548 -2.0466 -0.2305
   51MOL    H5128151   7.083   5.902   2.482  3.0149  1.2957 -1.0597
   51MOL    H5228152   6.967   5.966   2.751 -2.7492  3.1662 -3.2811
   51MOL    H5328153   6.896   5.871   2.617 -0.9075  0.4714  0.9789
   51MOL    H5428154   7.243   5.612   2.689 -0.5288 -1.2991 -1.4592
   51MOL    H5528155   7.372   5.414   2.758  0.1848  1.0172 -0.1344
   51MOL    H5628156   7.023   5.238   2.941  1.7991 -1.6263 -0.4812
   51MOL    H5728157   6.895   5.450   2.892 -0.1507  1.6043 -0.9600
   51MOL    O5828158   7.234   5.085   2.931 -0.6289  0.1394  0.1026
   51MOL    C5928159   7.312   4.965   2.956  0.3421 -0.5689 -0.4644
   51MOL    C6028160   7.258   4.893   3.078 -0.0448 -0.2484  1.5881
   51MOL    C6128161   7.309   4.961   3.218  0.2369  0.3588  0.1494
   51MOL    C6228162   7.292   4.862   3.332 -0.0939 -0.3487 -0.4149
   51MOL    O6328163   7.275   4.934   3.459 -0.2993 -0.3832 -0.5772
   51MOL    C6428164   7.327   4.899   3.576 -0.1123  0.0741  0.1197
   51MOL    O6528165   7.408   4.807   3.587 -0.0431  0.0297  0.3048
   51MOL    C6628166   7.268   4.979   3.685 -0.0621  1.3136  0.1277
   51MOL    C6728167   7.321   4.958   3.816  0.0317 -0.2836 -0.5243
   51MOL    C6828168   7.261   5.030   3.924  0.1635 -0.1002 -0.1024
   51MOL    C6928169   7.155   5.122   3.905 -0.0842  0.5797 -0.0133
   51MOL    C7028170   7.088   5.190   4.021 -0.1495  0.7839 -0.1288
   51MOL    O7128171   7.094   5.153   4.142 -0.4156  0.3109 -0.1693
   51MOL    C7228172   7.112   5.144   3.771  0.0916  0.3505  0.0631
   51MOL    C7328173   7.161   5.072   3.662 -0.2329 -0.1604 -0.0442
   51MOL    H7428174   7.299   4.898   2.871  3.1708 -1.8528  0.0404
   51MOL    H7528175   7.420   4.981   2.965  0.9164 -3.9963 -0.5082
   51MOL    H7628176   7.301   4.794   3.091 -1.5994 -0.9099  1.8628
   51MOL    H7728177   7.153   4.865   3.065 -0.5329  2.2445 -0.3004
   51MOL    H7828178   7.412   4.995   3.210  0.1376  0.5175 -0.5040
   51MOL    H7928179   7.265   5.058   3.242  1.1196  0.6076  0.7517
   51MOL    H8028180   7.209   4.798   3.300 -1.1484  0.2871  0.9725
   51MOL    H8128181   7.380   4.798   3.340 -0.1581 -0.2957  0.6800
   51MOL    H8228182   7.406   4.894   3.833  2.0251  1.9387 -1.8736
   51MOL    H8328183   7.290   4.997   4.023 -0.7540 -1.6044 -0.3212
   51MOL    H8428184   7.032   5.212   3.748  0.4377  0.0056 -2.2499
   51MOL    H8528185   7.102   5.078   3.571 -1.0581 -0.9130  0.4313
   51MOL    O8628186   7.021   5.293   3.974 -0.0527 -1.0087  0.1524
   51MOL    C8728187   6.955   5.382   4.072 -0.0840 -0.5884 -0.5948
   51MOL    C8828188   6.825   5.431   4.001 -0.0373 -0.1535 -0.5984
   51MOL    C8928189   6.745   5.311   3.956 -0.0959 -0.2730 -0.2787
   51MOL    C9028190   6.702   5.220   4.077 -0.0690 -0.4084 -0.2503
   51MOL    O9128191   6.616   5.121   4.019  0.9303  0.3431 -0.3753
   51MOL    C9228192   6.579   5.006   4.082 -0.3077 -0.3109  0.1110
   51MOL    O9328193   6.607   4.978   4.198  0.2967 -0.2325  0.3676
   51MOL    C9428194   6.487   4.933   3.992 -0.5122 -0.3869  0.7209
   51MOL    C9528195   6.479   4.945   3.852 -0.5231 -0.2114 -0.5131
   51MOL    C9628196   6.417   4.848   3.775  0.0543  0.4068  0.5097
   51MOL    C9728197   6.337   4.744   3.834 -0.2625 -1.3933  1.3669
   51MOL    C9828198   6.253   4.657   3.747 -0.3781 -0.6406 -0.3279
   51MOL    O9928199   6.146   4.607   3.781 -0.0837  0.1472 -0.0205
   51MOL   C10028200   6.338   4.729   3.972  0.4685 -0.7821  0.5470
   51MOL   C10128201   6.418   4.823   4.048  0.3139  0.8318 -0.6072
   51MOL   H10228202   6.946   5.328   4.166  1.6877  1.6757  0.9132
   51MOL   H10328203   7.019   5.468   4.088 -2.2850  1.1681 -0.9741
   51MOL   H10428204   6.840   5.494   3.913 -1.3445  1.3707  0.2334
   51MOL   H10528205   6.759   5.488   4.066 -1.9439 -0.7685 -1.9321
   51MOL   H10628206   6.664   5.349   3.893 -0.3080  0.1131  0.2229
   51MOL   H10728207   6.799   5.248   3.885  0.8289  0.6264 -0.3809
   51MOL   H10828208   6.787   5.168   4.120 -0.1616  0.8141  1.4439
   51MOL   H10928209   6.654   5.287   4.149  1.7198 -0.0672  0.6285
   51MOL   H11028210   6.527   5.030   3.806 -1.2969  0.1928 -0.5860
   51MOL   H11128211   6.427   4.859   3.668 -0.4619 -1.0422  0.2968
   51MOL   H11228212   6.281   4.651   4.020 -1.2559 -0.9494 -1.7092
   51MOL   H11328213   6.420   4.810   4.156  1.1635  0.9575 -0.6039
   51MOL   O11428214   6.307   4.635   3.628  0.3588  0.1086  0.0882
   51MOL   C11528215   6.246   4.540   3.530  0.0726 -0.4888 -0.0449
   51MOL   C11628216   6.346   4.426   3.506 -0.0251 -0.2585  0.5658
   51MOL   C11728217   6.331   4.348   3.374 -0.2876 -0.2684  0.4364
   51MOL   C11828218   6.415   4.219   3.371 -0.1887 -0.1340  0.7013
   51MOL   O11928219   6.549   4.269   3.353 -0.4434 -0.0552 -0.2304
   51MOL   C12028220   6.631   4.200   3.268  1.0296 -0.7541 -0.1754
   51MOL   O12128221   6.606   4.091   3.222 -0.1025  0.1074 -0.4105
   51MOL   C12228222   6.758   4.276   3.251 -0.0412  0.5630  0.1450
   51MOL   C12328223   6.854   4.215   3.164  0.1555  0.2099 -0.0956
   51MOL   C12428224   6.975   4.274   3.140  0.4597 -0.0038  0.2608
   51MOL   C12528225   6.995   4.405   3.192  0.4319  0.6455  0.4062
   51MOL   C12628226   7.122   4.478   3.177 -0.1187 -0.7640 -0.5366
   51MOL   O12728227   7.141   4.589   3.228  0.1413  0.3085  0.0949
   51MOL   C12828228   6.907   4.461   3.285  0.2135  0.2901  0.2513
   51MOL   C12928229   6.784   4.398   3.317  0.5284  0.5244 -0.4742
   51MOL   H13028230   6.150   4.506   3.569  1.0701 -2.9126  0.3608
   51MOL   H13128231   6.247   4.596   3.436  1.7082 -0.7088 -0.1748
   51MOL   H13228232   6.352   4.363   3.594  0.0574 -0.6314  0.2952
   51MOL   H13328233   6.448   4.462   3.515 -0.1763  0.0361  1.1551
   51MOL   H13428234   6.226   4.330   3.353 -0.4935 -0.2516  1.4290
   51MOL   H13528235   6.353   4.411   3.288 -1.8432 -0.0052  0.2132
   51MOL   H13628236   6.403   4.162   3.463  3.3850 -0.1481  1.2120
   51MOL   H13728237   6.381   4.157   3.288 -0.3583 -0.3180  0.9044
   51MOL   H13828238   6.828   4.124   3.112 -1.5400 -0.8759  2.5263
   51MOL   H13928239   7.051   4.243   3.069  0.6653 -0.6948  0.7827
   51MOL   H14028240   6.928   4.552   3.340 -0.2131  1.2039 -1.0921
   51MOL   H14128241   6.714   4.456   3.375  0.6680  0.8618 -0.6484
   51MOL   O14228242   7.209   4.406   3.108  0.4391  0.4400  0.0267
   51MOL   C14328243   7.332   4.461   3.062 -0.3640 -0.4140  0.1556
   51MOL   C14428244   7.419   4.356   2.991  0.4109  0.6422  0.0166
   51MOL   C14528245   7.371   4.331   2.842  0.1581  0.0964  0.0899
   51MOL   C14628246   7.392   4.183   2.801  0.8921 -1.3263  0.1605
   51MOL   O14728247   7.303   4.111   2.881 -0.4638 -0.1221  0.4740
   51MOL   C14828248   7.274   3.980   2.842 -0.2336 -0.1474  0.5457
   51MOL   O14928249   7.318   3.916   2.741 -0.6593 -0.0412 -0.0501
   51MOL   C15028250   7.176   3.918   2.942  0.1781 -0.1197  0.9350
   51MOL   C15128251   7.158   3.996   3.060  0.6665  0.4203 -0.1097
   51MOL   C15228252   7.066   3.947   3.159 -0.5465  0.2783 -0.4880
   51MOL   C15328253   7.007   3.820   3.141 -0.3921  0.3617 -0.2636
   51MOL   C15428254   6.921   3.761   3.247 -0.3635 -0.3849  0.1780
   51MOL   O15528255   6.881   3.828   3.349 -0.1968  0.1128 -0.2306
   51MOL   C15628256   7.026   3.746   3.022  0.0063 -0.0383  0.1148
   51MOL   C15728257   7.111   3.799   2.921  0.2802  0.4123 -0.3759
   51MOL   H15828258   7.314   4.547   2.998  1.2614  0.3137  0.6637
   51MOL   H15928259   7.374   4.496   3.156  2.1904  2.0693 -1.8246
   51MOL   H16028260   7.419   4.267   3.054 -2.2961  0.3347 -0.3436
   51MOL   H16128261   7.528   4.365   2.988  0.3547  1.1624 -0.9057
   51MOL   H16228262   7.267   4.362   2.842  0.3943  1.1252  4.1961
   51MOL   H16328263   7.430   4.377   2.762 -0.8003  3.5851  1.3402
   51MOL   H16428264   7.360   4.182   2.697 -0.1569  0.5147  0.4451
   51MOL   H16528265   7.495   4.149   2.804  1.2651 -0.2580 -0.1035
   51MOL   H16628266   7.206   4.090   3.083 -0.3167  0.4172  2.0245
   51MOL   H16728267   7.054   4.002   3.251  0.1573  0.0494 -0.2521
   51MOL   H16828268   6.979   3.649   3.014  1.6478 -0.9467  1.3637
   51MOL   H16928269   7.125   3.750   2.826 -0.7977 -0.1663 -0.2495
   51MOL   O17028270   6.887   3.637   3.231  0.2815 -0.5164 -0.0527
   51MOL   C17128271   6.795   3.556   3.312 -0.5358  0.1023  0.6141
   51MOL   C17228272   6.851   3.419   3.353  1.0244  0.5509 -0.1872
   51MOL   C17328273   6.858   3.309   3.239 -0.8235  0.0788  0.7994
   51MOL   C17428274   6.968   3.333   3.140  0.2823  0.3368  0.4894
   51MOL   O17528275   7.082   3.286   3.211  0.0141 -0.4436 -0.0271
   51MOL   C17628276   7.193   3.243   3.150 -0.6914  0.2850 -0.7203
   51MOL   O17728277   7.209   3.248   3.031  0.0556  0.2954  0.0149
   51MOL   C17828278   7.297   3.189   3.242  0.1172 -0.2761 -0.8619
   51MOL   C17928279   7.296   3.198   3.383 -0.3033 -0.0800  0.1988
   51MOL   C18028280   7.395   3.155   3.465  0.1426  0.5015 -0.1032
   51MOL   C18128281   7.507   3.093   3.410  0.2363  0.6040  0.5366
   51MOL   C18228282   7.612   3.024   3.498  0.1390 -0.4883 -0.5342
   51MOL   O18328283   7.718   2.982   3.451 -0.3082  0.0931 -0.0899
   51MOL   C18428284   7.516   3.082   3.264  0.5745  0.1055 -0.4743
   51MOL   C18528285   7.406   3.120   3.186 -0.2217 -0.4330  0.0829
   51MOL   H18628286   6.751   3.613   3.395  0.8767  0.0792  1.3872
   51MOL   H18728287   6.710   3.528   3.250 -0.6663  0.4671  0.6261
   51MOL   H18828288   6.770   3.383   3.417  0.6694 -0.9095 -1.4177
   51MOL   H18928289   6.942   3.422   3.412 -0.2812  1.8327  1.8298
   51MOL   H19028290   6.878   3.208   3.273  0.9619  0.8674  2.2214
   51MOL   H19128291   6.763   3.307   3.185 -0.1264  1.4389 -0.5271
   51MOL   H19228292   6.957   3.278   3.047 -0.2949 -1.4389  1.5911
   51MOL   H19328293   6.981   3.438   3.114 -1.0782  0.0186 -1.5462
   51MOL   H19428294   7.214   3.241   3.440 -0.2052  2.8218 -1.7394
   51MOL   H19528295   7.384   3.163   3.572 -1.6818 -0.0249 -0.2267
   51MOL   H19628296   7.603   3.031   3.225  0.5669  0.6913 -1.2697
   51MOL   H19728297   7.405   3.106   3.079 -0.3876 -1.4588  0.2104
   51MOL   O19828298   7.587   3.029   3.637  0.6089  0.2772  1.1384
   51MOL   C19928299   7.692   3.006   3.725 -0.3928  0.1414  0.1176
   51MOL   C20028300   7.666   3.080   3.854 -0.3634 -0.9411 -0.1521
   51MOL   C20128301   7.673   3.228   3.845  0.2780  0.0176  0.6089
   51MOL   C20228302   7.575   3.292   3.744 -0.1789 -0.1037  0.2223
   51MOL   O20328303   7.588   3.432   3.751  0.3875  0.0797  0.3259
   51MOL   C20428304   7.506   3.497   3.838  0.4965 -0.1734  0.2171
   51MOL   O20528305   7.401   3.452   3.879  0.0898 -0.0528  0.0833
   51MOL   C20628306   7.550   3.630   3.883  0.1574  0.6494 -0.2849
   51MOL   C20728307   7.672   3.687   3.841 -0.4404  0.2552 -0.2444
   51MOL   C20828308   7.710   3.812   3.888 -0.0965 -0.4108 -0.3961
   51MOL   C20928309   7.628   3.887   3.976 -0.4848  0.1560 -1.2115
   51MOL   C21028310   7.670   4.017   4.033  0.1262 -0.1473  0.8993
   51MOL   O21128311   7.789   4.056   4.033  0.4592  0.2154 -0.0517
   51MOL   C21228312   7.501   3.835   4.009  0.0820  0.1283  0.0027
   51MOL   C21328313   7.463   3.708   3.964  0.4480  0.2142 -0.7997
   51MOL   H21428314   7.701   2.898   3.733  0.8432  0.1384 -1.1769
   51MOL   H21528315   7.788   3.039   3.683 -0.5905 -0.9513 -1.2138
   51MOL   H21628316   7.730   3.046   3.936 -1.0244  0.7031  1.0673
   51MOL   H21728317   7.568   3.051   3.891 -2.2076  1.4252 -2.9362
   51MOL   H21828318   7.652   3.274   3.942 -0.4089 -0.1121  0.5282
   51MOL   H21928319   7.776   3.256   3.825  0.3826 -2.3630 -2.3992
   51MOL   H22028320   7.594   3.260   3.642  0.0013 -0.5036  0.3827
   51MOL   H22128321   7.469   3.268   3.755 -0.5858  0.9846 -1.0911
   51MOL   H22228322   7.745   3.637   3.779 -0.7663 -0.9283  0.3041
   51MOL   H22328323   7.794   3.863   3.843  0.5968  0.3947  1.7315
   51MOL   H22428324   7.432   3.890   4.072 -0.2737  0.8423 -0.9982
   51MOL   H22528325   7.367   3.678   4.003  0.0428 -0.5525 -2.3109
   51MOL   O22628326   7.567   4.089   4.085  0.3239  0.2154  0.2025
   51MOL   C22728327   7.590   4.204   4.168  0.0340  0.2512 -0.0912
   51MOL   C22828328   7.596   4.166   4.316  0.3523  0.1600  0.4557
   51MOL   C22928329   7.563   4.284   4.402 -0.2615  0.2190  0.2003
   51MOL   C23028330   7.560   4.244   4.551  0.3985  0.6376  0.6887
   51MOL   O23128331   7.448   4.154   4.565 -0.2572  0.0696  0.1889
   51MOL   C23228332   7.326   4.203   4.590 -0.2446 -0.1180 -0.2870
   51MOL   O23328333   7.303   4.326   4.599  0.2556 -0.7805 -0.0472
   51MOL   C23428334   7.217   4.106   4.587 -0.0448  0.1295  0.0264
   51MOL   C23528335   7.121   4.106   4.689  0.2951 -0.3158 -0.7261
   51MOL   C23628336   7.012   4.019   4.678  0.1891 -0.8426 -0.6820
   51MOL   C23728337   7.009   3.926   4.576  0.0490 -0.7950  0.4898
   51MOL   C23828338   6.896   3.831   4.568  0.1427 -0.0928  0.4516
   51MOL   O23928339   6.831   3.786   4.660  0.4920 -0.1753  0.1046
   51MOL   C24028340   7.109   3.916   4.477 -0.1047 -0.5875 -0.0795
   51MOL   C24128341   7.219   4.011   4.483 -0.3798 -0.1783  0.4828
   51MOL   H24228342   7.672   4.263   4.125  2.0030 -3.6386 -2.0575
   51MOL   H24328343   7.503   4.268   4.157 -0.2306  0.2858  2.1867
   51MOL   H24428344   7.688   4.112   4.338 -0.1015  0.1662  2.4371
   51MOL   H24528345   7.513   4.095   4.327 -0.2466  0.9698  1.2515
   51MOL   H24628346   7.627   4.370   4.383 -0.7379  0.2257 -1.4180
   51MOL   H24728347   7.466   4.320   4.368 -0.6401 -0.6270  0.3609
   51MOL   H24828348   7.654   4.189   4.565  0.8280  1.1347 -0.2313
   51MOL   H24928349   7.556   4.333   4.614 -0.5657 -0.7861  2.7003
   51MOL   H25028350   7.115   4.177   4.770 -0.2399 -0.5106 -0.5886
   51MOL   H25128351   6.937   4.030   4.756  0.2191 -2.5211 -0.3791
   51MOL   H25228352   7.104   3.838   4.402 -0.7866 -2.4698  1.8582
   51MOL   H25328353   7.285   4.023   4.398  1.5810 -1.1903  1.8227
   51MOL   O25428354   6.882   3.791   4.441 -0.5623  0.4527  0.8258
   51MOL   C25528355   6.765   3.736   4.393  0.4360 -0.1039  0.0943
   51MOL   C25628356   6.804   3.617   4.312 -0.0052  0.0050 -0.6731
   51MOL   C25728357   6.880   3.651   4.182  0.6042 -0.0711  0.2572
   51MOL   C25828358   6.911   3.528   4.101 -1.1009  0.7746 -0.5929
   51MOL   O25928359   6.997   3.558   3.986  0.1348  0.2169 -0.1178
   51MOL   C26028360   7.009   3.480   3.877  0.7186  0.3661  0.5227
   51MOL   O26128361   6.949   3.371   3.864  0.3180 -0.6539 -0.1177
   51MOL   C26228362   7.095   3.543   3.768 -0.4508 -0.5928 -0.3024
   51MOL   C26328363   7.101   3.478   3.643  0.1327 -0.9514  1.2183
   51MOL   C26428364   7.171   3.535   3.534  0.8255 -0.2969  0.8630
   51MOL   C26528365   7.239   3.657   3.549 -0.4454  0.7045  0.5725
   51MOL   C26628366   7.321   3.708   3.435 -0.2962 -0.0700 -0.3003
   51MOL   O26728367   7.384   3.814   3.436  0.1476  0.5901  0.3837
   51MOL   C26828368   7.243   3.718   3.675  0.0101 -0.1609  0.1731
   51MOL   C26928369   7.168   3.664   3.786  0.3794 -0.8279 -0.1034
   51MOL   H27028370   6.691   3.708   4.468 -0.3205  0.3250 -0.4970
   51MOL   H27128371   6.715   3.812   4.334  1.5171 -0.3228 -1.1365
   51MOL   H27228372   6.708   3.566   4.298  0.5006 -0.6996 -1.6873
   51MOL   H27328373   6.860   3.546   4.372 -0.2052  0.0134 -0.4746
   51MOL   H27428374   6.835   3.735   4.128 -2.4372 -1.6123  0.2846
   51MOL   H27528375   6.974   3.695   4.215  0.6360  0.8286 -1.0048
   51MOL   H27628376   6.950   3.444   4.159 -2.9402  0.4652  0.2418
   51MOL   H27728377   6.817   3.487   4.063  0.8619 -0.7624 -4.0802
   51MOL   H27828378   7.047   3.386   3.624  2.2200 -2.2939  1.6173
   51MOL   H27928379   7.166   3.486   3.438  0.5372  2.2618 -0.4716
   51MOL   H28028380   7.297   3.810   3.689 -0.4739  0.0400  0.7540
   51MOL   H28128381   7.175   3.708   3.884 -3.0273 -1.4729  0.4933
   51MOL   O28228382   7.321   3.620   3.330 -0.3603 -0.0434  0.1581
   51MOL   C28328383   7.379   3.653   3.204  0.0528 -0.0748  0.4667
   51MOL   C28428384   7.373   3.545   3.096 -0.1215  0.1730 -0.4370
   51MOL   C28528385   7.435   3.579   2.962  0.0642  0.0494 -0.9897
   51MOL   C28628386   7.445   3.457   2.870  0.1700 -0.1838 -0.7476
   51MOL   O28728387   7.538   3.368   2.925  0.8064  0.6407 -0.6786
   51MOL   C28828388   7.662   3.342   2.869  0.5148  0.6827  0.4960
   51MOL   O28928389   7.702   3.392   2.768  0.2201  0.3629 -0.1379
   51MOL   C29028390   7.751   3.256   2.950  0.2395 -0.3662  0.2140
   51MOL   C29128391   7.745   3.259   3.090 -0.1252 -0.0042  0.2337
   51MOL   C29228392   7.828   3.165   3.162  0.0281 -0.1232  0.0915
   51MOL   C29328393   7.920   3.085   3.092  0.6043 -0.8401 -0.2444
   51MOL   C29428394   8.008   2.988   3.172 -0.4858  0.5066 -0.1522
   51MOL   O29528395   8.049   2.881   3.129 -0.5167  0.2293  0.1407
   51MOL   C29628396   7.935   3.097   2.954 -0.3236  0.2133  0.0530
   51MOL   C29728397   7.848   3.181   2.883 -0.3763  0.1102 -0.8860
   51MOL   H29828398   7.328   3.740   3.163  1.1433  0.8207  0.9918
   51MOL   H29928399   7.478   3.695   3.214  0.4735 -0.2686 -2.3938
   51MOL   H30028400   7.272   3.506   3.081  0.0213  0.4718 -2.2378
   51MOL   H30128401   7.426   3.454   3.125  0.8711  1.0190  0.4447
   51MOL   H30228402   7.385   3.660   2.909 -1.5774 -1.4755 -1.8208
   51MOL   H30328403   7.538   3.607   2.984  0.2776 -1.9722  0.7999
   51MOL   H30428404   7.343   3.418   2.871 -0.2883  0.9865 -0.1862
   51MOL   H30528405   7.476   3.483   2.769 -0.0213 -0.5920 -0.9131
   51MOL   H30628406   7.689   3.340   3.134  2.3742  2.7436 -1.4597
   51MOL   H30728407   7.810   3.161   3.269 -2.1225  0.4669 -0.2263
   51MOL   H30828408   8.011   3.042   2.900  0.1666 -0.0336  0.9937
   51MOL   H30928409   7.857   3.192   2.776  0.5064 -0.3530 -0.8590
   51MOL   O31028410   8.035   3.030   3.296  0.3223 -0.0218 -0.7741
   51MOL   C31128411   0.025   2.954   3.384  0.2684  0.4594 -0.2268
   51MOL   C31228412   8.075   2.990   3.528 -0.2678 -0.3635 -0.5014
   51MOL   C31328413   0.079   2.942   3.642  0.0705 -0.5249  0.0469
   51MOL   C31428414   0.025   2.932   3.788 -0.1167 -0.8545  0.9271
   51MOL   O31528415   0.001   3.063   3.830  0.4913 -0.2963 -0.3820
   51MOL   C31628416   8.064   3.083   3.960 -0.6384  0.6825  0.9451
   51MOL   O31728417   8.055   2.990   4.039  0.8876 -0.1885  0.2776
   51MOL   C31828418   8.059   3.220   4.002 -0.5762  0.3289  0.0123
   51MOL   C31928419   8.066   3.249   4.140  0.3289  0.0530 -0.3179
   51MOL   C32028420   8.049   3.382   4.178 -0.0013 -0.0919  0.4591
   51MOL   C32128421   8.052   3.487   4.083  0.2967  0.0340  0.4577
   51MOL   C32228422   8.072   3.628   4.122  0.0007 -0.4161 -0.4984
   51MOL   O32328423   8.073   3.722   4.045 -0.3405 -0.0476  0.1061
   51MOL   C32428424   8.050   3.461   3.948 -0.1510  0.1981  0.4410
   51MOL   C32528425   8.063   3.325   3.906 -0.4399  0.4189 -0.4057
   51MOL   H32628426   0.033   2.846   3.373  1.3255  0.6317 -1.2714
   51MOL   H32728427   0.126   2.994   3.373 -0.4090  2.0082 -1.0053
   51MOL   H32828428   7.976   2.949   3.546  0.4644 -0.9541  2.5120
   51MOL   H32928429   8.060   3.098   3.530  1.1897 -0.1622  1.3902
   51MOL   H33028430   0.095   2.839   3.610  1.3992  0.3390 -2.1835
   51MOL   H33128431   0.174   2.993   3.627 -1.0858  2.0022  0.9563
   51MOL   H33228432   8.027   2.881   3.785 -2.1274  2.8126 -1.1575
   51MOL   H33328433   0.100   2.883   3.850 -0.2710 -2.7234 -0.3409
   51MOL   H33428434   8.075   3.173   4.216 -0.6364 -1.7462 -1.9279
   51MOL   H33528435   8.053   3.401   4.285 -0.1211 -1.5269  0.7347
   51MOL   H33628436   8.065   3.533   3.868  0.2866 -0.8054 -0.3993
   51MOL   H33728437   8.082   3.304   3.802  2.1122  0.4345  0.0394
   51MOL   O33828438   8.083   3.638   4.253 -0.4547  0.1936 -0.1440
   51MOL   C33928439   0.018   3.758   4.313 -0.1421 -0.0967  0.6111
   51MOL   C34028440   0.029   3.746   4.462  0.3341  0.1425  1.0477
   51MOL   C34128441   0.093   3.882   4.520 -0.2060  0.7228  0.3600
   51MOL   C34228442   0.130   3.871   4.667 -0.7068  0.4747 -0.2297
   51MOL   O34328443   0.223   3.767   4.686  0.1788 -0.5331  0.2390
   51MOL   C34428444   0.343   3.805   4.708 -0.1700  0.2650 -0.5735
   51MOL   O34528445   0.385   3.919   4.723  0.3141 -0.0626 -0.4097
   51MOL   C34628446   0.433   3.684   4.720 -0.6842 -0.2215 -0.1430
   51MOL   C34728447   0.556   3.697   4.791 -0.1727 -0.3849  0.5030
   51MOL   C34828448   0.644   3.581   4.805 -0.3685 -0.0620 -0.3552
   51MOL   C34928449   0.609   3.459   4.743  0.1367  0.2735  0.1126
   51MOL   C35028450   0.688   3.334   4.759  0.3740  0.2914 -1.3413
   51MOL   O35128451   0.665   3.230   4.695 -0.1612 -0.0138 -0.0969
   51MOL   C35228452   0.494   3.450   4.658 -0.0322 -0.0749 -0.2636
   51MOL   C35328453   0.410   3.563   4.654 -0.4741  0.4572 -0.2164
   51MOL   H35428454   0.106   3.801   4.265 -0.5930  1.7196  1.3612
   51MOL   H35528455   8.053   3.841   4.281  0.2619  0.8455  2.2018
   51MOL   H35628456   0.110   3.676   4.481  0.4324 -0.6842 -2.2241
   51MOL   H35728457   8.036   3.711   4.508 -1.2070 -0.2238 -2.1532
   51MOL   H35828458   0.179   3.915   4.462  0.3649 -1.0610  0.1449
   51MOL   H35928459   0.024   3.966   4.511 -0.1304  0.8037  0.5582
   51MOL   H36028460   0.162   3.965   4.711 -0.4396  0.6928 -0.8900
   51MOL   H36128461   0.048   3.847   4.735 -0.2298 -0.5657 -0.0078
   51MOL   H36228462   0.572   3.789   4.846 -2.0010 -0.7797  1.7433
   51MOL   H36328463   0.736   3.589   4.862  0.1347 -0.6771 -1.0716
   51MOL   H36428464   0.470   3.358   4.608 -0.6620 -0.6811  1.1216
   51MOL   H36528465   0.326   3.556   4.586  0.8511  0.4979 -1.8764
   51MOL   O36628466   0.779   3.340   4.854 -0.3810 -0.2142  0.2073
   51MOL   C36728467   0.881   3.245   4.852 -0.3477  0.3921 -0.3045
   51MOL   C36828468   0.991   3.272   4.949  0.1301 -0.1775 -0.4041
   51MOL   C36928469   0.938   3.299   5.088 -0.0360  0.2036  0.4762
   51MOL   C37028470   1.040   3.267   5.188 -0.4988 -0.4379  0.3909
   51MOL   O37128471   0.987   3.292   5.323 -0.7880 -0.2697  0.8271
   51MOL   C37228472   1.063   3.241   5.419 -0.0213 -0.5002 -0.1436
   51MOL   O37328473   1.162   3.162   5.404 -0.7476 -0.1806 -0.5181
   51MOL   C37428474   1.025   3.295   5.555 -0.1882  0.2933  0.7646
   51MOL   C37528475   0.940   3.406   5.562  0.4041 -0.3726  0.1255
   51MOL   C37628476   0.910   3.467   5.681 -0.3822 -0.0791 -0.1276
   51MOL   C37728477   0.965   3.425   5.803  0.0652  0.0412  0.1445
   51MOL   C37828478   0.936   3.486   5.931  0.1431 -0.1930 -0.0996
   51MOL   O37928479   0.981   3.445   6.040  0.6011  0.2183 -0.3453
   51MOL   C38028480   1.053   3.313   5.796 -0.3117 -0.6563  0.3027
   51MOL   C38128481   1.086   3.253   5.676  0.0087 -0.2716  0.3650
   51MOL   H38228482   0.845   3.143   4.864  1.8166 -0.3855 -0.2046
   51MOL   H38328483   0.927   3.236   4.754 -0.2996 -2.2666 -0.0952
   51MOL   H38428484   1.034   3.363   4.906 -0.9887  0.1110 -0.9400
   51MOL   H38528485   1.065   3.193   4.950  0.2815 -0.0220  0.3902
   51MOL   H38628486   0.905   3.403   5.093  0.2874  0.5203 -2.7738
   51MOL   H38728487   0.855   3.233   5.114  1.3543 -1.7417  0.1062
   51MOL   H38828488   1.051   3.160   5.172 -0.0149 -0.2124 -0.7818
   51MOL   H38928489   1.140   3.308   5.179 -0.0302 -1.9381 -1.5516
   51MOL   H39028490   0.889   3.446   5.475 -0.4171  1.2013  1.2933
   51MOL   H39128491   0.855   3.559   5.673  0.4331  0.2863 -1.6614
   51MOL   H39228492   1.095   3.272   5.886 -1.7135 -0.7445  0.9287
   51MOL   H39328493   1.156   3.172   5.664  1.0723  0.7751 -0.5892
   51MOL   O39428494   0.872   3.604   5.912  0.4880  0.3465 -0.2783
   51MOL   C39528495   0.851   3.686   6.021 -0.4476  0.3411  0.0322
   51MOL   C39628496   0.747   3.794   5.980 -0.3848 -0.3239 -0.3705
   51MOL   C39728497   0.600   3.748   5.940  0.1116 -0.2420  0.3498
   51MOL   C39828498   0.504   3.862   5.915  0.0592  0.2841  0.0354
   51MOL   O39928499   0.476   3.926   6.039  0.2160 -0.1795  0.0904
   51MOL   C40028500   0.351   3.952   6.084  0.5711 -0.2203  0.0218
   51MOL   O40128501   0.253   3.925   6.013  0.1067 -0.8969 -0.3304
   51MOL   C40228502   0.348   4.025   6.215  0.4152  0.3893 -0.0382
   51MOL   C40328503   0.246   4.114   6.250  0.4719 -0.2515 -0.3372
   51MOL   C40428504   0.258   4.204   6.357  0.0884 -0.7590 -0.2586
   51MOL   C40528505   0.377   4.206   6.432  0.4974  0.0175 -0.5137
   51MOL   C40628506   0.397   4.295   6.551 -0.7579 -0.0444  0.2943
   51MOL   O40728507   0.343   4.405   6.573 -0.0499  0.0314 -0.0245
   51MOL   C40828508   0.480   4.118   6.396 -0.2965 -0.2527  0.5031
   51MOL   C40928509   0.465   4.035   6.283  0.5777  0.9118 -0.1344
   51MOL   H41028510   0.816   3.625   6.105  0.4187  0.4953  0.5149
   51MOL   H41128511   0.942   3.729   6.064  0.9025 -2.8923  0.5802
   51MOL   H41228512   0.786   3.860   5.903  0.9677 -2.1939 -1.3246
   51MOL   H41328513   0.732   3.854   6.070 -0.8178 -1.5499  0.3949
   51MOL   H41428514   0.600   3.684   5.852 -1.1954 -3.0774  2.3164
   51MOL   H41528515   0.560   3.684   6.018  1.1451  0.0070  1.0946
   51MOL   H41628516   0.543   3.933   5.844 -0.1156  0.9508  0.6039
   51MOL   H41728517   0.418   3.808   5.875  1.0242 -0.3588 -1.2019
   51MOL   H41828518   0.159   4.110   6.187  0.1586 -1.5259  0.1635
   51MOL   H41928519   0.167   4.258   6.382  0.1002 -0.4310 -0.9178
   51MOL   H42028520   0.578   4.112   6.440 -0.5319 -0.9596  0.9471
   51MOL   H42128521   0.556   3.985   6.252  1.0273  0.7487  1.3991
   51MOL   O42228522   0.486   4.240   6.631  0.4966  0.6338 -0.5441
   51MOL   C42328523   0.529   4.304   6.752 -0.0310  0.0172 -0.4741
   51MOL   C42428524   0.634   4.414   6.727  0.0048  0.4535  0.3145
   51MOL   C42528525   0.757   4.368   6.656  0.2263 -0.1707  0.0797
   51MOL   C42628526   0.851   4.490   6.619 -0.6517  0.0844  0.0789
   51MOL   O42728527   0.779   4.576   6.533 -0.5352  0.2283  0.2571
   51MOL   C42828528   0.808   4.590   6.410 -0.2843 -0.3519  0.0175
   51MOL   O42928529   0.902   4.543   6.351 -0.8778 -0.3487 -0.2552
   51MOL   C43028530   0.717   4.669   6.332  0.7347 -0.1508  0.0594
   51MOL   C43128531   0.759   4.712   6.198 -0.1068 -0.1389 -0.0725
   51MOL   C43228532   0.667   4.788   6.122  0.4344 -0.4798 -0.5884
   51MOL   C43328533   0.542   4.825   6.177  0.3665  0.1011 -0.0876
   51MOL   C43428534   0.440   4.888   6.094  0.2857  0.3121  0.1405
   51MOL   O43528535   0.447   4.910   5.975 -0.0295  0.2725  0.0317
   51MOL   C43628536   0.508   4.785   6.314  0.7240  0.0343 -0.0241
   51MOL   C43728537   0.598   4.719   6.393  0.1069 -0.5940  0.2370
   51MOL   H43828538   0.447   4.353   6.804 -0.1551 -0.2102 -0.4588
   51MOL   H43928539   0.556   4.230   6.827  0.6508  0.9396  0.2091
   51MOL   H44028540   0.668   4.437   6.829  0.2288 -0.4949  0.4622
   51MOL   H44128541   0.588   4.503   6.685 -0.6479  0.0689  0.2057
   51MOL   H44228542   0.807   4.299   6.725  0.9646  0.1852 -0.0898
   51MOL   H44328543   0.738   4.319   6.561 -0.8650 -0.0527  0.2312
   51MOL   H44428544   0.875   4.545   6.710 -0.3844  1.4399 -0.8029
   51MOL   H44528545   0.942   4.446   6.579  0.2615  1.5019  0.5860
   51MOL   H44628546   0.841   4.665   6.145  0.0826 -2.0712  1.8565
   51MOL   H44728547   0.689   4.823   6.023  0.1577  3.0097  0.5079
   51MOL   H44828548   0.414   4.813   6.357  1.1603  2.4020 -0.5206
   51MOL   H44928549   0.589   4.703   6.500 -0.1771 -1.4002  0.1004
   51MOL   O45028550   0.333   4.926   6.160  0.2591 -0.0636  0.5038
   51MOL   C45128551   0.250   5.031   6.112 -0.6485  0.7252 -0.0626
   51MOL   C45228552   0.271   5.156   6.198 -0.8349 -0.1184  0.2964
   51MOL   C45328553   0.236   5.141   6.348  0.2085 -0.4400 -0.5253
   51MOL   C45428554   0.092   5.159   6.396  0.3557  0.0915  0.0111
   51MOL   O45528555   0.051   5.287   6.430 -0.0391 -0.5346  0.7007
   51MOL   C45628556   8.021   5.316   6.481  0.2410 -0.0304 -0.4403
   51MOL   O45728557   7.946   5.229   6.535  0.2790  0.5655  0.2845
   51MOL   C45828558   7.994   5.457   6.481  0.8549  0.0823  0.1238
   51MOL   C45928559   7.878   5.510   6.556  0.0028  0.6969  0.2531
   51MOL   C46028560   7.842   5.646   6.547 -0.9847  0.2028 -0.0737
   51MOL   C46128561   7.913   5.737   6.464  0.4071 -0.0970 -0.1161
   51MOL   C46228562   7.864   5.882   6.449 -0.0787 -0.1027 -0.0967
   51MOL   O46328563   7.779   5.935   6.516 -0.2562 -1.0817 -0.1171
   51MOL   C46428564   8.016   5.686   6.383  0.3028 -0.0172  0.1667
   51MOL   C46528565   8.058   5.552   6.399 -0.2724  0.4366 -1.0147
   51MOL   H46628566   0.266   5.062   6.008 -1.6115  0.5398 -0.2662
   51MOL   H46728567   0.149   4.990   6.117  0.0415 -0.6956  3.2024
   51MOL   H46828568   0.212   5.241   6.163  0.9630  2.4793  3.3556
   51MOL   H46928569   0.373   5.189   6.178 -0.4392 -1.5700 -0.1346
   51MOL   H47028570   0.268   5.042   6.380  0.4059 -0.5998 -1.1990
   51MOL   H47128571   0.297   5.202   6.414 -2.2043 -0.0659  1.4381
   51MOL   H47228572   0.023   5.129   6.317  0.6272 -0.9949  0.1853
   51MOL   H47328573   0.071   5.083   6.471  0.7422 -1.6525 -1.6085
   51MOL   H47428574   7.817   5.439   6.611  1.3859 -0.9330 -0.2598
   51MOL   H47528575   7.754   5.679   6.601 -1.1687  0.0262 -0.2683
   51MOL   H47628576   8.067   5.752   6.315  3.4922 -1.9603  0.5761
   51MOL   H47728577   0.039   5.516   6.335 -1.2615 -1.7687 -1.0849
   51MOL   O47828578   7.937   5.960   6.363 -0.1603 -0.1449  0.1634
   51MOL   C47928579   7.917   6.093   6.368 -0.0315  0.1692  0.3206
   51MOL   C48028580   7.992   6.161   6.249  0.6061 -0.5119 -0.0164
   51MOL   C48128581   7.959   6.313   6.235 -0.1026 -0.0566 -0.3990
   51MOL   C48228582   8.074   6.395   6.185  0.2357 -0.4833 -0.0065
   51MOL   O48328583   8.058   6.533   6.224 -0.2439 -0.0657 -0.2030
   51MOL   C48428584   8.012   6.630   6.140  0.0252  0.3637  0.4304
   51MOL   O48528585   7.956   6.598   6.035 -0.2102 -0.4843  0.4200
   51MOL   C48628586   8.043   6.771   6.192 -0.1845 -0.2001 -0.2127
   51MOL   C48728587   8.083   6.795   6.324  0.2171  0.1942  0.2340
   51MOL   C48828588   0.021   6.923   6.371  0.4400 -0.5184 -1.2486
   51MOL   C48928589   0.004   7.034   6.290  0.1092  0.9481 -0.0997
   51MOL   C49028590   0.052   7.171   6.333  0.8484  1.1443 -0.3532
   51MOL   O49128591   8.093   7.269   6.289 -0.3124  0.6342 -0.1427
   51MOL   C49228592   8.046   7.020   6.161  0.3429  0.3126  0.1246
   51MOL   C49328593   8.024   6.887   6.113  0.4141  0.4524 -0.2606
   51MOL   H49428594   7.810   6.110   6.358 -0.3744 -2.3301 -0.5980
   51MOL   H49528595   7.940   6.143   6.462  2.3608  2.5152 -1.3854
   51MOL   H49628596   7.969   6.106   6.158  0.1427  1.3631 -1.0610
   51MOL   H49728597   0.003   6.162   6.244  0.6046  1.6524 -0.4017
   51MOL   H49828598   7.874   6.323   6.167 -0.4336 -0.6605 -0.0813
   51MOL   H49928599   7.935   6.348   6.335 -0.2839 -1.3211  0.0096
   51MOL   H50028600   0.069   6.349   6.218  0.6082 -0.4849 -1.0427
   51MOL   H50128601   8.068   6.383   6.077 -0.9394 -1.1336  0.1143
   51MOL   H50228602   0.005   6.711   6.389 -1.2796  0.5999  1.2366
   51MOL   H50328603   0.046   6.941   6.475 -1.8227 -1.2307 -0.5726
   51MOL   H50428604   8.030   7.108   6.101 -1.5421  0.1871  0.4060
   51MOL   H50528605   7.984   6.881   6.012 -1.8122  2.0792  0.4721
   51MOL   O50628606   0.172   7.174   6.402  0.7212  0.0486  0.1405
   51MOL   C50728607   0.234   7.299   6.422  0.5161 -0.4384 -0.0552
   51MOL   C50828608   0.383   7.289   6.458  0.0864  0.0283  0.0577
   51MOL   C50928609   0.430   7.204   6.573  0.1415  0.2077  0.4354
   51MOL   C51028610   0.569   7.245   6.627 -0.3796  0.7853  1.1014
   51MOL   O51128611   0.673   7.250   6.526 -0.6119  0.1933 -0.6035
   51MOL   C51228612   0.750   7.142   6.494  0.5144 -0.1329 -0.0472
   51MOL   O51328613   0.768   7.046   6.564  0.4478 -0.2205 -0.4643
   51MOL   C51428614   0.822   7.160   6.363  0.6465 -0.6021 -0.4580
   51MOL   C51528615   0.902   7.060   6.311 -0.7700 -0.0832  0.6130
   51MOL   C51628616   0.972   7.074   6.192  0.1568 -0.6903  0.4241
   51MOL   C51728617   0.961   7.193   6.112  0.0397  0.0491 -0.6903
   51MOL   C51828618   1.043   7.205   5.982 -0.0379 -0.7036  0.0241
   51MOL   O51928619   1.150   7.149   5.964 -0.3358 -0.0030  0.3734
   51MOL   C52028620   0.874   7.299   6.159  0.4886  0.0840  0.5627
   51MOL   C52128621   0.804   7.280   6.281 -0.0640 -0.0936 -0.2004
   51MOL   H52228622   0.225   7.339   6.321  1.0278 -1.3697 -0.4820
   51MOL   H52328623   0.177   7.365   6.488 -0.5353  1.5131 -2.8469
   51MOL   H52428624   0.417   7.390   6.476  2.5584 -0.4632 -1.6221
   51MOL   H52528625   0.431   7.245   6.370 -2.3072 -0.5844 -0.9988
   51MOL   H52628626   0.374   7.214   6.667 -0.5215 -1.5603  0.2484
   51MOL   H52728627   0.405   7.099   6.557  0.2496  0.1868  0.4107
   51MOL   H52828628   0.562   7.344   6.671 -0.2918  1.3073 -0.0288
   51MOL   H52928629   0.591   7.181   6.713 -0.7104 -1.2117 -0.2621
   51MOL   H53028630   0.924   6.971   6.369 -2.7156 -0.0028  1.4898
   51MOL   H53128631   1.041   7.001   6.153  0.9729 -0.1318  0.8094
   51MOL   H53228632   0.864   7.395   6.109  0.2044 -0.2607 -0.0447
   51MOL   H53328633   0.745   7.363   6.318  1.1471  1.3347 -1.4603
   51MOL   O53428634   0.989   7.291   5.894 -0.1846  0.2327 -0.2454
   51MOL   C53528635   1.037   7.292   5.758 -0.4397  0.3229 -0.2250
   51MOL   C53628636   0.950   7.370   5.665  0.0898 -0.2428 -0.7085
   51MOL   C53728637   0.998   7.380   5.522 -0.1659  0.3276  0.4111
   51MOL   C53828638   0.891   7.380   5.414 -0.0857  0.2709 -0.3410
   51MOL   O53928639   0.950   7.440   5.293 -0.0777  1.1785 -0.2132
   51MOL   C54028640   0.875   7.505   5.203  0.0985  0.7859  1.0373
   51MOL   O54128641   0.750   7.516   5.218 -0.3144 -0.0437 -0.1471
   51MOL   C54228642   0.950   7.544   5.076  0.0744  0.8535 -0.8335
   51MOL   C54328643   0.880   7.589   4.969  0.3578 -0.8603  0.7440
   51MOL   C54428644   0.957   7.628   4.853 -0.3149  0.4858  0.5465
   51MOL   C54528645   1.096   7.625   4.844  0.2112  0.4678 -0.3702
   51MOL   C54628646   1.184   7.678   4.732  0.6093  0.2723 -0.8072
   51MOL   O54728647   1.307   7.668   4.738 -0.2141  0.0006 -0.2987
   51MOL   C54828648   1.163   7.572   4.959  0.2347 -0.1314  0.2517
   51MOL   C54928649   1.089   7.533   5.075  0.2531  0.5214  0.0450
   51MOL   H55028650   1.131   7.346   5.756  0.2363 -0.8844 -1.7267
   51MOL   H55128651   1.056   7.191   5.721  2.3254  0.1606  1.4943
   51MOL   H55228652   0.928   7.468   5.708 -2.6388 -1.6894  1.3346
   51MOL   H55328653   0.858   7.313   5.654 -1.0291  1.1072  1.3192
   51MOL   H55428654   1.059   7.470   5.512 -0.4094  0.4279 -0.1607
   51MOL   H55528655   1.058   7.292   5.501 -2.8195 -0.9606 -2.0844
   51MOL   H55628656   0.838   7.286   5.400 -0.9780  0.2120  3.1081
   51MOL   H55728657   0.812   7.449   5.443  0.3524  0.1748  1.1248
   51MOL   H55828658   0.773   7.593   4.976  0.3788 -0.3222  0.7656
   51MOL   H55928659   0.895   7.673   4.777 -0.6901  0.9136  1.1022
   51MOL   H56028660   1.271   7.565   4.962  0.2444 -1.2054 -1.4313
   51MOL   H56128661   1.140   7.510   5.167 -1.5677  2.9648  1.7215
   51MOL   H56228662   1.125   7.722   4.651 -0.7640 -0.8910 -0.4624
   52MOL     O128663   0.725   0.448   0.194 -0.4138 -0.2009 -0.0744
   52MOL     C228664   0.793   0.504   0.300  0.0490 -0.9513 -0.3115
   52MOL     C328665   0.906   0.588   0.251  0.2955 -0.4456 -0.2797
   52MOL     C428666   0.861   0.700   0.149  0.0017 -0.2224  1.0659
   52MOL     C528667   0.804   0.818   0.222 -0.1300  0.4621  0.6556
   52MOL     O628668   0.791   0.926   0.138  0.2796  0.3439  0.0340
   52MOL     C728669   0.711   1.028   0.173 -0.4918 -0.3577 -0.2815
   52MOL     O828670   0.648   1.035   0.279 -0.0574 -0.1446 -0.0526
   52MOL     C928671   0.710   1.144   0.080  0.1093  0.5535  0.0939
   52MOL    C1028672   0.810   1.151   8.081 -0.0653  0.6953  0.8644
   52MOL    C1128673   0.806   1.255   7.986  0.3316 -0.1596 -0.0289
   52MOL    C1228674   0.698   1.351   7.987 -1.1818 -0.7709 -0.2791
   52MOL    C1328675   0.702   1.464   7.889  0.3338 -0.1932 -0.0510
   52MOL    O1428676   0.789   1.479   7.803  0.1343 -0.2593  0.3714
   52MOL    C1528677   0.596   1.333   8.090 -0.0459  0.1027  0.0776
   52MOL    C1628678   0.603   1.231   0.083 -0.3558 -1.2264 -0.0719
   52MOL    H1728679   0.726   0.569   0.356  0.0834 -1.4216  0.2932
   52MOL    H1828680   0.834   0.435   0.374  0.2795  0.3380  0.7907
   52MOL    H1928681   0.969   0.519   0.195  0.5618 -0.2350 -0.2451
   52MOL    H2028682   0.961   0.616   0.341 -1.2939 -0.1272  0.5935
   52MOL    H2128683   0.943   0.730   0.083 -0.9368 -1.3316 -0.6118
   52MOL    H2228684   0.787   0.656   0.084 -0.0323 -0.0225  0.9683
   52MOL    H2328685   0.711   0.799   0.275 -1.4062  0.9762 -1.3448
   52MOL    H2428686   0.874   0.863   0.293  1.0450 -0.2446 -0.0275
   52MOL    H2528687   0.885   1.076   8.062 -1.5437 -0.6223  0.1307
   52MOL    H2628688   0.894   1.254   7.922  0.4980  1.6308  0.1566
   52MOL    H2728689   0.510   1.397   8.092 -0.8681 -0.9279 -1.2153
   52MOL    H2828690   0.525   1.221   0.158  0.6552  0.0593  1.1865
   52MOL    H2928691   0.657   0.392   0.227 -0.3151 -0.6711 -0.6451
   52MOL    O3028692   0.605   1.554   7.914  0.1567  0.7359  0.1027
   52MOL    C3128693   0.618   1.679   7.870  0.0241  0.4627 -0.4074
   52MOL    C3228694   0.481   1.742   7.874 -0.3585  0.2979  0.2164
   52MOL    C3328695   0.438   1.810   8.008  0.0704  0.3148 -0.4000
   52MOL    C3428696   0.334   1.924   7.990  0.2592  0.3515 -0.1404
   52MOL    O3528697   0.224   1.869   7.924  0.8082  0.2877 -0.1809
   52MOL    C3628698   0.098   1.857   7.979  0.4424 -0.3776 -0.1837
   52MOL    O3728699   0.072   1.907   8.088  0.1174  0.6917  0.3444
   52MOL    C3828700   8.098   1.771   7.908 -0.2488  0.5166 -0.0263
   52MOL    C3928701   7.962   1.777   7.936  0.3212  0.3511 -0.2539
   52MOL    C4028702   7.872   1.709   7.856  0.2047  0.1512 -0.1489
   52MOL    C4128703   7.922   1.630   7.747 -0.4492 -0.3532 -0.2053
   52MOL    C4228704   7.834   1.546   7.655  0.2251 -0.6017 -0.0380
   52MOL    O4328705   7.716   1.553   7.664  0.4230 -0.9313 -0.0562
   52MOL    C4428706   8.065   1.619   7.726 -0.3392 -0.6331  0.1693
   52MOL    C4528707   0.056   1.684   7.810  0.5796  0.2660  0.7800
   52MOL    H4628708   0.699   1.738   7.913  0.6877  0.8310 -2.1070
   52MOL    H4728709   0.646   1.664   7.765  1.9892 -0.6498  0.2340
   52MOL    H4828710   0.402   1.675   7.840 -0.6188  0.7449 -0.0631
   52MOL    H4928711   0.488   1.825   7.804 -0.7564 -1.6207 -2.1584
   52MOL    H5028712   0.407   1.731   8.076 -0.1795 -1.8994 -3.0241
   52MOL    H5128713   0.533   1.851   8.044  0.2695 -0.3446 -0.1663
   52MOL    H5228714   0.308   1.963   8.088 -2.0259 -1.3746 -0.0187
   52MOL    H5328715   0.380   2.000   7.927 -1.3154  0.3748 -1.2915
   52MOL    H5428716   7.930   1.841   8.017 -1.5258  0.3497 -0.9388
   52MOL    H5528717   7.764   1.707   7.861  0.1732 -0.2333 -0.9564
   52MOL    H5628718   0.006   1.547   7.656 -0.2129 -1.2101  0.8287
   52MOL    H5728719   0.161   1.680   7.782  0.4865 -2.5851  0.7343
   52MOL    O5828720   7.899   1.470   7.566  0.6982 -0.4871 -0.1686
   52MOL    C5928721   7.828   1.371   7.494 -0.9233  0.2713 -0.6314
   52MOL    C6028722   7.873   1.230   7.527 -0.5220  0.1142 -0.3566
   52MOL    C6128723   7.814   1.179   7.657  0.5626  0.6309  0.2397
   52MOL    C6228724   7.823   1.020   7.663  0.2088 -0.7540 -0.3385
   52MOL    O6328725   7.949   0.978   7.709  0.3159  0.5711 -0.2540
   52MOL    C6428726   7.974   0.848   7.733  0.0069 -0.3574 -0.3429
   52MOL    O6528727   7.905   0.753   7.700  0.1726  0.4169  0.4864
   52MOL    C6628728   0.002   0.821   7.804  0.2309 -1.0096  0.3305
   52MOL    C6728729   0.078   0.712   7.781  0.3410  0.2163  0.7539
   52MOL    C6828730   0.188   0.679   7.853 -0.1852  0.0038 -0.3740
   52MOL    C6928731   0.231   0.761   7.962  0.4614 -0.2039 -0.1516
   52MOL    C7028732   0.353   0.738   8.041  0.4586  0.2325 -0.2571
   52MOL    O7128733   0.407   0.819   0.016 -0.2509 -0.5161 -0.2947
   52MOL    C7228734   0.154   0.876   7.990 -0.7141  0.2353  0.4279
   52MOL    C7328735   0.043   0.904   7.909 -0.3088  0.1280 -1.2505
   52MOL    H7428736   7.721   1.379   7.475 -0.9963  2.6832  0.6698
   52MOL    H7528737   7.855   1.386   7.390  1.0754 -0.4759 -0.2476
   52MOL    H7628738   7.982   1.227   7.527 -0.5450 -0.9931 -0.8277
   52MOL    H7728739   7.846   1.163   7.446 -0.3499 -0.9945  0.4889
   52MOL    H7828740   7.856   1.235   7.741 -0.8932  2.3010 -0.1249
   52MOL    H7928741   7.709   1.209   7.665  0.5229  0.2420  1.4349
   52MOL    H8028742   7.751   0.967   7.725  0.1446  1.7414  1.8135
   52MOL    H8128743   7.814   0.987   7.560 -2.4654  2.8143 -1.3571
   52MOL    H8228744   0.025   0.648   7.711 -2.0543  2.2348  0.6550
   52MOL    H8328745   0.235   0.585   7.830  0.0677  0.1489 -0.4521
   52MOL    H8428746   0.193   0.951   8.057 -1.3485  0.8156  0.1530
   52MOL    H8528747   8.090   0.994   7.937  0.8965  0.3846  0.2601
   52MOL    O8628748   0.405   0.618   8.003  0.0953  0.1163  0.3764
   52MOL    C8728749   0.527   0.574   8.066 -0.1019  0.3573  0.2962
   52MOL    C8828750   0.634   0.557   7.971  0.4355  0.0407  0.8504
   52MOL    C8928751   0.711   0.685   7.930 -0.8186 -0.0769 -0.5128
   52MOL    C9028752   0.648   0.756   7.820 -0.1289 -0.1185  0.5005
   52MOL    O9128753   0.684   0.688   7.695  1.0064  0.0948  0.1980
   52MOL    C9228754   0.756   0.739   7.597  0.5337 -0.4145  0.1541
   52MOL    O9328755   0.804   0.854   7.594 -0.2669 -0.0586 -0.2381
   52MOL    C9428756   0.780   0.632   7.485 -0.2230 -0.1286 -0.1446
   52MOL    C9528757   0.878   0.653   7.383 -0.7916  0.8568  0.6051
   52MOL    C9628758   0.886   0.567   7.267 -0.2587 -0.0937  0.2962
   52MOL    C9728759   0.801   0.459   7.260  0.4430  0.1544  0.6465
   52MOL    C9828760   0.812   0.364   7.145 -0.3048  0.0147 -0.0369
   52MOL    O9928761   0.869   0.389   7.039  0.3353 -0.3846  0.4525
   52MOL   C10028762   0.710   0.436   7.364  1.0111 -0.1827  0.4361
   52MOL   C10128763   0.697   0.521   7.473  0.2652  0.1379 -0.1703
   52MOL   H10228764   0.550   0.640   0.050 -1.1004  1.6736 -0.4564
   52MOL   H10328765   0.504   0.477   0.011  0.2031  0.5549  0.9005
   52MOL   H10428766   0.596   0.493   7.892 -0.5847 -0.4564  1.7232
   52MOL   H10528767   0.702   0.482   8.011 -0.2264 -0.8246  0.3746
   52MOL   H10628768   0.704   0.753   8.015 -0.8301 -0.0396 -0.5444
   52MOL   H10728769   0.817   0.664   7.918 -0.4621  0.8051  0.9718
   52MOL   H10828770   0.541   0.773   7.827  0.0980  0.8645  1.8434
   52MOL   H10928771   0.680   0.860   7.822  0.0741 -0.1656 -0.4397
   52MOL   H11028772   0.941   0.740   7.389  1.6428 -0.9334  1.6603
   52MOL   H11128773   0.951   0.592   7.184 -3.2818  2.6961 -1.3841
   52MOL   H11228774   0.645   0.351   7.349  0.3965  0.1219  1.3568
   52MOL   H11328775   0.622   0.481   7.539  0.5353 -2.1012 -1.1654
   52MOL   O11428776   0.750   0.248   7.167  0.0255  0.3795  0.6471
   52MOL   C11528777   0.745   0.146   7.067  0.1240 -0.1243  0.6474
   52MOL   C11628778   0.605   0.125   7.023  0.1750 -0.4304 -0.1180
   52MOL   C11728779   0.544   0.252   6.960 -0.3189 -0.0861  0.1633
   52MOL   C11828780   0.599   0.289   6.819  0.3168 -0.4262  0.2676
   52MOL   O11928781   0.516   0.392   6.765 -0.2713  0.0816 -0.0166
   52MOL   C12028782   0.518   0.430   6.636 -0.0308  0.5295  0.1058
   52MOL   O12128783   0.585   0.373   6.550  0.3575 -0.0512 -0.1171
   52MOL   C12228784   0.437   0.554   6.609  0.6515 -0.2130 -0.4967
   52MOL   C12328785   0.343   0.613   6.694  0.4980 -0.4849  0.2285
   52MOL   C12428786   0.256   0.717   6.655  0.5168  0.7534 -0.9249
   52MOL   C12528787   0.263   0.776   6.529 -0.2488 -0.1152 -0.0441
   52MOL   C12628788   0.171   0.895   6.505 -1.3257  0.0221 -0.2727
   52MOL   O12728789   0.145   0.926   6.389  0.5799  0.5470 -0.8599
   52MOL   C12828790   0.360   0.718   6.438 -0.3332  0.1161 -0.3077
   52MOL   C12928791   0.446   0.614   6.481  0.7560  0.1320 -0.3605
   52MOL   H13028792   0.814   0.165   6.984 -1.4904  0.8396 -0.5063
   52MOL   H13128793   0.773   0.055   7.119 -0.8508 -0.6952  0.1736
   52MOL   H13228794   0.544   0.097   7.109 -0.0655  2.2469  0.6398
   52MOL   H13328795   0.602   0.044   6.950  1.0275 -1.2284  0.7182
   52MOL   H13428796   0.435   0.242   6.956 -0.3556  0.3836 -0.0553
   52MOL   H13528797   0.556   0.335   7.030 -2.5731  1.3341 -1.0656
   52MOL   H13628798   0.707   0.305   6.809  0.0189  2.0316  0.6719
   52MOL   H13728799   0.582   0.209   6.747 -2.2215  1.6051 -1.4799
   52MOL   H13828800   0.356   0.576   6.795  2.1864 -2.0695 -0.5426
   52MOL   H13928801   0.183   0.752   6.726 -0.7729 -0.3916 -1.6501
   52MOL   H14028802   0.368   0.770   6.344 -1.0176 -0.0519 -0.4635
   52MOL   H14128803   0.524   0.574   6.418  1.2397  1.0354 -0.3636
   52MOL   O14228804   0.122   0.955   6.615 -0.2573  0.1102  0.2179
   52MOL   C14328805   0.056   1.078   6.602  0.2851  0.6676 -0.0991
   52MOL   C14428806   0.039   1.141   6.742  0.4212 -0.1903  0.1332
   52MOL   C14528807   8.041   1.062   6.830 -0.4897 -0.3422  0.6055
   52MOL   C14628808   7.980   1.147   6.940  0.3787 -0.4850 -0.3314
   52MOL   O14728809   8.070   1.177   7.043  0.1326  0.4464  0.2000
   52MOL   C14828810   8.046   1.261   7.139  0.7691  0.3395 -1.1129
   52MOL   O14928811   7.936   1.308   7.165  0.0872 -0.4081  0.7768
   52MOL   C15028812   0.063   1.292   7.228 -0.2961  0.2400  0.3203
   52MOL   C15128813   0.188   1.228   7.205 -0.0717 -0.4258 -0.4116
   52MOL   C15228814   0.295   1.259   7.292 -0.2877 -0.0097 -0.6146
   52MOL   C15328815   0.277   1.340   7.414 -0.1454  0.3287  0.1614
   52MOL   C15428816   0.398   1.385   7.487  0.2426  0.3218  0.1346
   52MOL   O15528817   0.403   1.493   7.546  0.1654  0.1339  0.1800
   52MOL   C15628818   0.151   1.397   7.433 -1.3391  0.2415 -0.0319
   52MOL   C15728819   0.048   1.375   7.343 -0.7944 -0.3840 -0.2201
   52MOL   H15828820   0.118   1.143   6.540  0.9546  0.2394  0.1152
   52MOL   H15928821   8.061   1.069   6.547 -1.3382  0.2580  2.6184
   52MOL   H16028822   0.012   1.245   6.722  0.9692  0.1202  0.9921
   52MOL   H16128823   0.137   1.147   6.788  0.4342  0.2821  0.0478
   52MOL   H16228824   7.965   1.024   6.762  1.4811 -2.4024 -0.5245
   52MOL   H16328825   0.001   0.975   6.860  0.7307 -0.2797 -1.5128
   52MOL   H16428826   7.931   1.235   6.897 -1.2767 -0.6561  1.1537
   52MOL   H16528827   7.890   1.101   6.981  0.2399  0.7539  0.7771
   52MOL   H16628828   0.201   1.166   7.117  0.4414  0.0194 -0.6498
   52MOL   H16728829   0.396   1.231   7.268  0.3531 -1.2981  3.3006
   52MOL   H16828830   0.149   1.465   7.517 -0.6053 -3.0830  2.7960
   52MOL   H16928831   8.055   1.419   7.380 -1.1992 -0.1580 -1.4758
   52MOL   O17028832   0.502   1.293   7.485  0.2845 -0.1193 -0.1619
   52MOL   C17128833   0.629   1.322   7.536  0.9233 -0.4496  0.8175
   52MOL   C17228834   0.700   1.182   7.549 -0.3364 -0.5198 -0.0075
   52MOL   C17328835   0.821   1.192   7.644 -0.3566 -0.3425  0.4749
   52MOL   C17428836   0.937   1.260   7.572 -0.0482 -0.4838  0.3826
   52MOL   O17528837   0.923   1.405   7.559 -0.2056 -0.6082 -0.5441
   52MOL   C17628838   1.009   1.467   7.485  0.1164 -1.1696  0.0297
   52MOL   O17728839   1.091   1.408   7.410  0.1055 -0.4180 -0.0844
   52MOL   C17828840   0.988   1.615   7.469 -0.0984 -0.5399 -0.3342
   52MOL   C17928841   1.073   1.681   7.376  0.5779  0.0998 -0.2766
   52MOL   C18028842   1.053   1.820   7.363  0.2267  0.6196 -0.1211
   52MOL   C18128843   0.967   1.893   7.456 -0.2648  0.3077  1.0420
   52MOL   C18228844   0.957   2.047   7.443 -0.7463 -0.3300 -0.1388
   52MOL   O18328845   1.006   2.111   7.352  0.8588 -0.0608  0.2091
   52MOL   C18428846   0.886   1.822   7.545  0.2206 -0.0929 -0.1878
   52MOL   C18528847   0.889   1.683   7.551  0.1292 -0.4459  0.5190
   52MOL   H18628848   0.681   1.393   7.472  0.2703 -0.1808  0.5837
   52MOL   H18728849   0.610   1.372   7.631 -0.2264 -1.0794  0.9270
   52MOL   H18828850   0.737   1.141   7.456  1.5327 -0.5076  0.7192
   52MOL   H18928851   0.630   1.109   7.591  0.6354 -1.7663 -0.5302
   52MOL   H19028852   0.792   1.245   7.735  0.9290  0.7855  0.2529
   52MOL   H19128853   0.844   1.088   7.668  1.2020  0.1191  1.0440
   52MOL   H19228854   1.027   1.249   7.632 -0.4151  0.3698  1.1074
   52MOL   H19328855   0.944   1.202   7.480  2.6956 -0.0034  0.2677
   52MOL   H19428856   1.138   1.628   7.308  1.5007 -0.4192  0.9952
   52MOL   H19528857   1.119   1.872   7.295  0.4955  0.1427 -0.2266
   52MOL   H19628858   0.827   1.868   7.623 -3.0242 -0.1038 -2.5720
   52MOL   H19728859   0.825   1.628   7.618 -0.5243  0.5155  0.7072
   52MOL   O19828860   0.872   2.101   7.538 -0.5129  0.8282 -0.3343
   52MOL   C19928861   0.837   2.230   7.528  0.1057  0.2017  0.0685
   52MOL   C20028862   0.711   2.244   7.618  0.0192 -1.1091 -0.0129
   52MOL   C20128863   0.582   2.183   7.561  0.1491 -0.1301 -0.3065
   52MOL   C20228864   0.525   2.061   7.635  0.2027  0.3334 -0.1527
   52MOL   O20328865   0.415   2.006   7.573 -0.0132  0.2195 -0.5200
   52MOL   C20428866   0.293   2.038   7.599 -0.4355  0.8029 -0.8206
   52MOL   O20528867   0.260   2.139   7.664  0.1985  0.1703 -0.1888
   52MOL   C20628868   0.190   1.951   7.531  0.2059  0.2628 -0.1982
   52MOL   C20728869   0.055   1.984   7.552 -0.1992 -0.1113 -0.6303
   52MOL   C20828870   8.053   1.910   7.478  0.4809  0.5052  0.3876
   52MOL   C20928871   8.091   1.816   7.381 -0.4586  0.2281 -0.3739
   52MOL   C21028872   7.992   1.756   7.289  0.0291 -0.2855  0.3265
   52MOL   O21128873   8.014   1.689   7.190 -0.1460  0.7988  0.1974
   52MOL   C21228874   0.131   1.789   7.366  0.0400  0.8070 -0.1224
   52MOL   C21328875   0.225   1.845   7.452  0.0816  0.8289 -1.3339
   52MOL   H21428876   0.917   2.302   7.547 -1.4516  2.6893 -2.2933
   52MOL   H21528877   0.803   2.265   7.430 -1.0466  3.0320  1.4234
   52MOL   H21628878   0.687   2.350   7.631 -0.0926 -1.2644  1.0669
   52MOL   H21728879   0.722   2.204   7.719  1.3151  2.0908  1.1982
   52MOL   H21828880   0.504   2.257   7.545  2.6649  2.4532 -1.1587
   52MOL   H21928881   0.609   2.142   7.464  2.5382  0.1318  0.2037
   52MOL   H22028882   0.601   1.991   7.669  0.4884  0.0080 -1.4277
   52MOL   H22128883   0.491   2.097   7.732  1.1464 -1.5086  0.8935
   52MOL   H22228884   0.021   2.060   7.621  1.0358  0.5730 -0.7794
   52MOL   H22328885   7.954   1.953   7.488  0.1537  0.5884 -2.5096
   52MOL   H22428886   0.167   1.718   7.293  2.4455  1.1806  0.6577
   52MOL   H22528887   0.328   1.815   7.440 -0.5316 -0.8939 -2.4978
   52MOL   O22628888   7.869   1.783   7.337 -0.0221 -0.0130 -0.2476
   52MOL   C22728889   7.765   1.792   7.249 -0.2922 -0.7557 -0.5350
   52MOL   C22828890   7.646   1.858   7.308 -0.2039 -0.5388 -0.5824
   52MOL   C22928891   7.543   1.871   7.190 -0.1821  1.1215  0.0879
   52MOL   C23028892   7.417   1.942   7.240 -0.2439  0.2119  0.8047
   52MOL   O23128893   7.434   2.069   7.287  0.5817  0.2166  0.2028
   52MOL   C23228894   7.332   2.138   7.321 -0.5726 -0.3684 -0.0740
   52MOL   O23328895   7.214   2.107   7.299 -0.2506  0.0677 -0.1635
   52MOL   C23428896   7.383   2.253   7.401 -0.4466 -0.1022 -0.3130
   52MOL   C23528897   7.293   2.343   7.455 -0.1560 -1.0644  0.4910
   52MOL   C23628898   7.330   2.445   7.543 -0.2012 -0.8957  0.3788
   52MOL   C23728899   7.465   2.465   7.565  0.4279 -0.8652  0.0729
   52MOL   C23828900   7.519   2.578   7.649 -0.0414  0.5998 -0.6114
   52MOL   O23928901   7.639   2.615   7.643  0.3526  0.2853 -0.6402
   52MOL   C24028902   7.559   2.387   7.499  0.8844 -0.5520  0.5195
   52MOL   C24128903   7.521   2.282   7.416 -0.0819 -0.3481  0.9855
   52MOL   H24228904   7.809   1.851   7.168  2.1578 -1.4193  0.2618
   52MOL   H24328905   7.727   1.697   7.211 -2.8979 -0.5797  1.4904
   52MOL   H24428906   7.650   1.955   7.359  0.0197  0.3381 -2.2605
   52MOL   H24528907   7.605   1.802   7.392 -0.2407 -0.0021 -0.2339
   52MOL   H24628908   7.581   1.919   7.100 -0.4041 -2.5607 -2.0717
   52MOL   H24728909   7.520   1.772   7.151  2.2434  0.1426  1.0118
   52MOL   H24828910   7.346   1.945   7.158 -1.1976 -1.6769  1.5066
   52MOL   H24928911   7.365   1.879   7.313 -1.9125  1.2015  0.4972
   52MOL   H25028912   7.189   2.321   7.438 -0.3636  0.6882 -0.6145
   52MOL   H25128913   7.247   2.499   7.584 -1.0870 -0.7837 -1.5061
   52MOL   H25228914   7.661   2.411   7.526  0.6558  0.8180  0.2003
   52MOL   H25328915   7.599   2.217   7.378 -0.0450 -0.4004  1.1518
   52MOL   O25428916   7.426   2.622   7.734 -0.3827 -0.4742  0.6047
   52MOL   C25528917   7.442   2.753   7.799 -0.2012  0.5400  0.1176
   52MOL   C25628918   7.398   2.863   7.698  0.1664 -0.1017  0.2709
   52MOL   C25728919   7.259   2.844   7.626  0.3966  1.2729 -0.2362
   52MOL   C25828920   7.201   2.968   7.561 -0.1377 -0.0974 -0.1070
   52MOL   O25928921   7.293   3.029   7.471  0.0161 -0.1481  0.4108
   52MOL   C26028922   7.250   3.122   7.391 -0.5029 -0.1437 -0.3973
   52MOL   O26128923   7.130   3.158   7.383  0.1898 -0.0901  0.3901
   52MOL   C26228924   7.357   3.188   7.303  0.4215 -0.5917  0.0694
   52MOL   C26328925   7.327   3.292   7.220 -0.0919  0.4618 -0.2820
   52MOL   C26428926   7.435   3.347   7.144 -0.0276 -0.1285 -0.2175
   52MOL   C26528927   7.571   3.308   7.160 -0.3517  0.6258 -0.4341
   52MOL   C26628928   7.671   3.373   7.075  0.2500  0.1615  0.5065
   52MOL   O26728929   7.643   3.473   7.004 -0.2652  0.0712 -0.2124
   52MOL   C26828930   7.590   3.198   7.245 -0.5264  0.2629 -0.9453
   52MOL   C26928931   7.484   3.137   7.316 -0.5215 -0.2121 -0.4691
   52MOL   H27028932   7.373   2.773   7.882 -1.4820  0.2678 -0.8653
   52MOL   H27128933   7.546   2.770   7.827  0.7219 -0.7845 -2.4195
   52MOL   H27228934   7.481   2.882   7.629 -0.7814 -1.0991 -1.1756
   52MOL   H27328935   7.390   2.954   7.757 -0.0647 -0.9516  1.5810
   52MOL   H27428936   7.268   2.764   7.553 -1.5226 -1.3453  2.2806
   52MOL   H27528937   7.184   2.808   7.696  0.4804  2.5173  0.5228
   52MOL   H27628938   7.112   2.937   7.506 -0.7977  1.8680 -0.1923
   52MOL   H27728939   7.170   3.046   7.631  1.1141  0.7129 -0.4409
   52MOL   H27828940   7.228   3.331   7.201 -0.6195 -0.9345 -0.4262
   52MOL   H27928941   7.407   3.417   7.067  1.6335  0.4912 -0.2623
   52MOL   H28028942   7.686   3.161   7.279 -0.5244  1.4852  0.4401
   52MOL   H28128943   7.509   3.051   7.377  0.6833 -0.0496 -0.7280
   52MOL   O28228944   7.789   3.319   7.096 -0.2804 -0.1152 -0.4773
   52MOL   C28328945   7.912   3.383   7.050 -0.1883  0.4753  0.4377
   52MOL   C28428946   7.968   3.315   6.924 -0.0244 -0.1336 -0.2347
   52MOL   C28528947   7.919   3.378   6.792  0.0379  0.1494  0.2094
   52MOL   C28628948   8.004   3.348   6.666  0.0967  0.3062  0.7367
   52MOL   O28728949   7.957   3.421   6.554 -0.7622  0.0689 -0.2220
   52MOL   C28828950   8.009   3.411   6.441  0.7704 -0.6886  0.9172
   52MOL   O28928951   0.006   3.335   6.422 -0.3213  0.0858 -0.0639
   52MOL   C29028952   7.961   3.521   6.350  0.6007  0.6557  0.0334
   52MOL   C29128953   7.834   3.587   6.376 -0.5015  0.6743  0.2579
   52MOL   C29228954   7.802   3.698   6.294 -0.2187 -0.0593  0.3046
   52MOL   C29328955   7.891   3.738   6.189  0.4336 -0.6817  0.4618
   52MOL   C29428956   7.866   3.863   6.110  0.1053 -0.0793 -0.0105
   52MOL   O29528957   7.944   3.916   6.031  0.3884 -0.1946 -0.3145
   52MOL   C29628958   8.012   3.668   6.164  0.0688  0.1404 -0.3078
   52MOL   C29728959   8.045   3.554   6.241  0.1107 -0.3301  0.6505
   52MOL   H29828960   7.899   3.490   7.031 -1.8173 -0.0123 -1.3516
   52MOL   H29928961   7.995   3.376   7.121 -0.3233  1.5644  0.7135
   52MOL   H30028962   7.957   3.207   6.934 -1.2972  0.0879  0.7680
   52MOL   H30128963   8.077   3.329   6.924 -0.0567  0.1277 -0.1367
   52MOL   H30228964   7.813   3.358   6.776  0.0137  2.4119 -2.8530
   52MOL   H30328965   7.935   3.485   6.807  1.7917 -0.3108  1.8740
   52MOL   H30428966   0.014   3.351   6.674  0.2833 -0.0789 -1.4861
   52MOL   H30528967   7.988   3.242   6.646 -0.0515  0.4120  0.2904
   52MOL   H30628968   7.770   3.547   6.454  0.5936  0.0571  0.8554
   52MOL   H30728969   7.706   3.744   6.309  0.3782  1.7057 -1.0411
   52MOL   H30828970   8.075   3.705   6.084  1.1412  1.7891  1.2560
   52MOL   H30928971   0.036   3.496   6.227 -0.5064 -1.2987  0.6237
   52MOL   O31028972   7.742   3.906   6.124 -0.2098  0.1395 -0.1643
   52MOL   C31128973   7.696   4.020   6.052  0.0830  0.3649 -0.7062
   52MOL   C31228974   7.575   4.070   6.135 -0.4841 -0.7082  0.5473
   52MOL   C31328975   7.461   3.976   6.150  0.3497 -0.6300  0.1054
   52MOL   C31428976   7.379   4.030   6.267 -0.3048  0.6544  0.3142
   52MOL   O31528977   7.269   3.944   6.290 -0.2339  0.1167 -0.1217
   52MOL   C31628978   7.216   3.928   6.411  0.5528  0.2209 -0.0206
   52MOL   O31728979   7.277   3.966   6.512 -0.5274 -0.3038  0.4161
   52MOL   C31828980   7.083   3.861   6.413  0.4653 -0.0196 -0.0689
   52MOL   C31928981   7.046   3.784   6.302 -0.1259  0.2954  0.1052
   52MOL   C32028982   6.918   3.734   6.299  0.3225 -0.0315 -0.2338
   52MOL   C32128983   6.819   3.762   6.405 -0.4111 -0.6924 -1.0046
   52MOL   C32228984   6.681   3.721   6.402 -0.9375 -0.7372  0.4276
   52MOL   O32328985   6.608   3.704   6.493 -0.6320 -0.3865 -0.4617
   52MOL   C32428986   6.870   3.823   6.520 -0.2293 -0.4601 -0.3805
   52MOL   C32528987   7.002   3.869   6.529  0.0923  0.7274  0.5981
   52MOL   H32628988   7.769   4.101   6.046  1.3586 -0.7717 -0.5970
   52MOL   H32728989   7.679   3.997   5.947  1.5791 -1.7484 -0.5075
   52MOL   H32828990   7.541   4.170   6.108  3.3978  0.2562 -1.2191
   52MOL   H32928991   7.615   4.089   6.234  2.4658 -0.0535 -0.7108
   52MOL   H33028992   7.392   3.974   6.066  1.8380  0.5915 -1.1688
   52MOL   H33128993   7.498   3.875   6.166 -1.5543 -1.3827 -0.2186
   52MOL   H33228994   7.442   4.020   6.355  1.5313 -0.0459 -1.0487
   52MOL   H33328995   7.357   4.135   6.254 -1.9152  0.1110 -1.5703
   52MOL   H33428996   7.112   3.757   6.221 -2.2188 -2.6489 -0.7057
   52MOL   H33528997   6.886   3.671   6.217  0.6893 -1.3471  0.6084
   52MOL   H33628998   6.805   3.852   6.600  0.5700  0.9483 -0.2215
   52MOL   H33728999   7.037   3.925   6.615  0.6230  1.9284 -0.3825
   52MOL   O33829000   6.653   3.691   6.274 -0.2749 -0.2586 -0.2597
   52MOL   C33929001   6.518   3.693   6.227  0.0903  0.1810 -0.1080
   52MOL   C34029002   6.496   3.599   6.111  0.1760  0.7489  0.6461
   52MOL   C34129003   6.570   3.643   5.982  0.1116 -0.1304 -0.5168
   52MOL   C34229004   6.523   3.557   5.864 -0.3946  0.0047  0.3019
   52MOL   O34329005   6.553   3.420   5.875 -0.3735 -0.5450 -0.2711
   52MOL   C34429006   6.670   3.370   5.819 -0.4773  1.0493 -0.3329
   52MOL   O34529007   6.745   3.433   5.749 -0.4618 -0.5041  0.1673
   52MOL   C34629008   6.702   3.229   5.850 -0.2077  0.0814  0.5099
   52MOL   C34729009   6.794   3.156   5.769  0.5824  0.1123 -0.0101
   52MOL   C34829010   6.839   3.030   5.804 -0.2361  0.6998  0.1594
   52MOL   C34929011   6.791   2.973   5.921  0.1724  0.5646  0.9083
   52MOL   C35029012   6.853   2.845   5.968 -0.4682  0.1790  0.8262
   52MOL   O35129013   6.950   2.790   5.917 -0.0221  0.3745 -0.4641
   52MOL   C35229014   6.696   3.040   6.000  0.3709 -0.3653  0.9206
   52MOL   C35329015   6.646   3.164   5.959  0.2436 -0.0313 -0.6593
   52MOL   H35429016   6.442   3.665   6.300 -0.3232 -0.1232 -0.6480
   52MOL   H35529017   6.496   3.793   6.191  0.9902  0.4991  0.2086
   52MOL   H35629018   6.388   3.591   6.095  0.5925  0.2108 -2.0622
   52MOL   H35729019   6.527   3.501   6.147 -0.5781  0.4446  0.4873
   52MOL   H35829020   6.547   3.748   5.965  0.9432  0.0315 -0.6215
   52MOL   H35929021   6.676   3.634   6.004 -0.4183 -0.8112  1.8929
   52MOL   H36029022   6.415   3.561   5.853 -0.2374 -0.1036 -1.4110
   52MOL   H36129023   6.550   3.606   5.770 -0.5218 -0.5630 -0.0291
   52MOL   H36229024   6.838   3.200   5.681 -0.7656 -1.2353 -1.4063
   52MOL   H36329025   6.921   2.987   5.748 -0.7687  0.1481 -0.2224
   52MOL   H36429026   6.660   2.989   6.088  1.2595 -1.5085  0.6228
   52MOL   H36529027   6.582   3.222   6.024 -0.8759 -0.2762 -1.5209
   52MOL   O36629028   6.782   2.788   6.069  0.0713 -0.0570 -0.5134
   52MOL   C36729029   6.818   2.659   6.118  0.0404 -0.4418  0.3271
   52MOL   C36829030   6.900   2.680   6.247 -0.1729 -0.1508 -0.1423
   52MOL   C36929031   6.900   2.566   6.352 -0.4897  0.2512  0.3555
   52MOL   C37029032   6.989   2.586   6.475 -0.6035 -0.1449 -0.4003
   52MOL   O37129033   6.936   2.701   6.543 -0.4439  0.3653  0.0846
   52MOL   C37229034   7.008   2.753   6.641  0.5137 -0.6222 -0.3140
   52MOL   O37329035   7.119   2.708   6.679  0.0916  0.0635  0.5028
   52MOL   C37429036   6.933   2.862   6.705  0.1636  0.6363 -0.3958
   52MOL   C37529037   6.807   2.901   6.665 -0.2736 -0.0922 -0.5038
   52MOL   C37629038   6.743   3.013   6.726 -0.2583 -0.5771 -0.6015
   52MOL   C37729039   6.798   3.077   6.844  0.1145  0.0458  0.0585
   52MOL   C37829040   6.707   3.157   6.938 -0.5156 -0.5812  0.2852
   52MOL   O37929041   6.737   3.194   7.052  0.5642  0.0352 -0.2437
   52MOL   C38029042   6.930   3.032   6.882 -0.0391 -0.2210  0.5297
   52MOL   C38129043   6.992   2.927   6.817  0.2280  0.1967  0.4881
   52MOL   H38229044   6.717   2.620   6.131  0.2984 -0.9173  0.9130
   52MOL   H38329045   6.878   2.606   6.045  1.0006  0.7136  0.2584
   52MOL   H38429046   6.865   2.770   6.298 -0.9651 -0.5409  0.0070
   52MOL   H38529047   7.004   2.705   6.223 -0.5895  1.3277 -0.4527
   52MOL   H38629048   6.795   2.550   6.379 -0.6295 -2.2756 -1.5377
   52MOL   H38729049   6.919   2.466   6.313 -0.5697  1.3533 -2.6364
   52MOL   H38829050   6.976   2.497   6.536 -0.2252  0.1630  0.1402
   52MOL   H38929051   7.090   2.601   6.437 -1.2701  0.7501 -1.8621
   52MOL   H39029052   6.764   2.863   6.574  0.8377 -0.8257 -0.7254
   52MOL   H39129053   6.646   3.023   6.681 -0.2474  0.0207 -0.4906
   52MOL   H39229054   6.974   3.055   6.978  1.0330 -1.0482  0.2467
   52MOL   H39329055   7.085   2.892   6.859  0.3569 -0.7529 -0.5676
   52MOL   O39429056   6.595   3.193   6.873  0.0726 -0.6526  0.0006
   52MOL   C39529057   6.498   3.284   6.930  0.3329  0.0943 -0.1283
   52MOL   C39629058   6.399   3.337   6.827 -0.1570 -0.8176 -0.2003
   52MOL   C39729059   6.282   3.423   6.879  0.0761 -0.2403  0.3189
   52MOL   C39829060   6.305   3.534   6.975  0.0195  0.2920 -0.8071
   52MOL   O39929061   6.250   3.516   7.109 -0.3519  0.0900 -0.1604
   52MOL   C40029062   6.309   3.445   7.209 -0.1321 -0.3351  0.3253
   52MOL   O40129063   6.424   3.403   7.211 -0.3694 -0.0802  0.5685
   52MOL   C40229064   6.217   3.425   7.324  0.1563  0.6526  0.2850
   52MOL   C40329065   6.262   3.353   7.437  0.5474  0.0260  0.0297
   52MOL   C40429066   6.181   3.334   7.554  0.3095 -0.4728 -0.5907
   52MOL   C40529067   6.048   3.392   7.554  0.3670 -0.5662  0.5678
   52MOL   C40629068   5.956   3.385   7.673  0.5128  0.3578  0.0754
   52MOL   O40729069   5.847   3.438   7.669 -0.1401  0.2660 -0.2330
   52MOL   C40829070   6.000   3.467   7.437 -0.2644  0.4797 -0.4969
   52MOL   C40929071   6.086   3.484   7.325  0.7218  0.2275 -0.1315
   52MOL   H41029072   6.447   3.224   7.006  2.1994 -1.1212  0.1902
   52MOL   H41129073   6.543   3.376   6.966 -0.7690 -0.0848  1.7814
   52MOL   H41229074   6.372   3.260   6.754  2.1402 -2.7552  0.9224
   52MOL   H41329075   6.454   3.406   6.763 -0.7508 -1.8719 -1.8965
   52MOL   H41429076   6.240   3.471   6.791 -3.3324  2.4483  3.2656
   52MOL   H41529077   6.187   3.373   6.902 -0.5925 -0.0774 -1.9404
   52MOL   H41629078   6.412   3.552   6.982  0.3601 -1.3925 -1.3438
   52MOL   H41729079   6.261   3.625   6.936  1.0384  1.3248  0.3994
   52MOL   H41829080   6.361   3.310   7.439  0.6176  0.0119 -2.3064
   52MOL   H41929081   6.225   3.282   7.638  0.6969 -1.4136 -1.3603
   52MOL   H42029082   5.903   3.514   7.431 -0.7459 -0.4642 -0.3079
   52MOL   H42129083   6.044   3.537   7.241 -0.9520 -0.7987  0.0450
   52MOL   O42229084   6.001   3.305   7.775  0.7011  0.2317 -0.7546
   52MOL   C42329085   5.902   3.267   7.866 -0.2684 -0.0121  0.2950
   52MOL   C42429086   5.971   3.196   7.987 -0.5571 -0.2364  0.1822
   52MOL   C42529087   6.059   3.293   8.072  0.0210  0.0749  0.1473
   52MOL   C42629088   6.169   3.231   0.065  0.5649  0.0457 -0.4298
   52MOL   O42729089   6.118   3.111   0.124 -0.2956  0.0685  0.6053
   52MOL   C42829090   6.202   3.001   0.143  0.0059 -0.8951 -0.2681
   52MOL   O42929091   6.321   3.013   0.118  0.0624 -0.2819  0.5770
   52MOL   C43029092   6.134   2.875   0.186 -0.8051  0.1343  0.2765
   52MOL   C43129093   5.992   2.867   0.193 -0.2825  0.3086 -0.3336
   52MOL   C43229094   5.935   2.748   0.236 -0.6388  0.3223 -0.6292
   52MOL   C43329095   6.008   2.631   0.271 -1.0304  0.5353  0.1720
   52MOL   C43429096   5.954   2.511   0.320 -0.0260 -0.1092 -0.1414
   52MOL   O43529097   6.016   2.423   0.377 -0.1607  0.5141  0.6203
   52MOL   C43629098   6.148   2.640   0.266 -0.6400  0.6569  0.2754
   52MOL   C43729099   6.211   2.759   0.226  0.5274 -0.1312 -0.0003
   52MOL   H43829100   5.846   3.353   7.903 -2.4876 -0.8977 -0.9231
   52MOL   H43929101   5.824   3.209   7.816 -0.9552 -0.0964  1.4251
   52MOL   H44029102   6.035   3.117   7.947 -1.0839  0.8551 -2.9863
   52MOL   H44129103   5.894   3.169   8.059  0.4058  1.0150  1.7084
   52MOL   H44229104   6.103   3.371   8.010  0.4038  1.9551  2.7060
   52MOL   H44329105   5.997   3.353   0.040  0.4266 -1.4983  1.9793
   52MOL   H44429106   6.255   3.201   0.004  1.6470  2.9691 -0.3719
   52MOL   H44529107   6.219   3.285   0.145  0.9433 -1.2853  0.2641
   52MOL   H44629108   5.931   2.954   0.172 -0.2533  0.3705 -0.1626
   52MOL   H44729109   5.828   2.746   0.248 -0.3897 -1.2631  1.6023
   52MOL   H44829110   6.213   2.561   0.302 -0.2288  0.5619 -0.6521
   52MOL   H44929111   6.319   2.769   0.230  0.3724  1.1443  1.8262
   52MOL   O45029112   5.820   2.503   0.304 -0.5692  0.5054  0.4771
   52MOL   C45129113   5.743   2.402   0.364 -0.0755 -0.0190 -0.1536
   52MOL   C45229114   5.624   2.363   0.278  0.1422  0.1698 -0.3175
   52MOL   C45329115   5.534   2.259   0.337 -0.1613  0.6492  0.2655
   52MOL   C45429116   5.427   2.218   0.232  0.6564  0.0241  0.6486
   52MOL   O45529117   5.339   2.332   0.215  0.1628 -0.1266 -0.1666
   52MOL   C45629118   5.222   2.312   0.158  0.1391  0.0530  0.1040
   52MOL   O45729119   5.182   2.204   0.116  0.6569 -0.5419  0.1584
   52MOL   C45829120   5.149   2.437   0.124  0.3021 -0.0480  0.7787
   52MOL   C45929121   5.176   2.565   0.169  0.1517 -0.8947 -0.1747
   52MOL   C46029122   5.115   2.681   0.117  0.9189 -0.7650  0.1360
   52MOL   C46129123   5.001   2.658   0.033 -0.6289 -0.9655 -0.0895
   52MOL   C46229124   4.928   2.770   8.081  0.4173  0.0691  0.7282
   52MOL   O46329125   4.831   2.754   8.005 -0.2498 -0.3509 -0.5096
   52MOL   C46429126   4.963   2.532   0.001  0.9633  0.0581 -0.3899
   52MOL   C46529127   5.043   2.419   0.039 -0.2318  0.5274 -0.3683
   52MOL   H46629128   5.798   2.313   0.394 -0.5904 -0.3644 -0.2232
   52MOL   H46729129   5.701   2.456   0.449 -0.0106  0.3300 -0.3437
   52MOL   H46829130   5.665   2.321   0.186  0.9316  2.8656 -1.2687
   52MOL   H46929131   5.574   2.458   0.256 -2.8712 -1.3940 -0.3987
   52MOL   H47029132   5.599   2.173   0.351  0.0083  0.9003  1.0266
   52MOL   H47129133   5.494   2.276   0.437  2.2016  0.8712  1.2154
   52MOL   H47229134   5.493   2.202   0.147 -1.1906 -2.6976 -0.3278
   52MOL   H47329135   5.373   2.126   0.252 -3.6686  1.8311 -1.8938
   52MOL   H47429136   5.261   2.577   0.235  0.1412  0.8611 -0.4586
   52MOL   H47529137   5.142   2.780   0.150  1.4699 -0.9335  0.1894
   52MOL   H47629138   4.876   2.526   8.036  1.4159  1.8138 -1.2054
   52MOL   H47729139   5.015   2.323   8.094  1.1582 -1.1352  2.3081
   52MOL   O47829140   4.974   2.888   0.023 -0.3933  0.4736 -0.1794
   52MOL   C47929141   4.919   3.010   8.060 -0.0531 -0.2243 -0.6772
   52MOL   C48029142   5.030   3.118   8.082 -0.3071  0.3725  0.6257
   52MOL   C48129143   5.001   3.256   8.017 -0.5729 -0.2646  0.6512
   52MOL   C48229144   4.988   3.250   7.867  0.3725 -0.5186 -0.8234
   52MOL   O48329145   5.114   3.206   7.819  0.2362  0.0305 -0.1335
   52MOL   C48429146   5.160   3.261   7.705 -0.3718  0.2825  0.1395
   52MOL   O48529147   5.101   3.345   7.631  0.0486  0.3896  0.0057
   52MOL   C48629148   5.302   3.215   7.679  0.9233 -0.5371  0.8518
   52MOL   C48729149   5.364   3.253   7.557  0.4270 -0.1241  0.2765
   52MOL   C48829150   5.498   3.220   7.528 -0.6822  0.2458  0.0256
   52MOL   C48929151   5.564   3.148   7.632 -0.0595 -0.1308  0.4984
   52MOL   C49029152   5.705   3.096   7.605  0.3098  0.5817  0.0437
   52MOL   O49129153   5.750   3.014   7.682 -0.5468  0.1098  0.0407
   52MOL   C49229154   5.506   3.112   7.756 -0.1634  0.1492  0.1604
   52MOL   C49329155   5.372   3.143   7.780 -0.4739 -0.4558 -0.4048
   52MOL   H49429156   4.898   2.985   7.956 -3.5850  1.2819 -0.4016
   52MOL   H49529157   4.828   3.038   0.015  0.1114  0.5112 -0.7840
   52MOL   H49629158   5.128   3.088   8.045  0.5222  2.9824  0.6349
   52MOL   H49729159   5.055   3.132   0.089 -1.0321 -0.7401  0.9588
   52MOL   H49829160   4.916   3.310   8.058  0.2919  1.3167  0.3669
   52MOL   H49929161   5.089   3.311   8.051 -0.0140 -0.6942 -0.0727
   52MOL   H50029162   4.915   3.174   7.839 -0.4340 -0.2948  0.6206
   52MOL   H50129163   4.953   3.342   7.820 -0.7962 -0.5606 -0.0331
   52MOL   H50229164   5.314   3.312   7.482  0.2171 -1.0178 -0.2930
   52MOL   H50329165   5.541   3.248   7.433 -0.2801  2.3953  0.8101
   52MOL   H50429166   5.557   3.068   7.840  0.3178  0.8842  0.2594
   52MOL   H50529167   5.326   3.129   7.877  0.1425  0.7534  0.0794
   52MOL   O50629168   5.756   3.132   7.488 -0.4074 -0.3103 -0.0450
   52MOL   C50729169   5.883   3.079   7.435  0.8656 -0.0679 -0.7640
   52MOL   C50829170   5.927   3.139   7.305  1.0153 -0.1078  0.2780
   52MOL   C50929171   6.072   3.081   7.268  0.1283 -0.1891  0.6280
   52MOL   C51029172   6.116   3.109   7.123  0.1488 -0.7692 -0.1840
   52MOL   O51129173   6.212   3.017   7.077 -0.4530 -0.1686  0.5942
   52MOL   C51229174   6.256   3.016   6.947 -0.4732 -0.2771  0.3661
   52MOL   O51329175   6.205   3.083   6.859  0.7377 -0.3309  0.1046
   52MOL   C51429176   6.373   2.919   6.929  0.0680  0.2954  0.4756
   52MOL   C51529177   6.391   2.860   6.803  0.2295  0.3072 -0.7313
   52MOL   C51629178   6.498   2.769   6.788  0.3810 -0.3745  0.4906
   52MOL   C51729179   6.593   2.746   6.896 -0.4707 -0.7563 -0.2419
   52MOL   C51829180   6.712   2.658   6.872  0.8438 -0.3175 -0.1750
   52MOL   O51929181   6.745   2.604   6.764 -0.4208 -0.0824 -0.6950
   52MOL   C52029182   6.569   2.810   7.022 -0.0320  0.0475  0.3183
   52MOL   C52129183   6.463   2.895   7.037 -0.5277  0.5350  0.4449
   52MOL   H52229184   5.959   3.097   7.511  0.4388 -0.3903 -0.2549
   52MOL   H52329185   5.867   2.972   7.417 -1.9159  0.0816  0.5762
   52MOL   H52429186   5.913   3.247   7.303  1.2833 -0.0916 -1.9576
   52MOL   H52529187   5.865   3.093   7.228  0.7163 -0.4502  0.7216
   52MOL   H52629188   6.149   3.120   7.335 -1.8999 -0.9867  3.5442
   52MOL   H52729189   6.069   2.974   7.287 -1.5912 -0.3706 -0.5871
   52MOL   H52829190   6.030   3.100   7.057  0.0829 -1.7808  0.0303
   52MOL   H52929191   6.163   3.205   7.103  0.8039 -1.0960 -0.2387
   52MOL   H53029192   6.317   2.866   6.725  0.7793  2.5782 -1.1098
   52MOL   H53129193   6.507   2.715   6.695 -1.4460 -0.9759  0.6500
   52MOL   H53229194   6.638   2.800   7.104  1.0633  0.5990 -0.5250
   52MOL   H53329195   6.451   2.951   7.129  0.9221  0.9517  0.3837
   52MOL   O53429196   6.791   2.645   6.988  0.2194 -0.0833  0.5537
   52MOL   C53529197   6.930   2.620   6.974  0.4627  0.0003  0.3555
   52MOL   C53629198   6.956   2.475   7.014 -0.7731  0.1136 -0.5422
   52MOL   C53729199   7.098   2.429   6.967  0.4455 -0.5242  0.3196
   52MOL   C53829200   7.147   2.302   7.029 -0.3123 -0.4091 -0.5065
   52MOL   O53929201   7.274   2.263   6.967 -0.2870  0.3211 -0.1772
   52MOL   C54029202   7.388   2.307   7.022  0.1793 -0.3346 -0.2699
   52MOL   O54129203   7.399   2.374   7.123 -0.4070 -0.5240 -0.5620
   52MOL   C54229204   7.505   2.269   6.937 -0.4843  0.0470 -0.3220
   52MOL   C54329205   7.491   2.199   6.822  0.3560  0.2536  0.7271
   52MOL   C54429206   7.598   2.179   6.734 -0.4600  0.2436  0.1546
   52MOL   C54529207   7.726   2.202   6.781  0.0581  0.2958  0.0756
   52MOL   C54629208   7.843   2.152   6.700 -0.1659 -0.1787 -0.0444
   52MOL   O54729209   7.837   2.096   6.595  0.2754 -0.2121  0.2847
   52MOL   C54829210   7.743   2.266   6.909 -0.0330 -0.1469 -0.7811
   52MOL   C54929211   7.634   2.302   6.987  0.1960  0.2528  0.1893
   52MOL   H55029212   6.951   2.622   6.867  1.3504 -1.0835  0.5000
   52MOL   H55129213   6.987   2.703   7.016 -1.9849  1.9600 -0.0292
   52MOL   H55229214   6.873   2.411   6.985 -0.1115 -1.4260  0.8879
   52MOL   H55329215   6.952   2.470   7.123  0.9616  0.2919 -0.4571
   52MOL   H55429216   7.090   2.423   6.858  1.3491  0.2389  0.2087
   52MOL   H55529217   7.175   2.504   6.988  2.4407 -2.9685  2.0414
   52MOL   H55629218   7.159   2.310   7.137 -0.9187  4.1802 -0.6551
   52MOL   H55729219   7.067   2.230   7.014 -0.1421 -0.1311 -3.0413
   52MOL   H55829220   7.393   2.182   6.779  0.2810 -1.5646  1.5461
   52MOL   H55929221   7.571   2.138   6.638 -0.3891  0.1429  0.1788
   52MOL   H56029222   7.844   2.291   6.935 -0.2050 -2.0521  1.8984
   52MOL   H56129223   7.641   2.350   7.083  1.6336  0.2942  0.0727
   52MOL   H56229224   7.940   2.170   6.746 -0.0284 -0.0832 -0.3688
   53MOL     O129225   2.588   3.354   4.453  0.6659 -0.1051 -0.0147
   53MOL     C229226   2.470   3.428   4.497 -0.1567 -0.2177 -0.3629
   53MOL     C329227   2.346   3.379   4.417  0.6004 -0.1229  0.1864
   53MOL     C429228   2.336   3.402   4.264  0.1594  0.5716  0.3236
   53MOL     C529229   2.459   3.346   4.189 -0.5064  0.1347  0.6122
   53MOL     O629230   2.435   3.351   4.046 -0.1010 -1.0753  0.5317
   53MOL     C729231   2.474   3.245   3.975  0.5503 -0.6522 -0.5913
   53MOL     O829232   2.547   3.150   4.012 -0.2041  0.0123 -0.3321
   53MOL     C929233   2.419   3.238   3.839 -0.2158  0.8200 -0.4842
   53MOL    C1029234   2.420   3.113   3.773 -0.2959  0.3186  0.1627
   53MOL    C1129235   2.368   3.106   3.641  0.6177 -0.2622 -0.4839
   53MOL    C1229236   2.306   3.220   3.586  0.1297 -0.0997 -0.2876
   53MOL    C1329237   2.231   3.208   3.453  0.3940  0.0909 -0.3977
   53MOL    O1429238   2.153   3.297   3.407  0.0209  0.0511  0.1611
   53MOL    C1529239   2.308   3.346   3.650  0.8311  0.6143  0.9897
   53MOL    C1629240   2.365   3.355   3.779 -0.4275  1.4162 -0.0642
   53MOL    H1729241   2.464   3.415   4.605 -1.6605 -0.6385 -0.4896
   53MOL    H1829242   2.487   3.536   4.489 -0.7099 -0.0657  0.4629
   53MOL    H1929243   2.265   3.418   4.479 -0.2792  0.5138 -1.3245
   53MOL    H2029244   2.346   3.274   4.446 -1.3523 -0.0163  0.6845
   53MOL    H2129245   2.249   3.347   4.227  0.0789  0.5128  0.5982
   53MOL    H2229246   2.327   3.507   4.236 -1.6024  0.3242 -0.0694
   53MOL    H2329247   2.549   3.403   4.213 -0.6872  1.0311 -0.7638
   53MOL    H2429248   2.475   3.245   4.226  1.2017  0.1568  0.0054
   53MOL    H2529249   2.453   3.020   3.815 -0.2582 -0.6941 -2.0311
   53MOL    H2629250   2.357   3.006   3.602 -0.7891 -2.2222  4.5648
   53MOL    H2729251   2.267   3.436   3.606  1.4729  2.0334  3.2348
   53MOL    H2829252   2.373   3.450   3.830  0.5032 -0.3537  3.2755
   53MOL    H2929253   2.663   3.408   4.470 -0.2642  1.0652  0.4005
   53MOL    O3029254   2.252   3.090   3.398  0.2955  0.4214 -0.0045
   53MOL    C3129255   2.190   3.059   3.270  0.1244 -0.3365 -0.3977
   53MOL    C3229256   2.245   2.926   3.211 -0.0091 -0.1002 -0.1368
   53MOL    C3329257   2.196   2.900   3.065 -0.6843  0.4337 -0.4940
   53MOL    C3429258   2.241   3.008   2.976 -0.3966 -0.2676 -0.0861
   53MOL    O3529259   2.382   3.003   2.966  0.0243 -0.3322  0.5375
   53MOL    C3629260   2.435   2.941   2.857 -0.8401 -0.3372  0.2587
   53MOL    O3729261   2.369   2.904   2.754 -0.2467  0.2015 -0.4369
   53MOL    C3829262   2.584   2.939   2.851 -0.1787  0.3125 -0.2794
   53MOL    C3929263   2.669   2.951   2.965 -0.0136 -0.3551  0.2347
   53MOL    C4029264   2.807   2.927   2.965  0.1891  0.2027 -0.2561
   53MOL    C4129265   2.867   2.895   2.843  0.8990  0.0601 -0.4869
   53MOL    C4229266   3.021   2.889   2.829  0.5468  0.2174  0.3816
   53MOL    O4329267   3.081   2.841   2.736  0.2397 -0.3636 -0.2495
   53MOL    C4429268   2.789   2.889   2.725  0.1364  0.0323  0.0325
   53MOL    C4529269   2.646   2.915   2.726 -0.0003 -0.3953  0.7014
   53MOL    H4629270   2.085   3.066   3.299  0.3072 -0.1564  0.2527
   53MOL    H4729271   2.207   3.141   3.200  0.3993  3.4145  3.7853
   53MOL    H4829272   2.230   2.831   3.263 -0.0598 -0.9842 -1.7363
   53MOL    H4929273   2.354   2.927   3.203  0.0326  2.4183  0.2765
   53MOL    H5029274   2.247   2.812   3.026  0.9296  0.6429  1.0376
   53MOL    H5129275   2.089   2.882   3.062 -0.3034 -2.7021  1.8785
   53MOL    H5229276   2.188   2.991   2.883 -0.3846  2.5991 -0.6757
   53MOL    H5329277   2.215   3.112   2.998  0.7084  0.0674 -0.3235
   53MOL    H5429278   2.614   2.978   3.055 -0.7546 -0.5469 -0.1591
   53MOL    H5529279   2.867   2.951   3.051  1.3394  0.1527 -1.0410
   53MOL    H5629280   2.840   2.870   2.632  0.1065 -0.4852  0.1223
   53MOL    H5729281   2.590   2.911   2.633 -0.8630  1.9238  1.0995
   53MOL    O5829282   3.080   2.944   2.934  0.1561  0.2640  0.3325
   53MOL    C5929283   3.222   2.952   2.954  0.0122 -0.4057  0.4558
   53MOL    C6029284   3.237   2.974   3.110  0.5958  0.2708 -0.3311
   53MOL    C6129285   3.190   3.117   3.156  0.0549 -0.0883 -0.4352
   53MOL    C6229286   3.153   3.107   3.311  0.5210  0.0344 -0.6419
   53MOL    O6329287   3.033   3.029   3.316 -0.7985  0.0559 -0.6490
   53MOL    C6429288   2.954   3.018   3.431 -0.9962  0.5440  0.0382
   53MOL    O6529289   2.972   3.087   3.530  0.3165 -0.2161  0.1276
   53MOL    C6629290   2.845   2.918   3.424 -0.1745 -0.1150  0.3416
   53MOL    C6729291   2.818   2.853   3.307 -0.0382 -0.0358  1.2083
   53MOL    C6829292   2.710   2.764   3.294  0.5589 -0.2745  0.3514
   53MOL    C6929293   2.605   2.765   3.392  0.0853  0.0240 -0.3253
   53MOL    C7029294   2.498   2.667   3.376 -0.2785 -0.0473 -0.1705
   53MOL    O7129295   2.497   2.581   3.293  0.2180  0.4464  0.8767
   53MOL    C7229296   2.623   2.839   3.517 -0.3645 -0.6680 -1.0357
   53MOL    C7329297   2.749   2.913   3.527 -0.4400  0.5280 -0.1159
   53MOL    H7429298   3.266   2.857   2.925  0.6110  0.0706 -0.2137
   53MOL    H7529299   3.268   3.031   2.894 -1.6673  0.6259  0.4892
   53MOL    H7629300   3.334   2.940   3.146  0.0629 -1.2158 -0.2425
   53MOL    H7729301   3.168   2.903   3.157  1.9770 -1.0545 -0.2767
   53MOL    H7829302   3.256   3.203   3.143 -0.6253  0.4049 -0.6495
   53MOL    H7929303   3.104   3.140   3.093 -0.6540 -2.2242 -0.2779
   53MOL    H8029304   3.233   3.061   3.370  0.5547  0.5348 -0.2934
   53MOL    H8129305   3.120   3.204   3.347  0.7987 -0.3430  0.6705
   53MOL    H8229306   2.893   2.851   3.229 -1.1824  0.6345  0.0673
   53MOL    H8329307   2.710   2.707   3.202  0.5819  2.0714 -1.1484
   53MOL    H8429308   2.552   2.853   3.597 -0.7117 -1.5084 -1.1924
   53MOL    H8529309   2.768   2.973   3.615  0.2347 -0.2061  0.2393
   53MOL    O8629310   2.405   2.670   3.475 -0.1513 -0.5546 -0.8302
   53MOL    C8729311   2.304   2.571   3.489 -0.2431  0.0245  0.4324
   53MOL    C8829312   2.225   2.605   3.615  0.0222  0.5945 -1.2639
   53MOL    C8929313   2.146   2.745   3.592 -0.5390 -0.4329  0.2966
   53MOL    C9029314   2.061   2.791   3.703 -0.4695 -0.2496 -0.3542
   53MOL    O9129315   1.990   2.908   3.665 -0.2035  0.2628 -0.0212
   53MOL    C9229316   1.873   2.936   3.720 -0.0476 -0.0554 -0.4577
   53MOL    O9329317   1.799   2.859   3.786  0.7764  0.5296  0.0238
   53MOL    C9429318   1.830   3.070   3.688  0.0281  0.2583  0.8242
   53MOL    C9529319   1.706   3.111   3.741 -0.2028  0.0775  0.0684
   53MOL    C9629320   1.646   3.231   3.694 -0.0534  0.5412  0.1945
   53MOL    C9729321   1.710   3.314   3.604  0.1986 -0.0213 -0.6837
   53MOL    C9829322   1.648   3.438   3.563 -0.2810  0.5049 -0.4048
   53MOL    O9929323   1.542   3.483   3.614 -0.1221 -0.4254 -0.5915
   53MOL   C10029324   1.839   3.277   3.560  0.5734  0.4598  0.1966
   53MOL   C10129325   1.902   3.157   3.602  0.0279  0.2741  0.1576
   53MOL   H10229326   2.232   2.585   3.409  1.1765 -1.1693 -1.0892
   53MOL   H10329327   2.339   2.468   3.500 -3.3539 -1.2929 -1.3391
   53MOL   H10429328   2.296   2.624   3.696 -2.3295 -0.7626  1.1924
   53MOL   H10529329   2.163   2.521   3.646  0.1686  0.5950 -0.9733
   53MOL   H10629330   2.219   2.822   3.571  0.3752 -1.8871 -1.9907
   53MOL   H10729331   2.084   2.737   3.503 -2.4795 -1.2076  1.6581
   53MOL   H10829332   2.002   2.716   3.756 -0.2210 -1.0920 -1.2514
   53MOL   H10929333   2.123   2.831   3.783  1.2155  2.2281 -2.8074
   53MOL   H11029334   1.658   3.062   3.824  0.4086  0.6670  0.7745
   53MOL   H11129335   1.554   3.261   3.744  0.3721 -1.2728  2.1774
   53MOL   H11229336   1.887   3.338   3.485  0.4205  1.3557  0.8245
   53MOL   H11329337   1.998   3.125   3.563 -0.5441  1.4868 -2.3584
   53MOL   O11429338   1.715   3.493   3.456  0.2935 -0.5910 -0.0773
   53MOL   C11529339   1.660   3.604   3.396 -0.0913 -0.3771 -0.5429
   53MOL   C11629340   1.778   3.689   3.349  0.3674  0.5696 -0.2732
   53MOL   C11729341   1.861   3.755   3.458  0.2965  0.0184 -0.2629
   53MOL   C11829342   1.987   3.831   3.411 -0.4712 -0.2991  0.5948
   53MOL   O11929343   2.069   3.738   3.340 -0.1385 -0.1945 -0.5828
   53MOL   C12029344   2.191   3.775   3.301  0.3718  0.0550  0.0355
   53MOL   O12129345   2.232   3.888   3.312 -0.2505 -1.1397 -0.2383
   53MOL   C12229346   2.257   3.657   3.230  0.8836  0.5328 -0.1047
   53MOL   C12329347   2.203   3.524   3.215  0.6464 -0.0997  0.5876
   53MOL   C12429348   2.267   3.433   3.126  0.7456  0.2641 -0.2630
   53MOL   C12529349   2.394   3.458   3.071 -0.0478 -0.7089 -0.6541
   53MOL   C12629350   2.451   3.377   2.959  0.1467 -0.1681 -0.3619
   53MOL   O12729351   2.387   3.297   2.902  0.3534 -0.1465 -0.5661
   53MOL   C12829352   2.467   3.570   3.135  0.6287  0.1072 -0.1859
   53MOL   C12929353   2.390   3.672   3.195 -0.2475 -0.0348  0.3007
   53MOL   H13029354   1.595   3.572   3.315 -0.9583  0.5138 -0.2211
   53MOL   H13129355   1.595   3.652   3.469 -0.3372 -3.6055  1.4322
   53MOL   H13229356   1.718   3.757   3.289 -0.4003 -1.6845 -2.1429
   53MOL   H13329357   1.842   3.628   3.284 -0.3429 -0.8752  0.3566
   53MOL   H13429358   1.793   3.827   3.503 -0.4578 -1.7767  1.5357
   53MOL   H13529359   1.890   3.681   3.532 -0.2991  0.8459  0.8108
   53MOL   H13629360   1.947   3.916   3.355  1.2724 -0.8040 -1.4829
   53MOL   H13729361   2.037   3.868   3.501  0.9489 -1.6173  0.3570
   53MOL   H13829362   2.102   3.508   3.250  0.6417  0.5545  0.8835
   53MOL   H13929363   2.215   3.349   3.082  0.0641  0.8613 -0.6022
   53MOL   H14029364   2.571   3.595   3.125  1.1360 -2.3150 -1.1809
   53MOL   H14129365   2.439   3.766   3.216 -2.0836  0.8581  0.6954
   53MOL   O14229366   2.572   3.434   2.915 -0.0819  0.8732  0.3824
   53MOL   C14329367   2.643   3.381   2.806  0.1054  0.1177  0.3153
   53MOL   C14429368   2.592   3.433   2.670 -0.0786  0.5156  0.9860
   53MOL   C14529369   2.621   3.337   2.552  0.2320  0.0208  0.0452
   53MOL   C14629370   2.563   3.372   2.414 -0.6719  0.1356 -0.5715
   53MOL   O14729371   2.435   3.431   2.434  0.0507  1.0016 -0.0822
   53MOL   C14829372   2.333   3.418   2.340 -0.3447 -0.0932  0.3379
   53MOL   O14929373   2.355   3.390   2.222  0.1535  0.0294  0.1617
   53MOL   C15029374   2.195   3.451   2.391 -0.8740  0.1148 -0.6934
   53MOL   C15129375   2.174   3.493   2.527 -1.2186  0.1265  0.5701
   53MOL   C15229376   2.042   3.507   2.578  0.7359 -0.5277 -0.0630
   53MOL   C15329377   1.934   3.489   2.491  0.2865  0.2669  0.4662
   53MOL   C15429378   1.792   3.495   2.541  0.9005  0.1108 -0.0734
   53MOL   O15529379   1.770   3.515   2.658 -0.2628  0.1186 -0.1507
   53MOL   C15629380   1.950   3.460   2.349  0.3398 -0.2615  0.1785
   53MOL   C15729381   2.084   3.433   2.301  0.8365 -0.2248  0.1387
   53MOL   H15829382   2.750   3.396   2.818 -0.1441  0.6082  1.9929
   53MOL   H15929383   2.632   3.273   2.801 -1.7853  0.2937  0.5498
   53MOL   H16029384   2.647   3.524   2.644  2.6140 -0.9794  1.2447
   53MOL   H16129385   2.484   3.445   2.679 -0.4093 -1.4138 -0.0624
   53MOL   H16229386   2.728   3.322   2.542  0.7208  1.2931  2.8289
   53MOL   H16329387   2.583   3.236   2.565  2.2698 -0.8371 -0.5131
   53MOL   H16429388   2.636   3.444   2.379  2.9273 -1.1196  3.7415
   53MOL   H16529389   2.566   3.288   2.345 -0.8959  0.3868 -0.8848
   53MOL   H16629390   2.257   3.502   2.594  0.5418 -0.0917 -1.5263
   53MOL   H16729391   2.030   3.524   2.684 -0.2442  0.0321 -0.2577
   53MOL   H16829392   1.866   3.446   2.283  0.1044 -0.0174  0.4213
   53MOL   H16929393   2.109   3.405   2.200 -2.3854  1.1048 -1.0900
   53MOL   O17029394   1.698   3.455   2.447 -0.1304  0.6637 -0.7726
   53MOL   C17129395   1.568   3.418   2.484 -0.2767 -0.8723 -0.3787
   53MOL   C17229396   1.566   3.276   2.545 -0.6429 -0.3517  0.6142
   53MOL   C17329397   1.630   3.161   2.459  0.1784  0.0393 -0.1103
   53MOL   C17429398   1.628   3.026   2.526  0.9258  0.7650  0.1758
   53MOL   O17529399   1.495   2.978   2.528 -0.2598 -0.1274  0.3250
   53MOL   C17629400   1.459   2.894   2.635  0.0867 -0.0406 -0.3712
   53MOL   O17729401   1.531   2.878   2.733 -0.0704 -0.7030  0.0113
   53MOL   C17829402   1.315   2.866   2.632 -0.3195 -0.2521 -0.2056
   53MOL   C17929403   1.233   2.887   2.520  0.2972 -0.0072  0.3953
   53MOL   C18029404   1.101   2.833   2.514  0.4315  0.4152 -0.9663
   53MOL   C18129405   1.041   2.774   2.630 -0.2651  0.3417 -0.4804
   53MOL   C18229406   0.901   2.721   2.628 -0.4013  0.0202 -0.0835
   53MOL   O18329407   0.825   2.735   2.529 -0.2926 -0.3984 -0.7626
   53MOL   C18429408   1.123   2.753   2.741  0.6935  0.7739  0.8970
   53MOL   C18529409   1.250   2.804   2.740 -0.4013  0.4851  0.9675
   53MOL   H18629410   1.523   3.492   2.550  0.6525 -0.7911  0.1724
   53MOL   H18729411   1.511   3.406   2.391 -0.7561 -2.4062  0.0982
   53MOL   H18829412   1.460   3.254   2.561 -0.4752 -0.8512  1.0660
   53MOL   H18929413   1.616   3.293   2.640  2.3899 -2.0706 -0.6163
   53MOL   H19029414   1.575   3.150   2.366 -3.2428  0.7569  1.7252
   53MOL   H19129415   1.729   3.183   2.419  0.4554 -0.9607  0.0214
   53MOL   H19229416   1.682   2.955   2.464 -1.8644 -1.0311 -0.2429
   53MOL   H19329417   1.677   3.040   2.623  2.1906 -0.2520 -0.2992
   53MOL   H19429418   1.270   2.940   2.433  0.8789  0.2440  0.7946
   53MOL   H19529419   1.045   2.842   2.422  2.0856  2.0343 -1.8383
   53MOL   H19629420   1.073   2.717   2.829  1.0565 -0.1104  0.7398
   53MOL   H19729421   1.312   2.789   2.827 -2.1232  0.1840  2.1565
   53MOL   O19829422   0.864   2.671   2.740 -0.4467  0.5144 -0.5292
   53MOL   C19929423   0.730   2.629   2.750 -0.2846 -0.0908 -0.5548
   53MOL   C20029424   0.692   2.602   2.897 -0.1433 -0.5111  0.3381
   53MOL   C20129425   0.552   2.531   2.923 -0.5829 -0.9185 -0.0916
   53MOL   C20229426   0.550   2.387   2.878  0.0311 -0.3843  0.1236
   53MOL   O20329427   0.429   2.332   2.927 -0.1930 -0.1162  0.4539
   53MOL   C20429428   0.318   2.314   2.849 -0.4250  0.1546 -0.3513
   53MOL   O20529429   0.302   2.364   2.740 -0.0494  0.1820  0.2948
   53MOL   C20629430   0.227   2.217   2.910  0.3459 -0.3292  0.3485
   53MOL   C20729431   0.208   2.206   3.049 -0.4110  0.2913  0.5763
   53MOL   C20829432   0.133   2.100   3.107  0.0610 -0.3071  0.3240
   53MOL   C20929433   0.067   2.008   3.021 -0.3919  0.1226  0.2812
   53MOL   C21029434   8.080   1.895   3.073  0.8722 -0.0111 -0.4030
   53MOL   O21129435   7.994   1.835   3.009 -0.2647 -0.3902  0.3946
   53MOL   C21229436   0.090   2.019   2.884  0.0437  0.4973  0.1766
   53MOL   C21329437   0.163   2.125   2.828 -0.1269 -0.8683 -0.5018
   53MOL   H21429438   0.658   2.704   2.715 -0.3313 -0.3113 -0.9344
   53MOL   H21529439   0.717   2.533   2.700  2.2855 -0.0681 -1.2908
   53MOL   H21629440   0.699   2.694   2.956 -1.1789  0.1988 -0.6119
   53MOL   H21729441   0.772   2.538   2.932  3.2424  0.9435 -4.1859
   53MOL   H21829442   0.536   2.531   3.031  4.2199  1.7623  0.7635
   53MOL   H21929443   0.484   2.603   2.877 -1.5044 -1.3009  0.6442
   53MOL   H22029444   0.544   2.384   2.770 -2.5863  1.2088  0.1883
   53MOL   H22129445   0.638   2.336   2.917  3.1598  2.9012 -2.3786
   53MOL   H22229446   0.250   2.275   3.121  1.4493 -1.9980  1.7544
   53MOL   H22329447   0.110   2.088   3.212  0.1180 -1.1629  0.2427
   53MOL   H22429448   0.034   1.956   2.816 -1.2795  1.8975 -0.0620
   53MOL   H22529449   0.186   2.146   2.725  0.3738  0.1988 -0.1809
   53MOL   O22629450   0.018   1.858   3.196  0.3173 -0.0954  0.0234
   53MOL   C22729451   8.030   1.766   3.273 -0.7180 -0.7735  0.0583
   53MOL   C22829452   8.072   1.773   3.420 -0.0691  0.1824 -0.2982
   53MOL   C22929453   0.115   1.705   3.441  0.3993 -0.2393 -0.1194
   53MOL   C23029454   0.228   1.807   3.435 -0.1027 -0.2993  0.7357
   53MOL   O23129455   0.222   1.904   3.533  0.4473  0.3210 -0.3965
   53MOL   C23229456   0.285   2.020   3.516 -0.2767 -0.5841  0.5011
   53MOL   O23329457   0.364   2.044   3.422 -0.4837  0.0944 -0.4844
   53MOL   C23429458   0.258   2.108   3.630 -0.2887 -0.6783 -0.8661
   53MOL   C23529459   0.306   2.241   3.633  0.3178 -0.1889  0.5278
   53MOL   C23629460   0.291   2.324   3.748  0.3249  0.1133  0.4484
   53MOL   C23729461   0.233   2.273   3.865  0.2896 -0.1592 -0.1527
   53MOL   C23829462   0.215   2.366   3.980  0.6355 -0.3234 -0.5460
   53MOL   O23929463   0.243   2.488   3.985 -0.4194  0.6897 -0.3275
   53MOL   C24029464   0.176   2.139   3.864 -0.4113 -0.3257 -0.0497
   53MOL   C24129465   0.196   2.059   3.748 -0.5292 -0.2002  0.2968
   53MOL   H24229466   7.924   1.780   3.250 -0.6444 -0.5418 -0.1375
   53MOL   H24329467   8.053   1.667   3.236 -3.1323 -1.5546  0.5279
   53MOL   H24429468   7.994   1.716   3.470 -1.5905  0.9029 -1.8079
   53MOL   H24529469   8.064   1.876   3.456  1.3626  0.3138 -0.3138
   53MOL   H24629470   0.127   1.669   3.543 -0.9517  0.2846  0.2386
   53MOL   H24729471   0.137   1.621   3.375  0.0329  0.6528 -1.3902
   53MOL   H24829472   0.315   1.743   3.444  0.6926  0.7058  0.2584
   53MOL   H24929473   0.225   1.859   3.339  0.5016 -1.2041  0.2293
   53MOL   H25029474   0.364   2.278   3.550 -0.5853 -0.2865 -0.1632
   53MOL   H25129475   0.320   2.427   3.733 -1.0400  0.1305 -2.3200
   53MOL   H25229476   0.115   2.098   3.943  0.1354  0.9841  1.0675
   53MOL   H25329477   0.156   1.959   3.754  0.7783 -0.8949 -2.0192
   53MOL   O25429478   0.160   2.308   4.080 -0.0090  0.6484  0.4679
   53MOL   C25529479   0.119   2.387   4.200  0.7522  0.0146 -0.3065
   53MOL   C25629480   0.030   2.295   4.282  0.4659 -0.1320 -0.5712
   53MOL   C25729481   7.999   2.272   4.213  0.3856 -0.3634 -0.4786
   53MOL   C25829482   7.899   2.193   4.302 -0.1286 -0.1123 -0.0334
   53MOL   O25929483   7.814   2.280   4.372  0.3858 -0.2805  0.8289
   53MOL   C26029484   7.736   2.226   4.465  0.6694  0.1345  0.6326
   53MOL   O26129485   7.737   2.105   4.494  0.3735  0.0641  0.2243
   53MOL   C26229486   7.643   2.322   4.533  0.2659 -0.1686 -0.6782
   53MOL   C26329487   7.635   2.458   4.503 -0.1486  0.0252 -0.9586
   53MOL   C26429488   7.543   2.541   4.570 -0.2435  0.5512 -0.6608
   53MOL   C26529489   7.445   2.490   4.657 -0.3604  0.6039  0.6623
   53MOL   C26629490   7.347   2.583   4.719  0.2940  0.1134  0.3810
   53MOL   O26729491   7.353   2.705   4.721  0.7328 -0.5913  0.5918
   53MOL   C26829492   7.456   2.350   4.687  0.3350  0.1620 -1.2314
   53MOL   C26929493   7.545   2.263   4.617  0.2486 -0.3436  0.3846
   53MOL   H27029494   0.200   2.408   4.269  0.8638 -1.1909 -0.0441
   53MOL   H27129495   0.074   2.484   4.178 -0.1065 -0.2581  0.2223
   53MOL   H27229496   0.012   2.337   4.380  1.1001  1.0991 -0.9796
   53MOL   H27329497   0.073   2.198   4.308  0.5611 -0.3372 -1.4512
   53MOL   H27429498   7.968   2.361   4.159  0.6524 -0.0507 -0.1218
   53MOL   H27529499   8.030   2.206   4.132 -0.3731  1.4854 -2.3545
   53MOL   H27629500   7.836   2.129   4.241  1.8304 -0.6169 -1.5483
   53MOL   H27729501   7.953   2.125   4.368  0.7303 -0.2633 -0.8909
   53MOL   H27829502   7.715   2.502   4.444  0.3164 -0.2219 -0.5156
   53MOL   H27929503   7.550   2.648   4.558 -0.5299  0.6854  0.2859
   53MOL   H28029504   7.385   2.302   4.753 -0.2924  2.4499 -0.1670
   53MOL   H28129505   7.540   2.159   4.643  1.1567 -0.0011  2.0153
   53MOL   O28229506   7.248   2.521   4.776 -0.0847 -0.5967 -0.0675
   53MOL   C28329507   7.132   2.590   4.837  0.9374 -0.3399 -0.6048
   53MOL   C28429508   7.010   2.545   4.765  0.0997  0.6264 -0.5587
   53MOL   C28529509   6.884   2.577   4.842 -0.0860  0.3900 -0.6500
   53MOL   C28629510   6.751   2.525   4.777  0.6643 -0.1275  0.0849
   53MOL   O28729511   6.753   2.389   4.735  0.5823 -0.0776  0.0825
   53MOL   C28829512   6.698   2.296   4.803 -0.0539 -0.1890 -0.0230
   53MOL   O28929513   6.648   2.317   4.915  0.0899  0.2317 -0.3092
   53MOL   C29029514   6.691   2.166   4.731  0.3722 -0.1178  0.0011
   53MOL   C29129515   6.633   2.058   4.800 -0.0431  0.2646  0.2179
   53MOL   C29229516   6.632   1.930   4.736 -0.2256 -0.1385  0.0817
   53MOL   C29329517   6.676   1.917   4.605 -0.0944  0.1153 -0.0538
   53MOL   C29429518   6.682   1.780   4.536  0.7401  0.3720 -0.1094
   53MOL   O29529519   6.736   1.760   4.431 -0.2893 -0.2096  0.1252
   53MOL   C29629520   6.731   2.026   4.537  0.5348 -0.2321  0.1579
   53MOL   C29729521   6.731   2.154   4.596  0.7050  0.3238 -0.2775
   53MOL   H29829522   7.126   2.573   4.944  1.6560  1.3470 -0.2779
   53MOL   H29929523   7.141   2.696   4.814  4.0793 -0.5498 -0.5890
   53MOL   H30029524   7.018   2.438   4.741  0.2639  0.6961 -0.8177
   53MOL   H30129525   7.015   2.584   4.664 -1.0196  1.0651 -0.4481
   53MOL   H30229526   6.890   2.533   4.942 -1.5355  1.9275  0.1407
   53MOL   H30329527   6.880   2.685   4.857  2.6259  0.5676 -0.9590
   53MOL   H30429528   6.666   2.542   4.843 -1.3352 -0.4612 -2.3749
   53MOL   H30529529   6.716   2.585   4.693  0.5318 -3.5487 -2.3811
   53MOL   H30629530   6.615   2.055   4.906 -2.6683 -1.8415 -0.2291
   53MOL   H30729531   6.593   1.849   4.797 -3.2040  1.6158  0.5805
   53MOL   H30829532   6.775   2.004   4.440  2.1237 -1.1997  1.0819
   53MOL   H30929533   6.778   2.230   4.535 -0.6807  0.4257 -1.2399
   53MOL   O31029534   6.616   1.685   4.611 -0.5938  0.3368 -0.1410
   53MOL   C31129535   6.628   1.545   4.569  0.1147 -0.0069 -0.4847
   53MOL   C31229536   6.689   1.469   4.692  0.0991 -0.0307  0.0637
   53MOL   C31329537   6.572   1.427   4.788 -0.2164 -0.1099 -0.1794
   53MOL   C31429538   6.627   1.353   4.915 -0.5425 -0.2484 -0.1598
   53MOL   O31529539   6.720   1.256   4.874  0.4390  0.0011 -0.3937
   53MOL   C31629540   6.780   1.178   4.968  0.2576 -0.0072  0.2556
   53MOL   O31729541   6.768   1.201   5.087  0.0598  0.1164 -0.3366
   53MOL   C31829542   6.847   1.057   4.919 -0.4247  0.0597 -0.4565
   53MOL   C31929543   6.868   0.939   4.999  1.0089 -0.0290  0.3623
   53MOL   C32029544   6.942   0.831   4.949 -0.0691 -0.1979  0.2671
   53MOL   C32129545   6.985   0.830   4.817  0.4448  0.2567  0.3287
   53MOL   C32229546   7.035   0.701   4.763  0.6790 -0.0391  0.0811
   53MOL   O32329547   6.997   0.592   4.804  0.2853 -0.3202  0.7704
   53MOL   C32429548   6.971   0.947   4.741 -0.0940  0.1289 -0.3594
   53MOL   C32529549   6.898   1.055   4.788  0.1054  0.0344  0.4848
   53MOL   H32629550   6.529   1.500   4.564 -1.2090  2.6862  0.3594
   53MOL   H32729551   6.688   1.526   4.480 -1.4894 -1.7701 -1.2152
   53MOL   H32829552   6.745   1.533   4.759 -0.0381  0.4132 -0.2417
   53MOL   H32929553   6.746   1.391   4.640 -0.1789  1.4285 -2.5434
   53MOL   H33029554   6.525   1.519   4.823  1.6744  1.1044 -0.7809
   53MOL   H33129555   6.504   1.357   4.740 -2.6690  2.0767  0.0265
   53MOL   H33229556   6.691   1.423   4.969  1.2736  0.1288 -2.6456
   53MOL   H33329557   6.552   1.307   4.978  0.7452  0.5296  1.9713
   53MOL   H33429558   6.834   0.936   5.101 -0.1622  0.6240 -0.0013
   53MOL   H33529559   6.950   0.743   5.012 -5.3915 -2.5495 -2.0083
   53MOL   H33629560   6.996   0.934   4.637  1.5014 -0.6863  0.1048
   53MOL   H33729561   6.875   1.137   4.722 -3.0490 -0.2229  1.2007
   53MOL   O33829562   7.126   0.716   4.662  0.0474  0.1744  0.7610
   53MOL   C33929563   7.179   0.607   4.588 -0.2134 -0.2975 -0.2493
   53MOL   C34029564   7.100   0.543   4.473 -0.7271 -0.3259  0.1965
   53MOL   C34129565   6.978   0.462   4.507  0.5169  0.2079 -0.6217
   53MOL   C34229566   6.835   0.512   4.455 -0.2421  0.0849  0.5603
   53MOL   O34329567   6.787   0.630   4.520 -0.0458  0.1804  0.0715
   53MOL   C34429568   6.750   0.738   4.456 -0.8073 -0.2172 -0.2829
   53MOL   O34529569   6.784   0.754   4.339  0.0735 -0.7655  1.0430
   53MOL   C34629570   6.656   0.822   4.536  0.1713 -0.4058 -0.9276
   53MOL   C34729571   6.639   0.814   4.679 -0.5224 -0.2146  0.3629
   53MOL   C34829572   6.550   0.890   4.750 -0.0615  0.5268  0.5307
   53MOL   C34929573   6.465   0.977   4.674 -0.5883 -0.4174 -0.4348
   53MOL   C35029574   6.364   1.060   4.753 -0.5164  0.2627 -0.1154
   53MOL   O35129575   6.391   1.101   4.864 -0.0010  0.1740 -0.3200
   53MOL   C35229576   6.478   0.985   4.534 -0.9685  0.1231 -1.0724
   53MOL   C35329577   6.567   0.906   4.465 -0.0122 -0.5039  0.5210
   53MOL   H35429578   7.276   0.642   4.553 -0.0499  0.2811  0.7687
   53MOL   H35529579   7.223   0.542   4.664 -0.3143 -1.1883 -0.9418
   53MOL   H35629580   7.169   0.481   4.416 -1.4559 -0.4192 -0.5987
   53MOL   H35729581   7.063   0.622   4.407  0.1004  0.6389  0.8755
   53MOL   H35829582   6.990   0.368   4.452  0.1966 -1.2296  1.6794
   53MOL   H35929583   6.981   0.424   4.609 -1.4717 -1.2660 -1.0606
   53MOL   H36029584   6.830   0.535   4.348 -4.1176  0.9371  0.8521
   53MOL   H36129585   6.751   0.445   4.473 -1.3778  1.2175 -0.4229
   53MOL   H36229586   6.702   0.741   4.729  0.2485 -0.2911 -0.7162
   53MOL   H36329587   6.541   0.874   4.857  3.5183  0.0911  0.8043
   53MOL   H36429588   6.406   1.047   4.482 -2.4204 -2.9741 -2.8915
   53MOL   H36529589   6.579   0.906   4.357 -1.0452 -0.7774  0.3999
   53MOL   O36629590   6.256   1.102   4.672 -0.0118 -0.3506  0.2145
   53MOL   C36729591   6.191   1.216   4.715 -0.3914  0.0909 -0.0000
   53MOL   C36829592   6.055   1.207   4.636 -0.4054 -0.4467  0.0687
   53MOL   C36929593   5.964   1.092   4.681  0.2594 -0.1201  0.1691
   53MOL   C37029594   5.929   1.107   4.832  0.0842 -0.7486 -0.3646
   53MOL   O37129595   5.845   1.005   4.885 -0.3066 -0.0753  0.2564
   53MOL   C37229596   5.723   1.040   4.931  0.4833  0.6174 -0.0669
   53MOL   O37329597   5.686   1.153   4.951 -0.2524 -0.9638  0.1083
   53MOL   C37429598   5.640   0.922   4.957 -0.4750  0.0296 -0.4048
   53MOL   C37529599   5.510   0.945   5.018 -0.1993  0.3490 -0.4210
   53MOL   C37629600   5.435   0.831   5.058  0.3760  0.0732 -0.4743
   53MOL   C37729601   5.486   0.703   5.039  0.0003 -0.0851 -0.3391
   53MOL   C37829602   5.408   0.581   5.069  0.4260 -0.1523  0.0418
   53MOL   O37929603   5.458   0.470   5.073  0.1992 -0.1128  0.1858
   53MOL   C38029604   5.620   0.685   4.997 -0.2674  0.4193 -0.4988
   53MOL   C38129605   5.693   0.794   4.946 -0.4863 -0.0801 -1.1096
   53MOL   H38229606   6.166   1.220   4.821 -1.2207 -0.3489 -0.1787
   53MOL   H38329607   6.250   1.301   4.679 -0.5700 -0.4196 -1.5485
   53MOL   H38429608   6.083   1.208   4.531  1.9406 -1.4617  0.6420
   53MOL   H38529609   6.006   1.303   4.651  1.4664  0.5840 -0.2537
   53MOL   H38629610   5.879   1.100   4.614  0.7971 -0.2220 -0.5274
   53MOL   H38729611   6.014   0.996   4.669  0.5718 -0.0114  0.5695
   53MOL   H38829612   6.023   1.092   4.886 -0.2798 -0.9251  0.2265
   53MOL   H38929613   5.889   1.202   4.869 -1.5654 -0.8978 -1.7097
   53MOL   H39029614   5.471   1.045   5.033 -2.7369 -0.6137 -0.3423
   53MOL   H39129615   5.335   0.856   5.091  1.0962  2.4057  0.0216
   53MOL   H39229616   5.667   0.587   4.993  0.0115  0.5439 -0.3059
   53MOL   H39329617   5.792   0.773   4.911 -0.0925 -1.5508  0.7697
   53MOL   O39429618   5.281   0.603   5.117  0.0514 -0.5461  0.2316
   53MOL   C39529619   5.202   0.499   5.176  0.0664 -0.3753  0.2922
   53MOL   C39629620   5.073   0.556   5.227 -0.3839 -0.2629 -0.1887
   53MOL   C39729621   4.999   0.635   5.116  0.8854 -0.6910  0.6767
   53MOL   C39829622   4.862   0.684   5.159 -0.2241 -0.5116  0.1717
   53MOL   O39929623   4.772   0.583   5.165  0.0923 -0.4585  0.3385
   53MOL   C40029624   4.654   0.603   5.230 -0.7042  0.4065  0.2413
   53MOL   O40129625   4.624   0.692   5.307  0.3949 -0.3903  0.0799
   53MOL   C40229626   4.554   0.493   5.197 -0.2806 -0.4075  0.2370
   53MOL   C40329627   4.415   0.514   5.222 -0.0989 -0.6127 -0.1340
   53MOL   C40429628   4.317   0.430   5.168 -0.8375  0.3083  0.3160
   53MOL   C40529629   4.357   0.332   5.080 -0.7924 -1.1839  0.6392
   53MOL   C40629630   4.254   0.257   4.997 -0.3632 -0.6532  0.0672
   53MOL   O40729631   4.291   0.156   4.933  0.3044  0.5293  0.0434
   53MOL   C40829632   4.497   0.310   5.055 -0.2781 -0.4000 -0.9718
   53MOL   C40929633   4.598   0.386   5.122 -0.6576 -0.0411  0.5337
   53MOL   H41029634   5.189   0.417   5.105  0.2866 -0.5561  0.4592
   53MOL   H41129635   5.246   0.458   5.267 -0.6405  0.8584  1.2001
   53MOL   H41229636   5.091   0.618   5.315 -1.6473 -1.6038  1.0239
   53MOL   H41329637   5.009   0.484   5.278  1.5458 -1.2600  0.8964
   53MOL   H41429638   5.071   0.715   5.098  2.0080 -1.5857  1.1380
   53MOL   H41529639   4.993   0.568   5.029  1.0718 -0.2148  0.2975
   53MOL   H41629640   4.871   0.716   5.263 -0.6761 -2.1139  0.7263
   53MOL   H41729641   4.816   0.766   5.104 -0.1850 -1.5782 -1.4727
   53MOL   H41829642   4.375   0.599   5.275 -1.0157  0.2511 -2.1614
   53MOL   H41929643   4.213   0.458   5.179 -0.9868 -0.2006  0.2202
   53MOL   H42029644   4.520   0.248   4.970 -2.3596  0.8202 -2.4661
   53MOL   H42129645   4.700   0.375   5.087 -0.9157  1.3582 -0.7359
   53MOL   O42229646   4.127   0.308   5.010 -0.0884  0.1543 -0.6166
   53MOL   C42329647   4.025   0.231   4.948 -0.2662  0.0441 -0.3550
   53MOL   C42429648   4.032   0.262   4.796  0.2521  0.3948  0.0878
   53MOL   C42529649   3.912   0.207   4.719  0.3207 -0.9021  0.2797
   53MOL   C42629650   3.922   0.051   4.703 -0.0860 -0.1558  0.8469
   53MOL   O42729651   3.851   8.092   4.815  0.8666 -0.1524  0.3933
   53MOL   C42829652   3.817   7.968   4.830 -0.1745 -0.4082  0.6656
   53MOL   O42929653   3.883   7.880   4.781  0.3409 -0.8019  0.2248
   53MOL   C43029654   3.722   7.955   4.944 -0.9039 -0.1435  0.0075
   53MOL   C43129655   3.695   7.828   4.994  0.0903 -0.2236 -0.2229
   53MOL   C43229656   3.606   7.812   5.099  0.1351 -0.4344 -0.2148
   53MOL   C43329657   3.546   7.927   5.157 -0.2288  0.4293 -0.8641
   53MOL   C43429658   3.454   7.913   5.271 -0.5461 -0.3913 -0.3396
   53MOL   O43529659   3.426   7.803   5.324  0.2133 -0.0552 -0.0693
   53MOL   C43629660   3.571   8.056   5.101  0.6233 -0.3252 -0.1747
   53MOL   C43729661   3.655   8.069   4.991 -0.1041  0.7824  0.8842
   53MOL   H43829662   4.033   0.127   4.979  2.1790  0.6367  1.1912
   53MOL   H43929663   3.931   0.253   4.999  1.0150 -1.2036  2.6741
   53MOL   H44029664   4.125   0.225   4.752  0.1601  0.1685  0.0802
   53MOL   H44129665   4.029   0.370   4.783 -0.0316 -0.0520 -4.2281
   53MOL   H44229666   3.814   0.238   4.755  0.8216  0.1249  0.7758
   53MOL   H44329667   3.931   0.256   4.623 -0.3257 -0.0994  0.5544
   53MOL   H44429668   3.872   0.015   4.613 -0.7492  2.6568  0.0339
   53MOL   H44529669   4.025   0.019   4.688 -0.9423 -2.1268 -1.2044
   53MOL   H44629670   3.732   7.733   4.959  1.3041  0.3739 -0.5479
   53MOL   H44729671   3.566   7.719   5.137 -0.3072  0.3830  1.3930
   53MOL   H44829672   3.514   0.039   5.142  1.4439 -0.4223  1.1734
   53MOL   H44929673   3.672   0.072   4.958  0.5735  0.5334  0.4456
   53MOL   O45029674   3.394   8.026   5.315  0.4303 -0.3350 -0.1536
   53MOL   C45129675   3.319   8.038   5.438 -0.1458  0.0881  0.2394
   53MOL   C45229676   3.396   8.073   5.569  0.2444 -0.0490  0.5153
   53MOL   C45329677   3.425   0.125   5.595 -0.3670 -0.5985  0.1169
   53MOL   C45429678   3.543   0.122   5.703 -0.1946  0.2913 -0.4710
   53MOL   O45529679   3.563   0.254   5.749 -0.1833  0.2928  0.4416
   53MOL   C45629680   3.640   0.282   5.855  0.3369 -0.6619  0.7650
   53MOL   O45729681   3.693   0.205   5.926 -0.7962  0.0081 -0.4205
   53MOL   C45829682   3.652   0.423   5.877  0.3932 -0.3360 -0.1748
   53MOL   C45929683   3.733   0.466   5.993  0.2761  0.0124 -0.0458
   53MOL   C46029684   3.743   0.606   6.020  0.4936  0.5099 -0.1901
   53MOL   C46129685   3.676   0.703   5.943 -0.2179 -0.2104  0.1269
   53MOL   C46229686   3.687   0.852   5.961  0.6516  0.2718 -0.5093
   53MOL   O46329687   3.589   0.925   5.959 -0.0950 -0.3898  0.2153
   53MOL   C46429688   3.605   0.658   5.827 -0.9736  0.1386  0.1653
   53MOL   C46529689   3.589   0.519   5.795 -0.9485  0.3853 -0.1959
   53MOL   H46629690   3.246   0.020   5.432 -0.5687 -0.0343  3.0565
   53MOL   H46729691   3.263   7.946   5.459  0.9316 -0.3735  1.1502
   53MOL   H46829692   3.490   8.023   5.546  1.1723  2.4214 -1.2800
   53MOL   H46929693   3.348   8.025   5.654  0.6471 -2.9891 -0.8903
   53MOL   H47029694   3.459   0.174   5.504  0.3643  1.9727  1.7283
   53MOL   H47129695   3.335   0.180   5.622 -0.4945 -0.1031 -1.2237
   53MOL   H47229696   3.516   0.065   5.792 -1.9571  1.0622 -0.5036
   53MOL   H47329697   3.635   0.076   5.665  0.6738 -0.0712  2.0009
   53MOL   H47429698   3.783   0.399   6.061  0.1595 -0.7021 -0.6654
   53MOL   H47529699   3.804   0.647   6.100 -1.6922  0.2160  1.6654
   53MOL   H47629700   3.555   0.734   5.769 -0.4808  1.0185  0.8939
   53MOL   H47729701   3.528   0.496   5.709  2.2792 -0.6679 -2.2877
   53MOL   O47829702   3.814   0.892   5.990 -0.0262  0.1655 -0.3772
   53MOL   C47929703   3.837   1.032   5.988 -0.4854  0.7464  0.4567
   53MOL   C48029704   3.985   1.064   6.012 -0.0947  0.4975  0.3931
   53MOL   C48129705   4.041   1.036   6.154 -0.5904 -0.7396  0.0726
   53MOL   C48229706   4.155   1.141   6.181 -0.4640  0.6454 -0.2593
   53MOL   O48329707   4.095   1.270   6.188 -0.0349  0.1654  0.2944
   53MOL   C48429708   4.181   1.372   6.174 -0.0474 -0.5573  0.4798
   53MOL   O48529709   4.304   1.363   6.177  0.1118 -0.6493 -0.0111
   53MOL   C48629710   4.114   1.502   6.161  0.1654  0.2071  0.2116
   53MOL   C48729711   4.143   1.570   6.047 -0.8536  0.0804  0.7776
   53MOL   C48829712   4.056   1.676   6.013 -0.1347  0.0322 -0.1375
   53MOL   C48929713   3.938   1.708   6.092 -0.4593 -0.3276 -0.5984
   53MOL   C49029714   3.849   1.818   6.051  0.4643 -0.2455 -0.0270
   53MOL   O49129715   3.759   1.862   6.119  0.4980  0.0444  0.1734
   53MOL   C49229716   3.908   1.631   6.210  0.0205 -0.7770  0.1349
   53MOL   C49329717   4.002   1.529   6.244  0.5899 -0.8252  0.1567
   53MOL   H49429718   3.803   1.067   5.890 -1.7502 -0.6628  0.3706
   53MOL   H49529719   3.774   1.078   6.064 -2.9490 -1.3963 -0.1825
   53MOL   H49629720   3.983   1.171   5.996  3.9051  0.7224  0.9098
   53MOL   H49729721   4.047   1.014   5.937 -2.1413  0.8522 -1.5793
   53MOL   H49829722   3.965   1.049   6.230  0.2901  0.5168  0.7695
   53MOL   H49929723   4.078   0.934   6.163 -0.6071 -0.4453  4.4674
   53MOL   H50029724   4.221   1.124   6.266  1.4084  2.2636 -1.3408
   53MOL   H50129725   4.212   1.143   6.088  0.6893  1.8011  0.4435
   53MOL   H50229726   4.228   1.547   5.985 -0.4859  0.9426  0.9466
   53MOL   H50329727   4.075   1.726   5.920 -0.8934  1.0267  0.2442
   53MOL   H50429728   3.815   1.643   6.263 -1.5014  0.1202 -2.6522
   53MOL   H50529729   3.979   1.457   6.321 -1.0859 -0.8957 -0.3964
   53MOL   O50629730   3.882   1.864   5.926  0.1823  0.7728 -0.2245
   53MOL   C50729731   3.818   1.977   5.868  0.1101 -0.1235  0.3596
   53MOL   C50829732   3.903   2.039   5.759 -0.5549 -0.2358  0.3032
   53MOL   C50929733   3.914   1.952   5.630  0.0566 -1.1697 -0.3318
   53MOL   C51029734   4.007   2.008   5.528  0.0245  0.4184 -0.1802
   53MOL   O51129735   4.131   2.002   5.579  0.3878  0.5218  0.0158
   53MOL   C51229736   4.241   2.045   5.518  0.5916 -0.0679  0.3578
   53MOL   O51329737   4.243   2.116   5.419  0.0660 -0.0061  0.0177
   53MOL   C51429738   4.362   2.008   5.598 -0.0810 -0.0928  0.5729
   53MOL   C51529739   4.481   2.073   5.557  0.8915  1.0053 -0.6764
   53MOL   C51629740   4.607   2.027   5.603 -0.0494 -0.6436 -0.4842
   53MOL   C51729741   4.612   1.927   5.700  0.1601  0.1884 -0.2113
   53MOL   C51829742   4.747   1.886   5.752 -0.1208  0.9833 -0.5354
   53MOL   O51929743   4.854   1.912   5.697 -0.4758 -0.1439 -0.6242
   53MOL   C52029744   4.497   1.871   5.753  0.4375  0.6070  0.1659
   53MOL   C52129745   4.371   1.913   5.700  0.0285 -1.4688  0.0391
   53MOL   H52229746   3.716   1.946   5.843  0.3849  0.9507 -2.2039
   53MOL   H52329747   3.806   2.050   5.948  0.5930  0.3908 -0.0373
   53MOL   H52429748   3.997   2.062   5.809  1.5390 -1.1210 -3.1343
   53MOL   H52529749   3.847   2.130   5.735 -0.1835  0.2346  1.1684
   53MOL   H52629750   3.964   1.858   5.651 -0.3237 -1.0639  1.1194
   53MOL   H52729751   3.815   1.931   5.588 -0.0107 -2.7150  0.5722
   53MOL   H52829752   4.008   1.945   5.438  1.3215 -0.2328  0.2818
   53MOL   H52929753   3.978   2.106   5.491 -1.1295  0.0733 -0.2252
   53MOL   H53029754   4.475   2.150   5.481  0.9793  1.4981 -0.1798
   53MOL   H53129755   4.687   2.079   5.553 -1.3982 -1.5816 -3.7816
   53MOL   H53229756   4.500   1.786   5.819 -1.6592 -0.0563 -0.5412
   53MOL   H53329757   4.279   1.865   5.732 -0.2437 -1.8555 -1.3210
   53MOL   O53429758   4.742   1.804   5.861  0.1311  0.0115 -0.3807
   53MOL   C53529759   4.860   1.746   5.917 -0.4211  0.7259 -0.0211
   53MOL   C53629760   4.800   1.646   6.013  1.2057  0.2896 -0.4569
   53MOL   C53729761   4.750   1.517   5.938  0.5653 -0.1979 -0.5296
   53MOL   C53829762   4.861   1.446   5.866 -0.4900 -0.2372  0.2047
   53MOL   O53929763   4.899   1.488   5.736 -0.0546  0.3301  0.3088
   53MOL   C54029764   5.019   1.437   5.689 -0.2406  0.2784  0.0438
   53MOL   O54129765   5.072   1.338   5.737 -0.4255  0.5281  0.4969
   53MOL   C54229766   5.080   1.506   5.563 -0.0035  0.1516  0.0604
   53MOL   C54329767   5.203   1.466   5.514  0.2293  0.3538 -0.0238
   53MOL   C54429768   5.264   1.540   5.410 -0.4230 -0.4101 -1.4096
   53MOL   C54529769   5.207   1.658   5.371  0.4998 -0.3940 -0.1744
   53MOL   C54629770   5.272   1.739   5.270 -0.5614  0.4532  0.5916
   53MOL   O54729771   5.371   1.710   5.206  0.2526  0.2027  0.3107
   53MOL   C54829772   5.082   1.698   5.413  0.2703 -0.2563 -0.3054
   53MOL   C54929773   5.012   1.620   5.509 -0.1567  0.5235  0.5752
   53MOL   H55029774   4.918   1.694   5.841 -0.9434  1.8645 -1.2140
   53MOL   H55129775   4.911   1.831   5.962 -0.5466  1.5071 -1.3182
   53MOL   H55229776   4.717   1.695   6.064  1.6785  0.4455  0.1607
   53MOL   H55329777   4.871   1.619   6.091 -0.9486 -0.3265  1.3455
   53MOL   H55429778   4.691   1.450   6.001 -3.1752  1.7017 -1.8258
   53MOL   H55529779   4.683   1.554   5.860  1.6805 -0.7478 -1.7653
   53MOL   H55629780   4.947   1.412   5.924  0.7583 -1.0375 -2.0544
   53MOL   H55729781   4.803   1.356   5.846 -0.7144  0.0757 -0.5386
   53MOL   H55829782   5.259   1.382   5.552  0.3654  0.7390  0.6247
   53MOL   H55929783   5.362   1.509   5.377 -1.5698 -1.6093 -3.8188
   53MOL   H56029784   5.044   1.797   5.395  0.8553  0.2628  1.2150
   53MOL   H56129785   4.909   1.641   5.533  0.0423  3.8158 -1.0324
   53MOL   H56229786   5.225   1.835   5.250  1.0098  1.9179  3.6475
   54MOL     O129787   3.305   3.622   0.916 -0.2844  0.1244 -0.1071
   54MOL     C229788   3.376   3.527   0.845  0.6593 -0.1813  0.2987
   54MOL     C329789   3.502   3.592   0.797 -0.2360  0.0478 -0.3968
   54MOL     C429790   3.609   3.633   0.899  0.2889  0.7481 -0.7151
   54MOL     C529791   3.712   3.732   0.855 -0.3809  0.1519  1.2525
   54MOL     O629792   3.774   3.704   0.730 -0.3176  0.0403  0.2509
   54MOL     C729793   3.840   3.803   0.669 -0.1284 -0.9734  0.6231
   54MOL     O829794   3.862   3.917   0.708 -0.0015 -0.0361 -0.2786
   54MOL     C929795   3.912   3.743   0.550 -0.4301  0.1597  0.2657
   54MOL    C1029796   3.924   3.604   0.523 -0.9082  0.1735  0.2905
   54MOL    C1129797   3.977   3.549   0.405 -0.2175  0.4424  0.8229
   54MOL    C1229798   4.018   3.633   0.307  0.5958  0.2772 -0.4666
   54MOL    C1329799   4.062   3.585   0.174 -0.9750  0.2636 -0.0349
   54MOL    O1429800   4.081   3.669   0.081  0.2533 -0.2824  0.2212
   54MOL    C1529801   4.024   3.773   0.333 -0.2842 -0.3006 -0.2474
   54MOL    C1629802   3.976   3.832   0.449 -0.1207 -0.1522  0.3364
   54MOL    H1729803   3.396   3.452   0.921 -0.8495 -1.3276 -0.4109
   54MOL    H1829804   3.314   3.479   0.770  0.9906 -1.9694  1.1417
   54MOL    H1929805   3.489   3.686   0.743  0.7004  0.2159 -0.3417
   54MOL    H2029806   3.542   3.525   0.722  2.0257 -0.7242  1.4417
   54MOL    H2129807   3.550   3.666   0.984  0.0985  1.2913 -1.0571
   54MOL    H2229808   3.655   3.547   0.948 -1.1126  0.1118 -0.4997
   54MOL    H2329809   3.665   3.831   0.858 -1.1700 -0.1441 -0.4941
   54MOL    H2429810   3.798   3.729   0.922  1.4323 -0.0445 -1.0214
   54MOL    H2529811   3.882   3.536   0.597 -1.4482  1.2642  1.0015
   54MOL    H2629812   3.987   3.441   0.403  1.7388  0.6099 -2.1964
   54MOL    H2729813   4.075   3.823   0.252  0.3763  0.0946  0.4085
   54MOL    H2829814   3.983   3.939   0.467 -0.1499 -0.2799  1.0916
   54MOL    H2929815   3.234   3.577   0.960  0.9634  0.5772  2.4895
   54MOL    O3029816   4.091   3.448   0.170  0.2008 -0.6264  0.1873
   54MOL    C3129817   4.115   3.397   0.039 -0.1690 -0.0617  0.2869
   54MOL    C3229818   4.161   3.248   0.043  0.1083 -0.0732 -0.1794
   54MOL    C3329819   4.049   3.146   0.056 -0.5987 -0.0654 -0.4151
   54MOL    C3429820   4.080   2.998   0.029 -0.2815  0.7616 -1.2153
   54MOL    O3529821   4.125   2.994   7.991 -0.2745  0.1589  0.1440
   54MOL    C3629822   4.167   2.870   7.940 -0.6195 -0.2340 -0.6764
   54MOL    O3729823   4.197   2.776   8.015 -0.2748  0.4299  0.7694
   54MOL    C3829824   4.188   2.867   7.791 -0.1626  0.5270  1.1368
   54MOL    C3929825   4.182   2.979   7.707  0.4944 -0.5063  0.2534
   54MOL    C4029826   4.207   2.970   7.573 -0.5539  0.4323 -0.6060
   54MOL    C4129827   4.244   2.847   7.510  0.1322 -0.0083 -0.1018
   54MOL    C4229828   4.275   2.836   7.366  0.5965  0.0517  0.4600
   54MOL    O4329829   4.351   2.754   7.317  0.8089  0.2899  0.1510
   54MOL    C4429830   4.246   2.729   7.595  0.2887 -0.4921  0.6970
   54MOL    C4529831   4.225   2.747   7.735  0.7090 -0.2424  0.2323
   54MOL    H4629832   4.021   3.390   8.083 -0.2126  0.8058  0.2571
   54MOL    H4729833   4.195   3.457   8.094  0.4605 -1.2350 -0.2065
   54MOL    H4829834   4.238   3.229   0.117 -0.0510 -0.8126 -0.2083
   54MOL    H4929835   4.207   3.235   8.043  1.7033 -1.0627  0.6934
   54MOL    H5029836   4.003   3.146   0.155 -0.8844 -0.8866 -0.5467
   54MOL    H5129837   3.966   3.173   8.089 -0.2106  2.5090  0.0948
   54MOL    H5229838   4.160   2.962   0.093 -1.4096  1.8619  0.8809
   54MOL    H5329839   3.995   2.932   0.048 -0.9241  2.4942  2.4318
   54MOL    H5429840   4.162   3.070   7.761  2.3940 -1.4168  2.5480
   54MOL    H5529841   4.196   3.057   7.510 -2.2625  0.0917 -0.7977
   54MOL    H5629842   4.266   2.637   7.541 -0.5407  0.2346 -0.9014
   54MOL    H5729843   4.229   2.658   7.795  1.6869 -1.9779 -2.2922
   54MOL    O5829844   4.207   2.927   7.297  0.2977  0.4572  0.5695
   54MOL    C5929845   4.220   2.933   7.156 -0.0526  0.3077 -0.0609
   54MOL    C6029846   4.140   3.060   7.123 -0.1951  0.2025 -0.2099
   54MOL    C6129847   4.119   3.083   6.970  0.0659  0.7165  0.4512
   54MOL    C6229848   4.053   3.222   6.954  0.6010  0.3145  0.2860
   54MOL    O6329849   3.909   3.211   6.979 -0.0569 -0.0550  0.6329
   54MOL    C6429850   3.835   3.327   6.988  0.1442 -0.0333 -0.5592
   54MOL    O6529851   3.891   3.437   6.979 -0.6266 -0.3031  0.1689
   54MOL    C6629852   3.693   3.307   7.002 -0.4391  0.1988  0.3798
   54MOL    C6729853   3.595   3.409   6.984  0.2852 -0.6889  0.0274
   54MOL    C6829854   3.462   3.381   6.995 -0.4776  0.5079 -0.1524
   54MOL    C6929855   3.414   3.253   7.035 -0.4595 -0.3632 -0.3081
   54MOL    C7029856   3.276   3.235   7.069  0.2715 -0.4166  0.5321
   54MOL    O7129857   3.233   3.129   7.116  0.4283 -0.0047  0.5863
   54MOL    C7229858   3.510   3.150   7.044  0.4379  0.3956  0.3916
   54MOL    C7329859   3.646   3.174   7.025  1.1974 -0.4374  0.0973
   54MOL    H7429860   4.323   2.936   7.121 -0.2644  0.5992 -0.6777
   54MOL    H7529861   4.168   2.849   7.111  0.5459 -0.9724  1.5914
   54MOL    H7629862   4.173   3.149   7.176 -0.0751  0.8406 -1.3488
   54MOL    H7729863   4.036   3.036   7.148  0.1553  0.6784  1.7797
   54MOL    H7829864   4.216   3.067   6.922  0.2435 -0.9295  1.3105
   54MOL    H7929865   4.042   3.015   6.933  0.8110  0.3198 -0.3857
   54MOL    H8029866   4.091   3.302   7.018 -3.0295  1.5208  1.1084
   54MOL    H8129867   4.067   3.264   6.854  2.2762 -0.4578  0.1789
   54MOL    H8229868   3.630   3.510   6.966  0.0539 -0.3335  1.5146
   54MOL    H8329869   3.395   3.466   6.992 -1.1795 -0.0459 -0.2147
   54MOL    H8429870   3.468   3.055   7.075  1.6862  0.4150  2.1854
   54MOL    H8529871   3.707   3.085   7.028 -0.6207 -1.6657  1.0968
   54MOL    O8629872   3.199   3.340   7.025 -0.8313 -0.0143  0.0934
   54MOL    C8729873   3.060   3.325   7.033  0.0472 -0.1445  0.2207
   54MOL    C8829874   3.007   3.301   6.896  0.0780  0.0700 -0.1202
   54MOL    C8929875   3.055   3.173   6.827  0.4344  1.0320  0.3175
   54MOL    C9029876   3.146   3.206   6.703 -0.1180 -0.0465  0.5833
   54MOL    O9129877   3.065   3.301   6.619 -0.2473  0.1252 -0.3447
   54MOL    C9229878   2.990   3.254   6.524  0.3926  0.1081 -0.4968
   54MOL    O9329879   2.965   3.132   6.500  0.2572  0.1883 -0.2749
   54MOL    C9429880   2.944   3.357   6.434  0.1205  0.4738  0.5944
   54MOL    C9529881   2.885   3.318   6.316  0.2455 -0.4468  0.4589
   54MOL    C9629882   2.866   3.407   6.211 -1.4857 -0.7945 -1.0137
   54MOL    C9729883   2.895   3.544   6.232 -0.8389  0.6441 -0.1058
   54MOL    C9829884   2.873   3.639   6.121 -0.1475  1.0621 -0.5642
   54MOL    O9929885   2.845   3.758   6.134 -0.7696 -0.4795 -0.5953
   54MOL   C10029886   2.956   3.587   6.354 -1.0266  0.1188 -0.3625
   54MOL   C10129887   2.976   3.493   6.459 -0.8690 -0.1462 -0.6552
   54MOL   H10229888   3.019   3.255   7.106  1.3945 -0.6640  0.4896
   54MOL   H10329889   3.025   3.418   7.078 -2.9967 -0.3651 -1.5787
   54MOL   H10429890   3.019   3.392   6.836  0.9366 -0.4283 -0.7130
   54MOL   H10529891   2.899   3.296   6.909  0.2343  3.2134  3.2404
   54MOL   H10629892   3.115   3.109   6.892  1.4800  0.8355 -0.8221
   54MOL   H10729893   2.968   3.111   6.801 -1.6499  3.5512  1.1089
   54MOL   H10829894   3.239   3.259   6.723 -0.3102  0.8291 -0.7526
   54MOL   H10929895   3.178   3.118   6.646  0.0528 -0.1540  0.8459
   54MOL   H11029896   2.864   3.214   6.296  2.7883 -0.7358 -0.8216
   54MOL   H11129897   2.826   3.366   6.119 -1.3403  0.4039 -1.6076
   54MOL   H11229898   2.974   3.693   6.364  3.1197 -0.6867  1.5198
   54MOL   H11329899   3.011   3.529   6.554 -0.5811 -0.7437 -0.5348
   54MOL   O11429900   2.897   3.581   6.003  0.3685  0.4190  0.2429
   54MOL   C11529901   2.882   3.644   5.882 -0.0944  0.2422 -0.4548
   54MOL   C11629902   3.014   3.607   5.806  0.0086  0.3769 -0.5433
   54MOL   C11729903   3.126   3.716   5.819  0.1526  0.3803 -0.2151
   54MOL   C11829904   3.235   3.713   5.711 -0.0359  0.0520  0.3801
   54MOL   O11929905   3.318   3.598   5.702 -0.5267  0.3479  0.4088
   54MOL   C12029906   3.395   3.563   5.596 -0.0054 -0.4091 -0.0184
   54MOL   O12129907   3.394   3.627   5.489  0.2782  0.0845  0.1787
   54MOL   C12229908   3.479   3.443   5.637  0.0148  0.3800  1.0589
   54MOL   C12329909   3.574   3.395   5.542 -0.4220  0.1105 -0.1874
   54MOL   C12429910   3.647   3.274   5.563  0.2143  0.6507  0.0679
   54MOL   C12529911   3.613   3.203   5.674 -0.4982  0.8305 -0.0727
   54MOL   C12629912   3.698   3.080   5.703  0.7693 -0.3832  0.1935
   54MOL   O12729913   3.718   3.041   5.815  0.0103  0.7467 -0.8300
   54MOL   C12829914   3.517   3.244   5.770 -0.1560  0.2481 -0.2114
   54MOL   C12929915   3.453   3.368   5.755  0.3969  0.5361 -0.0821
   54MOL   H13029916   2.802   3.587   5.836  0.7279 -1.5071  0.2327
   54MOL   H13129917   2.864   3.752   5.885 -1.8582 -0.0262 -0.9653
   54MOL   H13229918   2.988   3.612   5.700 -0.9352  3.1225 -0.2411
   54MOL   H13329919   3.056   3.509   5.825 -0.5871 -0.0408 -1.3659
   54MOL   H13429920   3.071   3.807   5.794  0.0732  0.3185 -0.2640
   54MOL   H13529921   3.158   3.723   5.923  0.0012 -1.6083 -0.0227
   54MOL   H13629922   3.198   3.731   5.611 -1.2052 -0.6188  0.6934
   54MOL   H13729923   3.294   3.805   5.718  0.4141 -0.1573 -0.5716
   54MOL   H13829924   3.589   3.466   5.462  0.1790  0.0968 -0.0837
   54MOL   H13929925   3.723   3.242   5.492 -2.1398 -0.1921 -2.1627
   54MOL   H14029926   3.499   3.180   5.855 -1.8432  1.7295  0.5976
   54MOL   H14129927   3.402   3.413   5.839  1.6287 -0.9661  1.4826
   54MOL   O14229928   3.749   3.020   5.589 -0.9570  0.3188 -0.1892
   54MOL   C14329929   3.841   2.909   5.603 -0.9287  0.3597  0.6193
   54MOL   C14429930   3.862   2.847   5.468  0.4587  0.2743 -0.2846
   54MOL   C14529931   3.993   2.770   5.457 -0.3904  0.1525  0.7607
   54MOL   C14629932   4.011   2.716   5.317  0.4397  0.2654 -0.0157
   54MOL   O14729933   4.039   2.820   5.222 -0.1050 -0.0075 -0.1378
   54MOL   C14829934   4.167   2.868   5.213  0.9919 -0.0612 -0.1877
   54MOL   O14929935   4.257   2.835   5.284 -0.1290  0.3878  0.0425
   54MOL   C15029936   4.180   2.970   5.109 -0.8574  0.5321  0.5745
   54MOL   C15129937   4.284   3.068   5.123  0.1283 -0.3273 -0.3408
   54MOL   C15229938   4.302   3.175   5.028 -0.3656  0.0660  0.0023
   54MOL   C15329939   4.218   3.172   4.913 -0.2154 -0.0194  0.2227
   54MOL   C15429940   4.228   3.285   4.819 -0.2308  0.4391  0.7621
   54MOL   O15529941   4.141   3.302   4.735 -0.8328 -0.1087 -0.4982
   54MOL   C15629942   4.114   3.076   4.900 -0.1440 -0.0828 -0.0066
   54MOL   C15729943   4.097   2.975   4.997  0.4263  0.0871 -0.3801
   54MOL   H15829944   3.941   2.944   5.629 -0.4651  0.5678 -1.3478
   54MOL   H15929945   3.809   2.834   5.675 -0.6131 -0.6053 -0.2373
   54MOL   H16029946   3.859   2.926   5.393  1.0667  1.0694  0.5147
   54MOL   H16129947   3.788   2.773   5.440  0.6407  0.8752 -2.5437
   54MOL   H16229948   4.074   2.832   5.495 -0.1949 -0.2150  0.9542
   54MOL   H16329949   3.980   2.682   5.521  1.0354 -1.5926 -1.2362
   54MOL   H16429950   4.096   2.648   5.308  1.0565  0.8437  1.2402
   54MOL   H16529951   3.922   2.665   5.279 -0.3528  0.3620  1.6588
   54MOL   H16629952   4.347   3.075   5.210  1.7527  1.2675 -1.5926
   54MOL   H16729953   4.372   3.253   5.053  0.5174 -0.9229  0.6853
   54MOL   H16829954   4.047   3.087   4.816 -1.7203  1.0464  1.3554
   54MOL   H16929955   4.020   2.900   4.985  1.4432 -1.1051  0.4474
   54MOL   O17029956   4.341   3.356   4.823  0.5174 -0.4031 -0.1108
   54MOL   C17129957   4.347   3.486   4.759  0.2632 -0.2071 -0.3391
   54MOL   C17229958   4.294   3.600   4.847 -0.9049  0.1731  0.4171
   54MOL   C17329959   4.152   3.598   4.910  0.3756 -0.0278 -0.0215
   54MOL   C17429960   4.160   3.677   5.035  0.1117  0.0106 -0.1529
   54MOL   O17529961   4.205   3.813   5.006 -0.5315 -0.5762 -0.2171
   54MOL   C17629962   4.116   3.918   5.014 -0.5014 -0.1446  0.6480
   54MOL   O17729963   3.997   3.900   5.027  0.4245  0.1116  0.6538
   54MOL   C17829964   4.185   4.054   5.002  0.1771 -0.9940  0.9963
   54MOL   C17929965   4.324   4.069   4.989 -0.4921 -0.3685 -0.1486
   54MOL   C18029966   4.379   4.197   4.970 -0.1685 -0.0064 -0.3360
   54MOL   C18129967   4.295   4.316   4.977  0.2292  1.1587  0.3608
   54MOL   C18229968   4.352   4.457   4.964  0.5878 -0.2575  0.3932
   54MOL   O18329969   4.277   4.552   4.954  0.0636  0.3870  0.3050
   54MOL   C18429970   4.152   4.298   5.000 -0.0165  0.7348 -0.4498
   54MOL   C18529971   4.106   4.170   5.005  0.3901 -0.0971 -0.2268
   54MOL   H18629972   4.445   3.507   4.718  0.7245 -0.8136  0.4318
   54MOL   H18729973   4.284   3.486   4.671  0.5116  1.8160 -0.5270
   54MOL   H18829974   4.306   3.683   4.778 -0.7123 -1.3762 -1.4481
   54MOL   H18929975   4.374   3.630   4.914  1.0630 -0.4499 -1.5922
   54MOL   H19029976   4.074   3.651   4.855  0.7085  1.7312  1.1595
   54MOL   H19129977   4.102   3.503   4.928 -1.3157  0.9188  0.3849
   54MOL   H19229978   4.067   3.691   5.090  0.0194 -1.4032  0.0549
   54MOL   H19329979   4.223   3.633   5.112 -0.5686  0.8425  0.9133
   54MOL   H19429980   4.385   3.980   4.975  0.3936 -0.0465  1.4906
   54MOL   H19529981   4.484   4.192   4.943 -0.2528 -1.8390 -0.3792
   54MOL   H19629982   4.084   4.382   5.003 -0.2144  0.7498 -3.6262
   54MOL   H19729983   4.000   4.156   5.017  0.5281  0.1432  1.3233
   54MOL   O19829984   4.488   4.459   4.960  0.2421 -1.0275 -0.4245
   54MOL   C19929985   4.550   4.584   4.914 -0.2265  0.4584 -1.0037
   54MOL   C20029986   4.696   4.577   4.945 -0.5084 -0.6652 -0.2037
   54MOL   C20129987   4.770   4.456   4.881  0.3877  0.0184  0.4403
   54MOL   C20229988   4.882   4.401   4.969  0.0862 -0.5911  0.7544
   54MOL   O20329989   4.987   4.499   4.991  0.2749 -0.0538 -0.3774
   54MOL   C20429990   5.104   4.465   5.048 -0.6016  0.0269  0.0841
   54MOL   O20529991   5.139   4.345   5.056  0.3108  0.1411  0.3252
   54MOL   C20629992   5.180   4.574   5.111  0.0847  0.2878  0.1187
   54MOL   C20729993   5.262   4.548   5.221  0.0186 -0.2970  0.3253
   54MOL   C20829994   5.331   4.655   5.288 -0.2495  0.9007  0.3170
   54MOL   C20929995   5.303   4.791   5.248 -0.4936 -0.4706  0.0721
   54MOL   C21029996   5.357   4.899   5.337 -0.5186  0.3991  0.0837
   54MOL   O21129997   5.443   4.879   5.421 -0.0487 -0.3702 -0.0589
   54MOL   C21229998   5.224   4.813   5.140  0.3270 -0.1882 -0.9167
   54MOL   C21329999   5.158   4.708   5.076 -0.3174 -0.7320  0.1775
   54MOL   H21430000   4.517   4.602   4.811  0.1794  0.4927 -1.1296
   54MOL   H21530001   4.504   4.658   4.979 -0.1348 -0.2834 -0.0822
   54MOL   H21630002   4.720   4.579   5.052 -0.2475  1.5822 -0.2932
   54MOL   H21730003   4.735   4.676   4.923  0.6808 -1.1239 -0.1958
   54MOL   H21830004   4.694   4.386   4.848 -0.6508  2.6157 -2.9398
   54MOL   H21930005   4.822   4.495   4.793 -1.4570  1.1544 -0.1594
   54MOL   H22030006   4.851   4.374   5.070  1.1288 -0.1282  1.2027
   54MOL   H22130007   4.930   4.310   4.932  0.3686 -0.4357  0.7438
   54MOL   H22230008   5.273   4.447   5.259 -1.0182 -0.3383  0.5374
   54MOL   H22330009   5.364   4.627   5.387  0.6435 -0.1441 -0.2666
   54MOL   H22430010   5.202   4.916   5.115 -0.7365  0.1271  1.1982
   54MOL   H22530011   5.097   4.723   4.988 -0.6811 -0.3261  0.4937
   54MOL   O22630012   5.293   5.018   5.314  0.2025  0.4005 -0.3695
   54MOL   C22730013   5.331   5.136   5.383  0.3915 -0.7087 -0.1149
   54MOL   C22830014   5.465   5.184   5.334 -0.2600  0.5377 -0.2704
   54MOL   C22930015   5.481   5.208   5.181 -0.2778  0.1660  0.2616
   54MOL   C23030016   5.612   5.271   5.143  1.0863 -0.6576 -0.5872
   54MOL   O23130017   5.615   5.319   5.012 -0.6900 -0.1226 -0.7834
   54MOL   C23230018   5.619   5.242   4.905 -0.5076 -0.3830 -0.3768
   54MOL   O23330019   5.656   5.124   4.903  0.4150 -0.1127 -0.8455
   54MOL   C23430020   5.580   5.316   4.787 -0.2988 -0.6535  0.1738
   54MOL   C23530021   5.583   5.253   4.662  0.3467  0.1633 -0.4294
   54MOL   C23630022   5.536   5.319   4.555 -1.1053  0.3618 -0.1840
   54MOL   C23730023   5.497   5.454   4.556 -0.2662 -0.6775 -0.3724
   54MOL   C23830024   5.450   5.528   4.441 -0.2029 -0.0562 -0.2183
   54MOL   O23930025   5.407   5.647   4.445 -0.0976  0.2222 -0.0961
   54MOL   C24030026   5.505   5.529   4.679  0.4028 -0.5640  0.8374
   54MOL   C24130027   5.543   5.456   4.797  0.7217 -0.1925  0.0297
   54MOL   H24230028   5.253   5.211   5.367  0.9726 -0.0901 -0.1006
   54MOL   H24330029   5.320   5.113   5.489 -0.4714 -1.8449 -0.4541
   54MOL   H24430030   5.552   5.131   5.371 -0.3049  0.9049  0.3832
   54MOL   H24530031   5.484   5.282   5.380 -1.1708  0.7888 -0.4087
   54MOL   H24630032   5.480   5.110   5.132 -1.8463  1.0193 -1.5093
   54MOL   H24730033   5.389   5.255   5.144 -1.3185 -0.1463  2.4122
   54MOL   H24830034   5.634   5.349   5.216  0.7270 -1.5659  0.5004
   54MOL   H24930035   5.683   5.189   5.148 -0.1344 -1.6653  0.3558
   54MOL   H25030036   5.605   5.148   4.649  1.3026  0.4458 -1.0494
   54MOL   H25130037   5.531   5.269   4.459  0.2813  0.0337 -0.0996
   54MOL   H25230038   5.472   5.632   4.679 -0.4929 -0.8384 -0.1158
   54MOL   H25330039   5.542   5.510   4.890 -0.3297 -1.5766  0.8251
   54MOL   O25430040   5.458   5.447   4.330 -0.1827 -0.6666  0.2633
   54MOL   C25530041   5.404   5.496   4.204  0.0562  0.1613 -0.2257
   54MOL   C25630042   5.394   5.386   4.101 -0.0440 -0.6687  0.8572
   54MOL   C25730043   5.307   5.442   3.983  0.0975  0.4378 -0.6113
   54MOL   C25830044   5.305   5.374   3.845 -1.0886 -0.1263  0.0913
   54MOL   O25930045   5.312   5.236   3.880 -0.8954  0.3257 -0.4744
   54MOL   C26030046   5.321   5.144   3.792 -0.0748 -0.5347  0.4602
   54MOL   O26130047   5.294   5.163   3.670 -0.6158  0.3577  0.7970
   54MOL   C26230048   5.353   5.013   3.854  0.0672  0.1917 -0.1691
   54MOL   C26330049   5.426   5.008   3.977  0.1147  0.5450  0.5224
   54MOL   C26430050   5.456   4.887   4.042 -0.6963  0.1268  0.6781
   54MOL   C26530051   5.402   4.768   3.990  0.7509 -0.1375  0.6693
   54MOL   C26630052   5.403   4.637   4.069  0.9363 -1.2221  0.4437
   54MOL   O26730053   5.336   4.534   4.048  0.1191  0.3992 -0.3786
   54MOL   C26830054   5.333   4.768   3.867  0.2404 -0.0446 -0.6246
   54MOL   C26930055   5.301   4.891   3.804  0.0324 -0.2563 -0.2246
   54MOL   H27030056   5.304   5.538   4.215  0.2885  0.5980  0.2028
   54MOL   H27130057   5.467   5.580   4.173 -1.5876  1.2420 -0.6727
   54MOL   H27230058   5.345   5.301   4.149  2.1138 -2.6323 -0.2483
   54MOL   H27330059   5.495   5.350   4.079  0.4619  0.3712  1.4327
   54MOL   H27430060   5.209   5.437   4.030  0.4979 -0.9275  0.0844
   54MOL   H27530061   5.333   5.546   3.964  1.2541  0.1902 -0.4264
   54MOL   H27630062   5.218   5.401   3.784  0.7467  2.0654 -1.6554
   54MOL   H27730063   5.386   5.396   3.775 -3.1249  0.6534 -2.1280
   54MOL   H27830064   5.463   5.102   4.016 -1.3967  2.0614 -1.5537
   54MOL   H27930065   5.524   4.886   4.126 -0.4932  2.4516  0.5817
   54MOL   H28030066   5.291   4.678   3.826 -2.5527  2.2147 -2.9639
   54MOL   H28130067   5.245   4.896   3.712 -2.2445 -1.7914  1.0463
   54MOL   O28230068   5.482   4.650   4.172  0.7858  0.2138 -0.0149
   54MOL   C28330069   5.471   4.568   4.293  0.2450  0.0432  0.9659
   54MOL   C28430070   5.605   4.487   4.311 -0.8114 -0.6198 -0.2990
   54MOL   C28530071   5.612   4.359   4.234  0.2111  0.2100 -0.1321
   54MOL   C28630072   5.756   4.299   4.230 -0.2068  0.4350 -0.7021
   54MOL   O28730073   5.803   4.321   4.358  0.2313  0.3789  0.4697
   54MOL   C28830074   5.918   4.267   4.400 -0.4771  0.3743 -0.0757
   54MOL   O28930075   6.002   4.219   4.330  0.4160 -0.2289 -0.2677
   54MOL   C29030076   5.944   4.300   4.542 -0.2360 -0.2662 -0.4374
   54MOL   C29130077   5.855   4.371   4.631  0.1250  0.9833  0.4369
   54MOL   C29230078   5.898   4.417   4.758  0.4505  0.6627  0.0588
   54MOL   C29330079   6.028   4.397   4.799  0.5386  0.1916  0.3975
   54MOL   C29430080   6.067   4.452   4.930  0.1786 -0.4611 -0.7195
   54MOL   O29530081   5.985   4.474   5.020  0.0049  0.0198 -0.0063
   54MOL   C29630082   6.111   4.321   4.717  0.7577 -0.3667 -0.4701
   54MOL   C29730083   6.076   4.269   4.597  0.7529  0.2935  0.4525
   54MOL   H29830084   5.462   4.636   4.378  1.1348 -0.0514  1.1397
   54MOL   H29930085   5.384   4.502   4.279  0.1092  0.0165  1.8989
   54MOL   H30030086   5.622   4.457   4.414 -2.2632 -0.6301 -0.0499
   54MOL   H30130087   5.691   4.548   4.282 -0.7851 -0.3148  0.4228
   54MOL   H30230088   5.546   4.292   4.289  1.3304  0.1950  1.2154
   54MOL   H30330089   5.573   4.361   4.132 -1.2164  1.2123  0.4101
   54MOL   H30430090   5.755   4.191   4.220  0.8699  0.3820 -0.2979
   54MOL   H30530091   5.812   4.364   4.162 -0.6282  0.5062 -0.9815
   54MOL   H30630092   5.757   4.392   4.590 -1.4259 -1.1727  2.8602
   54MOL   H30730093   5.826   4.463   4.824 -0.2347 -0.6058  0.2157
   54MOL   H30830094   6.214   4.305   4.748  1.5694  1.9475 -1.8914
   54MOL   H30930095   6.146   4.203   4.547 -0.4791 -1.2934  0.7820
   54MOL   O31030096   6.199   4.480   4.934 -0.4342  0.0637 -0.3125
   54MOL   C31130097   6.267   4.526   5.050 -0.0987 -0.2017  0.0474
   54MOL   C31230098   6.397   4.451   5.077  0.5132  0.4296 -0.4664
   54MOL   C31330099   6.382   4.302   5.094  0.1641 -0.4736 -0.2069
   54MOL   C31430100   6.512   4.217   5.126  0.2457 -0.4788 -0.3837
   54MOL   O31530101   6.474   4.087   5.165  0.3510 -0.0482 -0.2189
   54MOL   C31630102   6.459   4.053   5.299 -0.4639 -0.3664 -0.1070
   54MOL   O31730103   6.463   4.131   5.393 -0.0485  0.2569  0.3586
   54MOL   C31830104   6.430   3.907   5.319 -0.1088  0.2047  0.2289
   54MOL   C31930105   6.384   3.824   5.215 -0.0459 -0.5690 -0.4494
   54MOL   C32030106   6.359   3.688   5.235 -0.3864  0.0145  0.6307
   54MOL   C32130107   6.383   3.631   5.363 -0.0799  0.2428  0.2369
   54MOL   C32230108   6.373   3.482   5.390 -0.7482  0.2398  0.7692
   54MOL   O32330109   6.422   3.428   5.498  0.0864 -0.1440 -0.1509
   54MOL   C32430110   6.424   3.714   5.472  0.4784  0.3501  0.3785
   54MOL   C32530111   6.448   3.852   5.449 -1.0833  0.0069 -0.0729
   54MOL   H32630112   6.282   4.633   5.043  0.3321 -0.0382  2.8247
   54MOL   H32730113   6.202   4.500   5.133 -1.2739  2.8053  0.1224
   54MOL   H32830114   6.449   4.497   5.161  1.7074 -2.4178  0.4322
   54MOL   H32930115   6.468   4.461   4.995  0.1266  0.2818 -0.8224
   54MOL   H33030116   6.313   4.283   5.175  0.7276  2.5247  1.0149
   54MOL   H33130117   6.334   4.253   5.009 -2.4441 -0.0021  0.9669
   54MOL   H33230118   6.567   4.216   5.032  3.6924  0.0872  1.5520
   54MOL   H33330119   6.585   4.263   5.192  0.2634  0.1889 -0.8611
   54MOL   H33430120   6.371   3.884   5.126 -0.0227  2.8653  1.7791
   54MOL   H33530121   6.316   3.638   5.149  0.5250 -0.9601  0.7262
   54MOL   H33630122   6.452   3.674   5.568  1.2669  1.2833  0.5450
   54MOL   H33730123   6.475   3.920   5.529  0.7812 -1.9531  1.0006
   54MOL   O33830124   6.310   3.410   5.293  1.0639  0.1951  0.0484
   54MOL   C33930125   6.276   3.276   5.312 -0.0189  0.1787 -0.2260
   54MOL   C34030126   6.212   3.215   5.185 -0.3007 -0.1573 -0.2222
   54MOL   C34130127   6.078   3.282   5.154  0.5639  0.5238 -0.5292
   54MOL   C34230128   6.023   3.227   5.024 -0.2292  0.6776 -0.2163
   54MOL   O34330129   5.885   3.261   5.026  0.1714 -0.0098 -0.6315
   54MOL   C34430130   5.810   3.246   4.915 -0.5816  0.1347  0.4276
   54MOL   O34530131   5.838   3.169   4.824  0.0425 -0.4387 -0.6676
   54MOL   C34630132   5.684   3.330   4.920 -0.2373  0.3986  0.0105
   54MOL   C34730133   5.610   3.335   4.799 -0.9396  0.6077 -0.9181
   54MOL   C34830134   5.495   3.420   4.797 -0.8771 -0.1756 -0.0515
   54MOL   C34930135   5.460   3.504   4.902  0.7293  0.1652 -0.2401
   54MOL   C35030136   5.327   3.585   4.909  0.0610  0.7860 -0.6726
   54MOL   O35130137   5.291   3.660   4.995  0.0829 -0.9971  0.3316
   54MOL   C35230138   5.534   3.502   5.022  0.5025  0.1905  0.2707
   54MOL   C35330139   5.645   3.417   5.025  0.0891 -0.4704  0.0459
   54MOL   H35430140   6.368   3.227   5.344  0.1312  1.2032  0.9753
   54MOL   H35530141   6.200   3.270   5.390  0.3772 -0.0183  0.1498
   54MOL   H35630142   6.194   3.108   5.197 -0.8099  0.0822  1.2951
   54MOL   H35730143   6.280   3.227   5.101  1.2332 -0.8285  0.8959
   54MOL   H35830144   6.020   3.257   5.243  0.6744  0.5512 -0.4496
   54MOL   H35930145   6.086   3.390   5.158 -1.6268  0.6572  1.0635
   54MOL   H36030146   6.073   3.272   4.938 -1.3946  4.1210  0.8184
   54MOL   H36130147   6.034   3.119   5.023 -1.4060  0.5525 -0.6459
   54MOL   H36230148   5.636   3.273   4.714  0.9648  0.3142 -0.1492
   54MOL   H36330149   5.440   3.419   4.704 -1.3935  0.6607  0.2430
   54MOL   H36430150   5.522   3.557   5.115  1.1271 -1.7508  1.5223
   54MOL   H36530151   5.704   3.427   5.115  1.0163  1.0122 -0.7093
   54MOL   O36630152   5.247   3.552   4.798 -0.1834 -0.1763 -0.3294
   54MOL   C36730153   5.118   3.601   4.778  0.3108  0.0606  0.2727
   54MOL   C36830154   5.018   3.492   4.818 -0.2267 -0.8072 -0.4652
   54MOL   C36930155   4.868   3.549   4.813 -0.1399  0.4229  0.4275
   54MOL   C37030156   4.759   3.437   4.833 -0.1447  0.9716 -0.1546
   54MOL   O37130157   4.761   3.400   4.971  0.0422 -0.4942  0.2008
   54MOL   C37230158   4.657   3.442   5.043 -0.2354  0.6435 -0.1783
   54MOL   O37330159   4.583   3.536   5.008 -0.3108  0.8044 -0.2464
   54MOL   C37430160   4.632   3.350   5.164  0.4856 -0.0611  0.3101
   54MOL   C37530161   4.514   3.375   5.237  0.4152  0.2786 -0.1726
   54MOL   C37630162   4.475   3.315   5.360 -0.3101  0.4163 -0.2257
   54MOL   C37730163   4.557   3.207   5.410  0.8207 -0.6527  0.3134
   54MOL   C37830164   4.509   3.125   5.522  0.3155 -0.3117  0.6164
   54MOL   O37930165   4.422   3.157   5.604 -0.2341  0.2462  0.7868
   54MOL   C38030166   4.676   3.175   5.337  0.1359 -0.9627  0.5747
   54MOL   C38130167   4.715   3.248   5.219 -0.0656  0.3297  0.4357
   54MOL   H38230168   5.100   3.694   4.832 -2.2439 -1.1959  1.6433
   54MOL   H38330169   5.092   3.630   4.676 -3.6907  2.2785  1.8128
   54MOL   H38430170   5.043   3.465   4.920  0.5032 -1.2664 -0.7681
   54MOL   H38530171   5.027   3.404   4.754 -2.9236 -2.1011  0.8102
   54MOL   H38630172   4.852   3.619   4.894  3.4538  1.4749  0.2808
   54MOL   H38730173   4.844   3.597   4.718  0.7113 -0.2568 -0.1386
   54MOL   H38830174   4.660   3.468   4.798 -0.2918  0.0992 -0.5037
   54MOL   H38930175   4.789   3.350   4.776 -0.6750  1.1040 -0.6402
   54MOL   H39030176   4.456   3.446   5.180 -1.5414 -0.4114  0.9042
   54MOL   H39130177   4.385   3.338   5.415  0.1835 -0.5850  1.0238
   54MOL   H39230178   4.733   3.096   5.382  0.3589 -1.3591 -0.3860
   54MOL   H39330179   4.812   3.230   5.175  0.4783  1.2754  1.2254
   54MOL   O39430180   4.556   3.004   5.508 -0.6042 -0.6520  0.2447
   54MOL   C39530181   4.527   2.893   5.590  0.6800 -0.6127 -0.0836
   54MOL   C39630182   4.599   2.896   5.728 -0.2948 -0.0227 -0.8067
   54MOL   C39730183   4.740   2.837   5.706  0.0276  0.3007  0.5989
   54MOL   C39830184   4.837   2.879   5.817  0.4462 -0.5748  0.3383
   54MOL   O39930185   4.869   3.015   5.806  0.2637  0.4852 -0.4373
   54MOL   C40030186   4.981   3.064   5.860  0.0473  0.1568  1.1191
   54MOL   O40130187   5.071   2.992   5.900 -0.2591 -0.2371 -0.1452
   54MOL   C40230188   4.981   3.216   5.878 -0.9079  0.6753 -0.6722
   54MOL   C40330189   5.099   3.275   5.935 -0.9831 -0.1323  0.1952
   54MOL   C40430190   5.097   3.412   5.959 -0.5774  0.1904 -0.4316
   54MOL   C40530191   4.994   3.493   5.906 -0.3234 -0.0540 -0.1596
   54MOL   C40630192   5.008   3.642   5.919  0.4365 -0.1317 -0.2492
   54MOL   O40730193   5.121   3.690   5.941  0.0697  0.7556  0.6447
   54MOL   C40830194   4.880   3.438   5.844  0.1057  0.0897 -0.5132
   54MOL   C40930195   4.871   3.300   5.828 -0.5185 -0.6393 -0.0722
   54MOL   H41030196   4.421   2.902   5.613  0.7438  0.9323 -0.3070
   54MOL   H41130197   4.541   2.799   5.538  0.6238 -0.9745  0.5563
   54MOL   H41230198   4.546   2.830   5.797 -0.7532  2.3158  1.1416
   54MOL   H41330199   4.604   2.996   5.771 -0.5905  0.0966 -1.0447
   54MOL   H41430200   4.749   2.730   5.688  0.3124  0.2344  1.1138
   54MOL   H41530201   4.784   2.883   5.617  1.6773  0.4699  1.4684
   54MOL   H41630202   4.799   2.875   5.920  1.0705  0.2543  0.6095
   54MOL   H41730203   4.925   2.815   5.809  0.4650 -0.1928 -3.2185
   54MOL   H41830204   5.182   3.219   5.975 -1.3153  1.7670  3.8067
   54MOL   H41930205   5.187   3.458   5.998 -0.5062 -1.7282  1.8109
   54MOL   H42030206   4.806   3.504   5.802  1.7122  1.5810 -1.0697
   54MOL   H42130207   4.792   3.247   5.777 -0.3126 -0.2108 -0.8596
   54MOL   O42230208   4.902   3.707   5.895  0.2921  0.1322  0.1253
   54MOL   C42330209   4.897   3.851   5.870 -0.7202 -0.1525  0.1242
   54MOL   C42430210   4.861   3.877   5.721 -0.0453 -0.2474  0.3770
   54MOL   C42530211   4.726   3.838   5.685 -0.3392 -0.3406 -0.1265
   54MOL   C42630212   4.687   3.889   5.545 -0.4343 -0.0116  0.2458
   54MOL   O42730213   4.557   3.847   5.504 -0.2052  0.6475  0.4230
   54MOL   C42830214   4.468   3.927   5.436  0.0611  0.1880  0.3109
   54MOL   O42930215   4.499   4.039   5.390 -0.0337 -0.3156 -0.1025
   54MOL   C43030216   4.334   3.858   5.413 -0.3575  0.4677 -0.0163
   54MOL   C43130217   4.227   3.935   5.363  0.0402  0.5052  0.1828
   54MOL   C43230218   4.102   3.872   5.344  0.0083 -0.0752  0.1321
   54MOL   C43330219   4.088   3.734   5.372 -0.5301 -0.2497 -0.5470
   54MOL   C43430220   3.961   3.658   5.360 -0.2529 -0.4100 -0.5058
   54MOL   O43530221   3.958   3.543   5.401  0.1660  0.3533 -0.0238
   54MOL   C43630222   4.196   3.663   5.427 -0.6431 -0.2999 -1.0989
   54MOL   C43730223   4.323   3.721   5.444 -0.1189  0.3500  0.0135
   54MOL   H43830224   4.814   3.893   5.927 -0.6580 -2.0110  1.6159
   54MOL   H43930225   4.985   3.904   5.906  0.4465 -1.6949 -0.4008
   54MOL   H44030226   4.931   3.821   5.659 -0.3687  0.3880 -0.5802
   54MOL   H44130227   4.868   3.982   5.692  3.5942 -0.1361  1.4303
   54MOL   H44230228   4.732   3.731   5.667 -2.1594 -0.3878 -0.5505
   54MOL   H44330229   4.660   3.861   5.768  1.0311  0.6403  0.7077
   54MOL   H44430230   4.700   3.997   5.539 -1.6645  0.1387  0.1853
   54MOL   H44530231   4.755   3.850   5.469  0.8483  0.1740  1.2718
   54MOL   H44630232   4.229   4.039   5.336 -2.0313 -0.1162 -2.6513
   54MOL   H44730233   4.023   3.932   5.301  0.0679 -0.4541 -0.5200
   54MOL   H44830234   4.197   3.557   5.446 -1.1685 -0.1006  0.0736
   54MOL   H44930235   4.410   3.661   5.468 -0.7790 -1.9168 -2.9906
   54MOL   O45030236   3.859   3.726   5.296 -0.9540 -0.1156  0.0633
   54MOL   C45130237   3.737   3.656   5.285  0.1852  0.6634 -1.0652
   54MOL   C45230238   3.651   3.728   5.187  0.6643  0.2304 -0.9659
   54MOL   C45330239   3.688   3.714   5.039 -0.0280 -0.1714  0.0188
   54MOL   C45430240   3.608   3.622   4.953  0.2046 -0.5985 -0.4632
   54MOL   O45530241   3.628   3.644   4.813 -0.5709  0.7060 -0.1686
   54MOL   C45630242   3.745   3.607   4.753  0.3636  0.0073  0.1958
   54MOL   O45730243   3.834   3.538   4.809 -0.2586  0.0969  0.5299
   54MOL   C45830244   3.756   3.651   4.608  0.1109 -0.6876  0.0201
   54MOL   C45930245   3.865   3.602   4.531  0.3054  0.1068 -0.1340
   54MOL   C46030246   3.881   3.657   4.401  0.5332 -1.1252 -0.6725
   54MOL   C46130247   3.793   3.751   4.345  0.4214 -0.0348  0.4765
   54MOL   C46230248   3.813   3.805   4.207  0.2359  0.1941 -0.1606
   54MOL   O46330249   3.731   3.864   4.132 -0.5759 -0.5320 -0.0338
   54MOL   C46430250   3.680   3.797   4.421 -0.5718 -0.2099 -0.1263
   54MOL   C46530251   3.670   3.744   4.550  0.2264 -0.0030 -0.8779
   54MOL   H46630252   3.742   3.552   5.255  0.7814  1.5656 -4.2037
   54MOL   H46730253   3.684   3.659   5.381 -1.2368  0.9168 -1.8448
   54MOL   H46830254   3.640   3.834   5.207  0.4197 -0.2335  1.5647
   54MOL   H46930255   3.551   3.685   5.191  0.8007 -0.0282 -0.2211
   54MOL   H47030256   3.677   3.814   4.995 -0.4166 -0.0892  0.3094
   54MOL   H47130257   3.793   3.690   5.022 -0.0999  1.5853 -3.3313
   54MOL   H47230258   3.630   3.519   4.981  0.9809 -0.1405  0.6375
   54MOL   H47330259   3.502   3.640   4.972  0.3639  0.8809 -0.9047
   54MOL   H47430260   3.949   3.542   4.564  1.1231  2.0010  1.3059
   54MOL   H47530261   3.963   3.627   4.337  1.2838 -0.0915 -0.1969
   54MOL   H47630262   3.610   3.872   4.387 -0.3920 -0.1789 -0.4330
   54MOL   H47730263   3.582   3.775   4.604  1.9008 -0.2585  2.0995
   54MOL   O47830264   3.939   3.807   4.183 -0.5890  0.2277  0.3615
   54MOL   C47930265   3.998   3.860   4.063 -1.0466  0.2620  0.8945
   54MOL   C48030266   4.062   3.747   3.988 -0.6696  0.2298  0.4389
   54MOL   C48130267   4.151   3.799   3.870  0.1102 -0.0897 -0.6271
   54MOL   C48230268   4.220   3.676   3.814 -0.6340 -0.5243  0.3334
   54MOL   O48330269   4.243   3.697   3.679 -0.0978  0.3587  0.1205
   54MOL   C48430270   4.340   3.634   3.613  0.0945  0.0591  0.2154
   54MOL   O48530271   4.407   3.539   3.657  0.1729 -0.1407  0.0312
   54MOL   C48630272   4.359   3.684   3.477 -0.4316 -0.2304 -0.8506
   54MOL   C48730273   4.275   3.777   3.419  0.3216  0.2391  0.0938
   54MOL   C48830274   4.283   3.799   3.277 -0.2463 -0.1730  0.0028
   54MOL   C48930275   4.386   3.750   3.200  0.4086 -0.2837 -0.0327
   54MOL   C49030276   4.386   3.788   3.054  0.2639  0.1267 -0.5354
   54MOL   O49130277   4.322   3.884   3.005 -0.1843  0.7624 -0.4436
   54MOL   C49230278   4.484   3.664   3.259  0.0667  0.7493  0.7399
   54MOL   C49330279   4.460   3.627   3.396  0.3870 -0.4415 -0.1401
   54MOL   H49430280   3.928   3.908   3.994  1.2630  2.6430  0.1429
   54MOL   H49530281   4.075   3.931   4.089  0.2032  0.4188 -2.8704
   54MOL   H49630282   3.982   3.686   3.946  0.6934 -0.3354 -1.4000
   54MOL   H49730283   4.122   3.683   4.054  0.6713 -0.8922 -1.8012
   54MOL   H49830284   4.085   3.854   3.803 -1.5013 -0.3233  0.7240
   54MOL   H49930285   4.220   3.875   3.907  0.1755  0.3037 -1.5469
   54MOL   H50030286   4.316   3.657   3.862  0.0081 -2.5234 -1.6102
   54MOL   H50130287   4.156   3.588   3.816  0.0275 -1.0313 -0.1941
   54MOL   H50230288   4.194   3.822   3.474 -1.1457 -2.0634 -0.0746
   54MOL   H50330289   4.216   3.867   3.226 -0.5068  2.7069  3.9070
   54MOL   H50430290   4.557   3.620   3.192 -0.1587  1.0394  0.2965
   54MOL   H50530291   4.525   3.547   3.428  0.1358 -1.1662 -1.4455
   54MOL   O50630292   4.464   3.710   2.985 -0.5959 -0.6624  0.1798
   54MOL   C50730293   4.449   3.699   2.847  0.3563  0.7262  0.6155
   54MOL   C50830294   4.542   3.594   2.785  0.0954 -0.6422  0.2824
   54MOL   C50930295   4.533   3.583   2.636  0.2809 -0.8952  0.0496
   54MOL   C51030296   4.633   3.478   2.585  0.1776  0.3424 -0.6597
   54MOL   O51130297   4.590   3.345   2.604 -0.3398  1.0089 -0.0060
   54MOL   C51230298   4.521   3.283   2.506 -0.4398  0.1522 -0.3931
   54MOL   O51330299   4.489   3.340   2.400 -0.4418 -0.1686  0.0165
   54MOL   C51430300   4.515   3.136   2.520 -0.1540  0.0013  0.2126
   54MOL   C51530301   4.541   3.070   2.643  0.2667  0.0447 -0.0374
   54MOL   C51630302   4.545   2.927   2.643  0.4193 -0.2188 -0.1810
   54MOL   C51730303   4.542   2.863   2.522 -0.0371 -0.4905 -0.4197
   54MOL   C51830304   4.557   2.714   2.508  0.9579  0.0724  0.4555
   54MOL   O51930305   4.556   2.651   2.398  0.2214 -0.0385  0.0556
   54MOL   C52030306   4.518   2.920   2.399 -0.0123 -0.0776 -0.2870
   54MOL   C52130307   4.498   3.060   2.402  0.4616 -0.6280 -0.4816
   54MOL   H52230308   4.345   3.674   2.827 -0.3126  3.3286  0.5772
   54MOL   H52330309   4.463   3.797   2.801 -1.2232  1.5582  1.8708
   54MOL   H52430310   4.515   3.498   2.827  0.7900 -0.7802  0.4242
   54MOL   H52530311   4.647   3.610   2.810  0.2634 -0.0793 -0.7457
   54MOL   H52630312   4.430   3.572   2.601 -0.1187  3.7364 -0.6301
   54MOL   H52730313   4.569   3.676   2.591  0.4678 -0.8598  0.2675
   54MOL   H52830314   4.661   3.496   2.481 -0.8824 -0.3771 -1.0745
   54MOL   H52930315   4.727   3.490   2.639 -0.0271 -1.1016  0.0371
   54MOL   H53030316   4.576   3.118   2.733 -1.2583 -2.5613  2.0086
   54MOL   H53130317   4.554   2.878   2.739  0.7866 -0.0972 -0.1512
   54MOL   H53230318   4.505   2.868   2.305 -1.8505  1.3293 -0.8486
   54MOL   H53330319   4.473   3.112   2.310  0.1782  0.2384  0.0761
   54MOL   O53430320   4.579   2.656   2.629 -0.2041 -0.0746  0.2135
   54MOL   C53530321   4.567   2.523   2.641 -0.1080 -0.0073 -0.0487
   54MOL   C53630322   4.454   2.497   2.753 -0.2509 -0.1068  0.5478
   54MOL   C53730323   4.483   2.568   2.880 -0.1394  0.1772 -0.5046
   54MOL   C53830324   4.411   2.514   3.004 -0.5983  0.2259 -0.1621
   54MOL   O53930325   4.493   2.426   3.084 -0.1791 -0.6553 -0.8079
   54MOL   C54030326   4.486   2.295   3.054  0.4871  0.4764 -0.7554
   54MOL   O54130327   4.394   2.242   2.991 -0.0509  0.0009 -0.0653
   54MOL   C54230328   4.613   2.218   3.105  0.5884  0.5226  0.3694
   54MOL   C54330329   4.714   2.279   3.174 -0.1675 -0.2845 -0.2899
   54MOL   C54430330   4.830   2.202   3.210  0.6794  0.4349  0.3209
   54MOL   C54530331   4.845   2.066   3.164  0.0846  0.0048 -0.1435
   54MOL   C54630332   4.964   1.990   3.221  0.2462 -0.2237  0.0968
   54MOL   O54730333   5.017   1.887   3.173 -0.3362  0.2534  0.6942
   54MOL   C54830334   4.739   2.005   3.095  0.4855  0.0785  0.5851
   54MOL   C54930335   4.624   2.083   3.071 -0.6794  0.4709 -0.8343
   54MOL   H55030336   4.527   2.477   2.551  0.9498 -0.6582 -0.1901
   54MOL   H55130337   4.654   2.464   2.670  1.1632  1.5918 -0.5608
   54MOL   H55230338   4.461   2.388   2.759 -0.3996 -0.1776 -0.4922
   54MOL   H55330339   4.356   2.529   2.718 -0.1921  0.5246  0.9569
   54MOL   H55430340   4.590   2.564   2.899 -0.0425 -0.7896 -1.1925
   54MOL   H55530341   4.458   2.674   2.869 -0.9613 -0.1534 -2.0566
   54MOL   H55630342   4.386   2.590   3.078 -1.1878 -0.4155  0.3038
   54MOL   H55730343   4.316   2.477   2.966 -1.0534  1.8684 -0.6474
   54MOL   H55830344   4.703   2.381   3.208 -0.1028 -0.7222  1.0970
   54MOL   H55930345   4.912   2.239   3.270  0.5558 -1.2738  1.5756
   54MOL   H56030346   4.745   1.905   3.055 -0.9844 -0.2657  1.1937
   54MOL   H56130347   4.541   2.037   3.020 -1.4682  1.0086 -0.0586
   54MOL   H56230348   5.000   2.040   3.311  1.0526 -0.1674 -0.2452
   55MOL     O130349   6.060   1.048   1.294 -0.2106 -0.3135  0.0187
   55MOL     C230350   6.020   1.106   1.413 -0.7939 -0.2011  0.2729
   55MOL     C330351   6.113   1.225   1.441 -0.5198 -0.1942 -0.1947
   55MOL     C430352   6.086   1.309   1.561  0.7701  0.3557 -0.2185
   55MOL     C530353   6.173   1.435   1.567  0.4087  0.4662 -0.0714
   55MOL     O630354   6.314   1.414   1.588  0.4465 -0.4888  0.1580
   55MOL     C730355   6.363   1.398   1.719 -0.8011  0.0017  0.5959
   55MOL     O830356   6.287   1.394   1.812 -0.1907  0.0187 -0.2162
   55MOL     C930357   6.505   1.372   1.730 -0.1235  0.3839 -0.0691
   55MOL    C1030358   6.566   1.319   1.849 -0.4440 -1.0062  0.5136
   55MOL    C1130359   6.705   1.306   1.864  0.2416 -0.1927  0.2430
   55MOL    C1230360   6.793   1.338   1.759  0.1679 -0.7268 -0.5333
   55MOL    C1330361   6.939   1.319   1.774  0.4328 -0.2100  0.0011
   55MOL    O1430362   6.999   1.283   1.873  0.4504 -0.9202  0.1423
   55MOL    C1530363   6.732   1.392   1.642  0.1923 -0.7669 -0.5387
   55MOL    C1630364   6.592   1.407   1.627 -0.1944 -0.7700 -0.6095
   55MOL    H1730365   5.915   1.138   1.414 -0.8060 -0.1575 -1.3737
   55MOL    H1830366   6.020   1.034   1.495 -3.4553 -1.3506 -0.6568
   55MOL    H1930367   6.110   1.288   1.352  1.7830  0.0911 -0.0989
   55MOL    H2030368   6.217   1.194   1.439 -0.3018  0.4588  0.6309
   55MOL    H2130369   5.981   1.338   1.557  0.9607  1.0698 -0.0902
   55MOL    H2230370   6.106   1.247   1.648 -0.4014 -0.2847 -0.4006
   55MOL    H2330371   6.157   1.490   1.474  1.7282  0.9688 -0.0080
   55MOL    H2430372   6.127   1.495   1.646 -1.0298  0.7239 -1.0734
   55MOL    H2530373   6.502   1.291   1.932  1.5077 -2.1643  1.6589
   55MOL    H2630374   6.741   1.272   1.961  0.9856 -2.1533 -0.7024
   55MOL    H2730375   6.793   1.418   1.557 -1.4488 -1.7375 -2.0697
   55MOL    H2830376   6.554   1.457   1.539  1.8790  1.1958 -0.4516
   55MOL    H2930377   6.154   1.037   1.297 -0.1110  0.4974  0.0963
   55MOL    O3030378   6.998   1.326   1.651  0.9723  0.0917 -0.4392
   55MOL    C3130379   7.137   1.302   1.639  0.4303  0.3827  0.1044
   55MOL    C3230380   7.223   1.422   1.592  0.2688  0.1181 -0.1014
   55MOL    C3330381   7.241   1.510   1.723  0.0151  0.1729 -0.2063
   55MOL    C3430382   7.242   1.663   1.692 -0.1225  0.1480 -0.2408
   55MOL    O3530383   7.107   1.706   1.656  0.0232  0.2934  0.2535
   55MOL    C3630384   7.079   1.831   1.627 -0.2939 -0.6475  0.1774
   55MOL    O3730385   7.169   1.919   1.628  0.2069  0.2192  0.6714
   55MOL    C3830386   6.933   1.856   1.598  0.3382 -0.1342 -0.2103
   55MOL    C3930387   6.840   1.750   1.613  0.1409 -0.6244 -0.4015
   55MOL    C4030388   6.702   1.766   1.592  0.2650 -0.3893  0.4721
   55MOL    C4130389   6.656   1.893   1.545  0.2472  0.7260 -0.1710
   55MOL    C4230390   6.509   1.917   1.540  0.2892 -0.3065  0.1477
   55MOL    O4330391   6.432   1.825   1.555 -0.1209  0.3505  0.0876
   55MOL    C4430392   6.752   1.997   1.526 -0.7046  0.0019 -0.5155
   55MOL    C4530393   6.886   1.977   1.551  0.9539 -0.1756  0.1856
   55MOL    H4630394   7.175   1.259   1.732 -2.1436 -2.1737  0.0229
   55MOL    H4730395   7.146   1.225   1.562 -0.9420  0.2251  0.1070
   55MOL    H4830396   7.176   1.478   1.512 -2.1765 -1.0626  0.4633
   55MOL    H4930397   7.315   1.375   1.556 -0.5967 -0.5305 -1.4585
   55MOL    H5030398   7.170   1.482   1.802  1.9596  1.1367  1.9268
   55MOL    H5130399   7.336   1.485   1.769  0.4741  1.2211 -0.5619
   55MOL    H5230400   7.258   1.731   1.776  0.5197  1.0101 -1.0658
   55MOL    H5330401   7.314   1.684   1.614 -0.5830  1.9083 -0.2170
   55MOL    H5430402   6.874   1.654   1.649 -0.6042 -0.9558 -0.5726
   55MOL    H5530403   6.630   1.691   1.619  1.6466 -1.6503  0.7065
   55MOL    H5630404   6.718   2.090   1.483 -1.1309  0.6984  1.2451
   55MOL    H5730405   6.960   2.055   1.540 -1.1094  1.6587 -1.0908
   55MOL    O5830406   6.483   2.056   1.519 -0.3526  0.2426 -0.0447
   55MOL    C5930407   6.353   2.105   1.505 -0.3920 -0.0147 -0.1921
   55MOL    C6030408   6.326   2.140   1.356  0.6880  0.1840 -0.2056
   55MOL    C6130409   6.417   2.256   1.316 -0.3931  0.1161 -0.0128
   55MOL    C6230410   6.343   2.383   1.302 -0.1011 -0.1653 -0.1479
   55MOL    O6330411   6.339   2.454   1.432 -0.5089 -0.6809  0.0194
   55MOL    C6430412   6.234   2.430   1.512 -0.2755  0.2326 -0.6453
   55MOL    O6530413   6.133   2.374   1.479  0.1578  0.1598  0.6517
   55MOL    C6630414   6.251   2.499   1.651 -0.1506 -0.2055  0.7457
   55MOL    C6730415   6.377   2.519   1.710  0.6735 -0.0460 -0.1776
   55MOL    C6830416   6.379   2.588   1.835 -0.0613 -0.2679  0.3589
   55MOL    C6930417   6.268   2.648   1.898 -0.2935  0.0444  0.4193
   55MOL    C7030418   6.269   2.720   2.027  0.2169 -0.4173  0.3524
   55MOL    O7130419   6.169   2.763   2.086 -0.5225 -0.0475 -0.2702
   55MOL    C7230420   6.145   2.629   1.831  0.3467 -0.3479 -1.1421
   55MOL    C7330421   6.134   2.553   1.712 -0.6860 -0.1651 -0.1866
   55MOL    H7430422   6.278   2.038   1.546 -0.9050  0.3054 -0.5995
   55MOL    H7530423   6.352   2.190   1.573  0.0560 -0.2989  0.1679
   55MOL    H7630424   6.222   2.169   1.343  0.7381  0.3617 -0.1999
   55MOL    H7730425   6.334   2.051   1.292 -0.3545  1.0955 -1.6335
   55MOL    H7830426   6.507   2.262   1.377 -1.3594 -0.5627  1.5279
   55MOL    H7930427   6.456   2.236   1.217 -0.7190 -0.6322  0.0045
   55MOL    H8030428   6.392   2.448   1.229  0.3407 -1.1654 -0.7485
   55MOL    H8130429   6.245   2.360   1.259  0.0606 -1.0474 -0.0488
   55MOL    H8230430   6.470   2.473   1.680  0.5869 -0.4425  0.1645
   55MOL    H8330431   6.476   2.596   1.880  0.7146 -0.8126 -1.1718
   55MOL    H8430432   6.057   2.654   1.889  1.2405  0.1254  0.0456
   55MOL    H8530433   6.040   2.530   1.664  1.1643 -3.0307 -2.5654
   55MOL    O8630434   6.398   2.726   2.081  0.1691  0.1764 -0.3423
   55MOL    C8730435   6.417   2.774   2.218  0.5349  0.7982  0.4127
   55MOL    C8830436   6.542   2.865   2.226 -0.1579  0.4253  0.2073
   55MOL    C8930437   6.666   2.788   2.210  0.3719 -0.4271 -0.0360
   55MOL    C9030438   6.802   2.858   2.249 -0.1618  0.4598 -0.1512
   55MOL    O9130439   6.797   2.993   2.202 -0.0670 -0.0995 -0.4368
   55MOL    C9230440   6.905   3.076   2.185  0.1524 -0.1926  0.1169
   55MOL    O9330441   7.020   3.035   2.179  0.4561  0.5578 -0.0687
   55MOL    C9430442   6.865   3.224   2.169  0.3275 -0.7010 -0.4623
   55MOL    C9530443   6.963   3.322   2.148  0.0058 -0.0320  0.2697
   55MOL    C9630444   6.931   3.457   2.110  0.4030 -0.6220 -0.1366
   55MOL    C9730445   6.799   3.499   2.109  0.0470  0.2120 -0.3698
   55MOL    C9830446   6.748   3.638   2.083 -0.5223  0.1179 -0.4777
   55MOL    O9930447   6.634   3.666   2.073  0.3023  0.4832 -0.1056
   55MOL   C10030448   6.699   3.401   2.128  0.6675  0.1010  0.0538
   55MOL   C10130449   6.733   3.265   2.151  0.0004  0.2331  0.6769
   55MOL   H10230450   6.328   2.823   2.257  1.4568  2.4606  0.4807
   55MOL   H10330451   6.434   2.693   2.289  0.1254  1.0047  0.7432
   55MOL   H10430452   6.540   2.909   2.326 -2.5442 -2.0369  1.3008
   55MOL   H10530453   6.547   2.956   2.167  0.3811  0.2170 -0.0746
   55MOL   H10630454   6.665   2.704   2.280 -1.5810 -0.7751 -0.4523
   55MOL   H10730455   6.686   2.765   2.105  1.8622 -1.0598  0.3720
   55MOL   H10830456   6.818   2.856   2.357 -0.2037 -1.7445 -0.1627
   55MOL   H10930457   6.873   2.787   2.207  0.3360 -0.4811  2.2200
   55MOL   H11030458   7.064   3.287   2.165  0.3995  0.0602 -1.7546
   55MOL   H11130459   7.011   3.530   2.102  0.5505 -0.6495  0.9133
   55MOL   H11230460   6.593   3.419   2.124  0.5959  0.3672  2.2653
   55MOL   H11330461   6.660   3.186   2.157 -0.4451  0.5821 -0.1677
   55MOL   O11430462   6.853   3.729   2.078 -0.1431  0.3867  0.1337
   55MOL   C11530463   6.822   3.855   2.036 -0.0916  0.2578 -0.3328
   55MOL   C11630464   6.945   3.945   2.057 -0.6448 -0.5787  0.1542
   55MOL   C11730465   7.058   3.896   1.959 -0.4079  0.7555  0.5015
   55MOL   C11830466   7.038   3.955   1.817  0.2677 -0.3192 -0.0588
   55MOL   O11930467   7.045   4.100   1.827 -0.2005  0.5262  0.2240
   55MOL   C12030468   7.077   4.163   1.710  0.5879 -0.0650  0.0159
   55MOL   O12130469   7.114   4.100   1.612 -0.0306 -0.4230 -1.2344
   55MOL   C12230470   7.053   4.311   1.713 -0.6879  0.0686 -0.3027
   55MOL   C12330471   7.024   4.386   1.831 -0.2001  0.1080  0.3950
   55MOL   C12430472   6.991   4.517   1.828 -0.3043  1.0164  0.2446
   55MOL   C12530473   6.990   4.583   1.705  0.1684 -0.4140  0.0415
   55MOL   C12630474   6.957   4.732   1.702 -0.6720  0.0481  0.2839
   55MOL   O12730475   6.931   4.796   1.599  0.5125  0.4402 -0.1305
   55MOL   C12830476   7.022   4.523   1.580  0.0878 -0.0607 -0.2389
   55MOL   C12930477   7.051   4.383   1.589  0.4577 -0.3980  0.1057
   55MOL   H13030478   6.790   3.866   1.932  2.3928 -2.0455 -1.4044
   55MOL   H13130479   6.740   3.893   2.096  0.6926  3.5957 -1.2494
   55MOL   H13230480   6.983   3.940   2.159 -0.8141  4.0086  0.5228
   55MOL   H13330481   6.928   4.051   2.035 -0.9911 -0.4250  1.1639
   55MOL   H13430482   7.155   3.926   1.999 -0.0108 -0.6243  0.6024
   55MOL   H13530483   7.067   3.788   1.954  2.0968  0.9656 -0.4036
   55MOL   H13630484   7.115   3.910   1.754 -0.1113 -1.0998  0.0229
   55MOL   H13730485   6.940   3.918   1.784 -0.5800 -0.3497  2.4011
   55MOL   H13830486   7.020   4.330   1.923  0.0755 -0.0250  0.3286
   55MOL   H13930487   6.968   4.576   1.916 -1.0332  1.4674 -0.2458
   55MOL   H14030488   7.030   4.581   1.489  0.9863  1.0988  0.5656
   55MOL   H14130489   7.062   4.324   1.499  0.9929  3.0476 -2.1965
   55MOL   O14230490   6.979   4.795   1.822 -0.3081  0.0631 -0.3559
   55MOL   C14330491   6.975   4.938   1.830 -0.0612  0.5263  0.2334
   55MOL   C14430492   6.964   5.003   1.964  0.5087 -0.5562 -0.1543
   55MOL   C14530493   6.817   5.058   1.989  0.5599  0.0606 -0.0846
   55MOL   C14630494   6.768   5.167   1.889  0.1483 -0.2462 -0.5200
   55MOL   O14730495   6.860   5.272   1.879 -0.4814  0.2129 -0.4162
   55MOL   C14830496   6.822   5.387   1.815 -0.5910  0.0145  0.4709
   55MOL   O14930497   6.712   5.427   1.792  0.4987  0.8753  0.7820
   55MOL   C15030498   6.934   5.471   1.775 -0.6304  0.4411 -0.5365
   55MOL   C15130499   6.914   5.591   1.700 -0.6153 -0.1501  0.0643
   55MOL   C15230500   7.027   5.668   1.662  0.7748 -0.5753 -0.3995
   55MOL   C15330501   7.158   5.635   1.702  0.1357 -0.5044 -0.9344
   55MOL   C15430502   7.272   5.716   1.667 -0.0931  0.2096  0.1944
   55MOL   O15530503   7.387   5.671   1.659  0.1237 -0.2183  0.3997
   55MOL   C15630504   7.171   5.524   1.775 -0.2709  0.2980 -0.1643
   55MOL   C15730505   7.059   5.444   1.818 -0.0343  0.1577  0.4642
   55MOL   H15830506   7.052   4.993   1.776  0.1263 -0.3782 -0.4292
   55MOL   H15930507   6.887   4.968   1.774 -0.5771  0.9028  1.2218
   55MOL   H16030508   7.042   5.078   1.971  0.2066  0.0026 -2.3089
   55MOL   H16130509   6.991   4.928   2.038  3.4311  0.3334 -0.2706
   55MOL   H16230510   6.749   4.973   2.000 -0.2287  0.9419  2.1815
   55MOL   H16330511   6.815   5.105   2.088  2.6262  2.0319 -0.9391
   55MOL   H16430512   6.757   5.111   1.796  1.0929 -0.2035 -0.6671
   55MOL   H16530513   6.666   5.194   1.915  0.1631 -1.4574  0.8625
   55MOL   H16630514   6.818   5.625   1.663 -0.6199 -0.3032 -0.0614
   55MOL   H16730515   7.004   5.756   1.603 -0.4125 -0.6286 -0.0333
   55MOL   H16830516   7.267   5.486   1.806  0.5123  0.9257 -1.7519
   55MOL   H16930517   7.076   5.355   1.878  3.1901  0.8071  0.6124
   55MOL   O17030518   7.242   5.840   1.652  0.2328 -0.2650 -0.1769
   55MOL   C17130519   7.341   5.942   1.628  0.3451  0.0703 -0.3800
   55MOL   C17230520   7.323   6.009   1.488 -0.5669 -0.3893  0.1927
   55MOL   C17330521   7.335   5.914   1.367 -0.6759 -0.1776 -0.7685
   55MOL   C17430522   7.301   5.972   1.236 -0.2537  0.5841  0.1241
   55MOL   O17530523   7.408   6.053   1.187 -0.2316 -0.0444 -0.0360
   55MOL   C17630524   7.394   6.173   1.146 -0.8627  0.0125  0.3508
   55MOL   O17730525   7.287   6.234   1.130 -0.2322 -0.4430  0.1644
   55MOL   C17830526   7.524   6.232   1.107 -0.0112  0.0427 -0.6983
   55MOL   C17930527   7.536   6.371   1.074 -0.2815 -0.5775  0.5779
   55MOL   C18030528   7.657   6.420   1.020  0.7415  0.8456  0.3836
   55MOL   C18130529   7.767   6.338   0.997 -0.3949  0.1860  0.5193
   55MOL   C18230530   7.892   6.401   0.943 -0.5080 -0.4286  0.1896
   55MOL   O18330531   7.982   6.329   0.885  0.3636 -0.0526  0.4465
   55MOL   C18430532   7.755   6.202   1.027  0.4355 -0.2320  0.0499
   55MOL   C18530533   7.642   6.155   1.090  0.1229  0.3117  0.2850
   55MOL   H18630534   7.347   6.025   1.698 -3.8408 -0.2789  0.5307
   55MOL   H18730535   7.437   5.893   1.638  0.4112  0.2143 -0.3181
   55MOL   H18830536   7.383   6.100   1.482 -0.8466 -0.2938 -1.3527
   55MOL   H18930537   7.225   6.056   1.480  0.3849  1.6878  0.1601
   55MOL   H19030538   7.437   5.877   1.362  0.0021  1.6705 -0.7315
   55MOL   H19130539   7.278   5.823   1.386  2.0642 -1.7640  0.0419
   55MOL   H19230540   7.268   5.895   1.166 -0.1636 -0.5792  1.3224
   55MOL   H19330541   7.211   6.032   1.251 -0.1545  1.4762 -2.5661
   55MOL   H19430542   7.456   6.442   1.093 -0.7785 -1.4113  1.6619
   55MOL   H19530543   7.684   6.523   0.999  1.5451  1.3476  3.5365
   55MOL   H19630544   7.840   6.136   1.016  1.1096  0.5203  0.6330
   55MOL   H19730545   7.634   6.050   1.112  2.1959  0.2332  0.7436
   55MOL   O19830546   7.897   6.547   0.948 -0.3510 -0.4249  0.8033
   55MOL   C19930547   8.009   6.619   0.898  0.3544 -0.0647  1.0484
   55MOL   C20030548   0.036   6.604   0.988 -1.0838  0.1073  0.1565
   55MOL   C20130549   0.013   6.627   1.131 -0.5197 -0.1194  0.7498
   55MOL   C20230550   0.138   6.610   1.205  0.2676 -0.5860  0.2508
   55MOL   O20330551   0.219   6.496   1.176  0.3615 -0.0627  0.4582
   55MOL   C20430552   0.326   6.479   1.262  0.3054  0.2358 -0.0387
   55MOL   O20530553   0.343   6.543   1.369 -0.2598 -0.4177  0.1710
   55MOL   C20630554   0.428   6.374   1.220  0.0722 -0.6385 -0.2838
   55MOL   C20730555   0.527   6.339   1.317 -1.0786 -0.7341  0.4640
   55MOL   C20830556   0.629   6.251   1.280  0.7942  0.5995 -0.6454
   55MOL   C20930557   0.638   6.196   1.149  0.1332 -0.0726 -0.4725
   55MOL   C21030558   0.731   6.083   1.118  1.0269  0.9441  0.1318
   55MOL   O21130559   0.727   6.033   1.009 -0.0528  0.0002  0.2247
   55MOL   C21230560   0.543   6.240   1.051 -0.0632 -0.0017 -0.1423
   55MOL   C21330561   0.439   6.331   1.088  0.1541 -0.3061  0.0965
   55MOL   H21430562   8.021   6.585   0.795  1.2446  1.8718  0.4689
   55MOL   H21530563   7.972   6.722   0.896  2.4268  0.7120 -1.8646
   55MOL   H21630564   0.116   6.670   0.956  0.2881 -2.7870 -2.6988
   55MOL   H21730565   0.072   6.502   0.974  0.1132  0.4397  0.7481
   55MOL   H21830566   8.055   6.717   1.156  1.6783  1.3418  0.6624
   55MOL   H21930567   8.045   6.547   1.163 -0.5217 -2.4130 -4.3848
   55MOL   H22030568   0.206   6.695   1.197 -0.9452  0.3945  0.2034
   55MOL   H22130569   0.110   6.611   1.310  0.8950  1.1402  0.4346
   55MOL   H22230570   0.522   6.375   1.419 -0.6937 -2.3055  1.0439
   55MOL   H22330571   0.689   6.207   1.358  0.1654  1.8808  0.5935
   55MOL   H22430572   0.553   6.197   0.952  3.2756  1.5129 -0.5316
   55MOL   H22530573   0.381   6.370   1.006  1.1024  0.4434 -0.2316
   55MOL   O22630574   0.793   6.032   1.219  0.4231 -0.0860  0.3981
   55MOL   C22730575   0.868   5.911   1.207 -0.1615 -0.1533  0.0554
   55MOL   C22830576   0.901   5.841   1.349  0.8937 -0.0468 -0.0205
   55MOL   C22930577   0.789   5.748   1.403 -0.1514 -0.2349 -0.5437
   55MOL   C23030578   0.813   5.679   1.538  0.2258  0.4040  0.0839
   55MOL   O23130579   0.951   5.662   1.569 -0.7948  0.2786 -0.1428
   55MOL   C23230580   1.022   5.759   1.629 -0.1145 -0.1871  0.3968
   55MOL   O23330581   0.964   5.853   1.678 -0.4033 -0.1643  0.1824
   55MOL   C23430582   1.167   5.740   1.644 -0.5369 -1.1809  0.4369
   55MOL   C23530583   1.219   5.617   1.591  0.0720 -1.0243  0.8024
   55MOL   C23630584   1.353   5.578   1.608  0.4081 -0.0173  0.3715
   55MOL   C23730585   1.438   5.667   1.669  0.0524 -0.3220  0.4001
   55MOL   C23830586   1.584   5.620   1.697 -0.1539 -1.0596 -0.0703
   55MOL   O23930587   1.608   5.506   1.664 -0.8637  0.1725  0.0029
   55MOL   C24030588   1.393   5.792   1.715  0.9630 -0.7105 -0.1365
   55MOL   C24130589   1.257   5.833   1.707  0.2868 -0.1741  0.4556
   55MOL   H24230590   0.816   5.843   1.140  1.4533 -1.2643 -0.0952
   55MOL   H24330591   0.961   5.948   1.165  1.3903 -0.9866  2.6362
   55MOL   H24430592   0.929   5.917   1.421  0.8964  1.5842 -1.6969
   55MOL   H24530593   0.984   5.773   1.329 -1.5150 -3.2612  0.4176
   55MOL   H24630594   0.696   5.803   1.419  0.6652  1.2889 -0.8915
   55MOL   H24730595   0.785   5.667   1.330 -1.4844 -0.6298 -0.0422
   55MOL   H24830596   0.763   5.740   1.613  1.9235  0.5588  1.1240
   55MOL   H24930597   0.758   5.585   1.531  0.1149  0.5505 -1.0507
   55MOL   H25030598   1.158   5.540   1.546  1.7019  0.2960 -3.9969
   55MOL   H25130599   1.390   5.483   1.573  0.7599  1.1221 -2.5513
   55MOL   H25230600   1.466   5.857   1.761 -0.9686  2.2994 -1.1888
   55MOL   H25330601   1.231   5.931   1.744 -0.9588 -1.1258  2.1236
   55MOL   O25430602   1.667   5.711   1.752 -0.2275 -0.8388 -0.1096
   55MOL   C25530603   1.799   5.677   1.791 -0.2401 -0.0346 -0.2703
   55MOL   C25630604   1.815   5.606   1.932  0.4604  0.1679  0.4342
   55MOL   C25730605   1.952   5.546   1.948  0.6458  0.0681 -0.5665
   55MOL   C25830606   1.961   5.433   2.046  0.5378  0.1389  0.7281
   55MOL   O25930607   2.086   5.374   2.022 -0.1441 -0.7995  0.4958
   55MOL   C26030608   2.178   5.357   2.116  0.8858  0.1277 -0.2223
   55MOL   O26130609   2.177   5.398   2.231 -0.2183 -0.4260  0.3215
   55MOL   C26230610   2.303   5.292   2.062  0.3149 -0.7080  0.5483
   55MOL   C26330611   2.314   5.233   1.933  0.7846 -0.3305 -0.1307
   55MOL   C26430612   2.431   5.161   1.895  0.0892  0.2124  0.0416
   55MOL   C26530613   2.533   5.138   1.987 -0.4592  0.4708  0.5200
   55MOL   C26630614   2.654   5.055   1.964  0.3081 -0.0854 -0.1426
   55MOL   O26730615   2.759   5.068   2.030 -0.3171  0.0587 -0.1589
   55MOL   C26830616   2.527   5.198   2.116  0.6502  0.0544  0.3537
   55MOL   C26930617   2.413   5.278   2.145  0.5977  0.0845 -0.2355
   55MOL   H27030618   1.836   5.626   1.702 -1.5224  2.1867 -2.1517
   55MOL   H27130619   1.848   5.773   1.809 -0.4041  0.2345 -1.1931
   55MOL   H27230620   1.747   5.521   1.943  0.3278 -0.1592 -2.6984
   55MOL   H27330621   1.786   5.674   2.013 -0.3524  0.8178 -0.3954
   55MOL   H27430622   1.979   5.507   1.851 -1.0447  1.1052 -1.4805
   55MOL   H27530623   2.030   5.616   1.979  0.3792  0.0775  0.1038
   55MOL   H27630624   1.942   5.472   2.146  0.2615  0.4519  0.5558
   55MOL   H27730625   1.877   5.366   2.028  0.0398  1.0216 -0.3321
   55MOL   H27830626   2.230   5.248   1.867 -0.6688 -0.4173  1.6425
   55MOL   H27930627   2.438   5.118   1.795  1.8244 -2.2043  1.1587
   55MOL   H28030628   2.606   5.202   2.190  0.7740  0.6976  0.1940
   55MOL   H28130629   2.409   5.327   2.241 -0.1711  0.9007 -0.6808
   55MOL   O28230630   2.636   4.974   1.858 -0.0426 -0.5022 -0.4468
   55MOL   C28330631   2.731   4.899   1.788 -0.0348  0.0432  0.6226
   55MOL   C28430632   2.729   4.755   1.832 -0.6964 -0.3834 -0.1136
   55MOL   C28530633   2.594   4.697   1.866  0.2510 -0.6004 -0.1835
   55MOL   C28630634   2.602   4.556   1.923  0.9908  0.0957  0.4935
   55MOL   O28730635   2.628   4.457   1.822 -0.0221 -0.2522 -0.0690
   55MOL   C28830636   2.665   4.331   1.867  0.4141  0.1041  0.6109
   55MOL   O28930637   2.685   4.302   1.984  0.0410  0.1296 -0.3104
   55MOL   C29030638   2.695   4.231   1.762 -0.3440 -0.3257  0.3918
   55MOL   C29130639   2.706   4.275   1.624  0.3292  0.4905  0.1876
   55MOL   C29230640   2.728   4.184   1.518 -0.7407 -1.0679  0.0035
   55MOL   C29330641   2.747   4.046   1.544  0.2178  0.2907  0.0691
   55MOL   C29430642   2.766   3.942   1.435  0.2170 -0.5540 -0.1586
   55MOL   O29530643   2.782   3.825   1.460  0.1412  0.5339 -0.3507
   55MOL   C29630644   2.756   4.010   1.679  0.6654 -0.0075 -0.6246
   55MOL   C29730645   2.721   4.100   1.784 -0.1766 -0.2140 -0.5935
   55MOL   H29830646   2.690   4.895   1.687  0.8624  2.9383  0.0845
   55MOL   H29930647   2.827   4.948   1.772 -0.5965  1.2167  0.7896
   55MOL   H30030648   2.788   4.731   1.920 -2.3132 -1.2541  0.7507
   55MOL   H30130649   2.778   4.698   1.753 -1.5391  0.5622 -1.3401
   55MOL   H30230650   2.549   4.757   1.945  0.3809 -0.5579 -0.1432
   55MOL   H30330651   2.515   4.716   1.793  1.1081  2.4080 -0.4003
   55MOL   H30430652   2.678   4.541   1.999 -0.3130 -0.3037  1.7290
   55MOL   H30530653   2.503   4.543   1.966  1.2216  2.0614  1.6810
   55MOL   H30630654   2.687   4.376   1.592 -1.4492 -0.0224 -0.4521
   55MOL   H30730655   2.734   4.226   1.419 -0.1809  0.5146  0.7002
   55MOL   H30830656   2.786   3.909   1.705  0.3811 -0.1844 -0.9850
   55MOL   H30930657   2.716   4.068   1.887  1.2549  0.5207 -0.2836
   55MOL   O31030658   2.728   3.983   1.318  0.1678  0.0431 -0.4722
   55MOL   C31130659   2.698   3.899   1.211  0.1049  0.6169  0.6355
   55MOL   C31230660   2.722   3.961   1.083 -0.0104  0.3308  0.3508
   55MOL   C31330661   2.643   4.090   1.059  0.7706 -0.8364  0.1859
   55MOL   C31430662   2.496   4.062   1.061 -0.5908 -0.3836 -0.6689
   55MOL   O31530663   2.446   3.979   0.958 -0.0023  0.5613 -0.1730
   55MOL   C31630664   2.317   3.947   0.951  0.5061  0.3668 -0.1568
   55MOL   O31730665   2.234   3.973   1.041  0.5662 -0.4521  0.0965
   55MOL   C31830666   2.285   3.886   0.819 -0.0954 -0.8260  0.3249
   55MOL   C31930667   2.151   3.864   0.794 -0.1552  0.2168  0.2745
   55MOL   C32030668   2.107   3.803   0.677 -0.6894 -0.0945 -0.1927
   55MOL   C32130669   2.200   3.779   0.578 -0.5300 -0.5475  0.5433
   55MOL   C32230670   2.141   3.719   0.451 -0.2292 -0.2666  0.2763
   55MOL   O32330671   2.019   3.688   0.448  0.3410 -0.2459  0.3114
   55MOL   C32430672   2.336   3.808   0.596 -0.1596 -0.3641  0.0567
   55MOL   C32530673   2.385   3.851   0.722 -0.0136 -0.2660  0.2218
   55MOL   H32630674   2.760   3.810   1.224  0.6912  0.6763 -1.6370
   55MOL   H32730675   2.594   3.868   1.221 -0.5967  2.5410 -0.6528
   55MOL   H32830676   2.685   3.897   1.004  1.0123 -0.6054  0.6114
   55MOL   H32930677   2.830   3.975   1.073 -0.0047 -0.0200 -0.0563
   55MOL   H33030678   2.668   4.168   1.130  1.8195 -1.2844  0.3150
   55MOL   H33130679   2.684   4.138   0.971  2.2423 -0.0876  1.2467
   55MOL   H33230680   2.470   4.027   1.161  1.7805  0.5465  0.3053
   55MOL   H33330681   2.439   4.156   1.055  2.4754  1.5476 -0.6208
   55MOL   H33430682   2.073   3.895   0.861 -0.5923 -3.4637  1.5696
   55MOL   H33530683   2.004   3.784   0.654 -0.1361 -1.0726 -1.9733
   55MOL   H33630684   2.408   3.786   0.519 -0.8718 -3.5287  0.2422
   55MOL   H33730685   2.489   3.875   0.739  0.3052  0.5898 -2.6700
   55MOL   O33830686   2.226   3.695   0.355 -0.2444  0.1933  0.1989
   55MOL   C33930687   2.184   3.636   0.231 -0.9052  0.0520 -0.1160
   55MOL   C34030688   2.244   3.493   0.227 -0.3490 -0.7522  0.1382
   55MOL   C34130689   2.167   3.411   0.130 -0.6751 -0.0158  0.1303
   55MOL   C34230690   2.187   3.438   8.078  0.2196 -0.8245  0.6443
   55MOL   O34330691   2.323   3.427   8.046 -0.2830 -0.0711  0.4670
   55MOL   C34430692   2.375   3.302   8.030 -0.1848 -0.1531  0.0883
   55MOL   O34530693   2.303   3.207   8.030  0.1659  0.3758 -0.7133
   55MOL   C34630694   2.527   3.299   8.027 -0.0363  0.8481  0.6265
   55MOL   C34730695   2.598   3.179   7.982 -1.2367  0.2100  0.1538
   55MOL   C34830696   2.740   3.190   7.969  0.1568  0.4510 -0.2895
   55MOL   C34930697   2.816   3.311   7.972  0.2633 -0.2826  0.8064
   55MOL   C35030698   2.957   3.320   7.951  0.3422 -0.2344  0.3628
   55MOL   O35130699   3.018   3.429   7.934  0.3515  0.2039 -0.3664
   55MOL   C35230700   2.741   3.427   8.021 -0.5179  1.0183 -0.2557
   55MOL   C35330701   2.604   3.421   8.045  0.5601  0.1988 -0.7605
   55MOL   H35430702   2.075   3.631   0.226 -0.8954  0.0848 -0.3771
   55MOL   H35530703   2.221   3.681   0.139 -0.2731 -0.6719 -0.2123
   55MOL   H35630704   2.232   3.449   0.326 -1.5102  0.8388  0.7398
   55MOL   H35730705   2.349   3.496   0.199  0.1335  0.3232  1.9741
   55MOL   H35830706   2.187   3.305   0.145  0.4242  0.4172  1.7796
   55MOL   H35930707   2.059   3.423   0.142 -0.1439  1.6221  3.6179
   55MOL   H36030708   2.130   3.368   8.016 -0.3622  0.5948 -0.4776
   55MOL   H36130709   2.154   3.541   8.060  2.5712  0.1955  1.9344
   55MOL   H36230710   2.545   3.087   7.965  1.0890 -1.1480 -0.0635
   55MOL   H36330711   2.798   3.101   7.954  1.8936  0.8397  3.5313
   55MOL   H36430712   2.790   3.523   8.029 -1.1835  1.3525 -0.1547
   55MOL   H36530713   2.557   3.513   8.076 -2.3153 -0.3969 -3.1326
   55MOL   O36630714   3.010   3.197   7.933 -0.1292 -0.1591 -0.3367
   55MOL   C36730715   3.144   3.179   7.900 -0.2335 -0.3914  0.1148
   55MOL   C36830716   3.225   3.097   8.001 -0.6166  0.6791 -0.3736
   55MOL   C36930717   3.214   2.950   7.997 -0.0324  0.4396  0.2847
   55MOL   C37030718   3.341   2.890   8.062  0.0118  0.5814 -0.5962
   55MOL   O37130719   3.337   2.749   8.069  0.4616 -0.2315  0.3868
   55MOL   C37230720   3.390   2.670   7.971 -0.9841  0.0041 -0.3645
   55MOL   O37330721   3.448   2.722   7.875  0.0870  0.0684 -0.1721
   55MOL   C37430722   3.377   2.524   7.985  0.1758 -0.1526  0.2118
   55MOL   C37530723   3.453   2.438   7.901 -0.0389  0.5221 -0.1181
   55MOL   C37630724   3.421   2.302   7.891 -0.0002  0.8371  1.1180
   55MOL   C37730725   3.320   2.240   7.968  0.7106  0.3741 -0.1070
   55MOL   C37830726   3.286   2.096   7.958  0.0885 -0.2123 -0.7505
   55MOL   O37930727   3.192   2.043   8.013 -0.7704  0.6552  0.1832
   55MOL   C38030728   3.260   2.325   8.062  0.1593  1.2566  0.2458
   55MOL   C38130729   3.288   2.458   8.072 -0.5103 -0.6064  0.0254
   55MOL   H38230730   3.165   3.152   7.796 -1.6373  0.9651 -0.5541
   55MOL   H38330731   3.187   3.279   7.908 -1.4291  0.0771  0.8177
   55MOL   H38430732   3.210   3.133   0.005  0.9522 -1.4699  0.6627
   55MOL   H38530733   3.329   3.110   7.970 -0.1447  0.2937  1.0002
   55MOL   H38630734   3.123   2.921   8.050  0.0093 -1.5489 -0.7079
   55MOL   H38730735   3.197   2.908   7.898  1.2598  0.6020 -0.0188
   55MOL   H38830736   3.420   2.930   7.998  0.5078 -1.2774 -1.2068
   55MOL   H38930737   3.360   2.926   0.064  0.2185 -0.1207 -0.3764
   55MOL   H39030738   3.505   2.473   7.814  2.7803 -2.4317  0.2897
   55MOL   H39130739   3.464   2.245   7.810  0.4137  0.3708  1.6601
   55MOL   H39230740   3.185   2.286   0.031  2.4782  1.3563  2.9753
   55MOL   H39330741   3.237   2.522   0.044  0.9960 -1.0670  1.5540
   55MOL   O39430742   3.388   2.026   7.904  0.4447  0.1824 -0.6537
   55MOL   C39530743   3.381   1.886   7.908 -0.0837 -0.3545 -1.0150
   55MOL   C39630744   3.484   1.843   8.022  0.0036  0.0860  0.0008
   55MOL   C39730745   3.622   1.897   7.986 -0.4277 -0.1580 -0.0370
   55MOL   C39830746   3.680   1.841   7.859 -0.3992  0.1610  0.0935
   55MOL   O39930747   3.664   1.939   7.764  0.2647 -0.3553  0.1160
   55MOL   C40030748   3.661   1.907   7.630 -0.8908 -0.1762 -0.3248
   55MOL   O40130749   3.659   1.789   7.592  0.0441 -0.3587  0.0545
   55MOL   C40230750   3.656   2.023   7.540  0.5550  0.1415 -1.0067
   55MOL   C40330751   3.662   2.160   7.579  0.0739 -0.3846 -0.3712
   55MOL   C40430752   3.647   2.267   7.484  0.5747  1.5185 -0.2206
   55MOL   C40530753   3.648   2.243   7.348  0.0920 -0.5278  0.2753
   55MOL   C40630754   3.657   2.356   7.246  0.1808 -0.1026  1.1297
   55MOL   O40730755   3.660   2.474   7.276 -0.1425  0.1828 -0.0639
   55MOL   C40830756   3.646   2.103   7.311 -0.1115  0.0738  0.3639
   55MOL   C40930757   3.644   1.996   7.402 -0.3803  0.5610 -0.1004
   55MOL   H41030758   3.285   1.839   7.929 -0.4131 -0.3597 -2.4665
   55MOL   H41130759   3.413   1.852   7.810  1.4646 -0.9097 -0.3394
   55MOL   H41230760   3.491   1.734   8.027  2.0399  0.0977 -1.9085
   55MOL   H41330761   3.450   1.882   0.019 -1.2754 -1.0619  0.0429
   55MOL   H41430762   3.624   2.006   7.988  1.1300 -0.1980  2.2340
   55MOL   H41530763   3.693   1.869   8.063  0.3562 -0.9920 -1.0379
   55MOL   H41630764   3.787   1.819   7.856 -0.7442 -1.6990  0.3685
   55MOL   H41730765   3.622   1.750   7.846  0.1898 -0.2507  0.2977
   55MOL   H41830766   3.667   2.193   7.682 -0.9739 -1.5271  0.0645
   55MOL   H41930767   3.636   2.369   7.518 -0.9702  1.3054 -0.0492
   55MOL   H42030768   3.658   2.077   7.207  0.6053  1.0986  0.1889
   55MOL   H42130769   3.662   1.896   7.365 -1.9188 -0.0019  0.6289
   55MOL   O42230770   3.655   2.322   7.119  0.3451 -0.0981  0.2502
   55MOL   C42330771   3.665   2.413   7.011 -0.1403  0.0884  0.9043
   55MOL   C42430772   3.735   2.350   6.892  0.6443  0.0961 -0.6310
   55MOL   C42530773   3.871   2.284   6.913 -0.4695 -0.2919  0.4691
   55MOL   C42630774   3.990   2.380   6.903  0.6280 -0.9598 -0.4422
   55MOL   O42730775   3.968   2.490   6.984 -0.4466  0.0372 -0.1040
   55MOL   C42830776   4.011   2.491   7.112 -0.4093  0.3298  0.1642
   55MOL   O42930777   4.069   2.393   7.161  0.3622 -0.4560 -0.6791
   55MOL   C43030778   3.969   2.611   7.182 -0.4959  0.0736 -0.1278
   55MOL   C43130779   3.917   2.717   7.108 -0.4372  0.5796 -0.1688
   55MOL   C43230780   3.874   2.835   7.177 -0.6510  0.5948  0.7009
   55MOL   C43330781   3.888   2.848   7.318 -0.5256 -0.4162 -0.0546
   55MOL   C43430782   3.852   2.976   7.388 -1.3955 -0.4771  0.7681
   55MOL   O43530783   3.872   2.992   7.508 -0.2608  0.3066  0.6798
   55MOL   C43630784   3.933   2.736   7.389 -0.2559 -0.2234 -0.2517
   55MOL   C43730785   3.978   2.617   7.321  0.0050 -0.2274 -0.5499
   55MOL   H43830786   3.565   2.450   6.985 -0.0431  0.1588  0.6233
   55MOL   H43930787   3.722   2.498   7.049 -0.0387 -0.1489  1.2834
   55MOL   H44030788   3.740   2.438   6.827 -0.3982  0.1774 -0.6140
   55MOL   H44130789   3.678   2.269   6.847 -1.7359  1.0052  0.6760
   55MOL   H44230790   3.865   2.241   7.013  2.8667  0.0853  0.8721
   55MOL   H44330791   3.891   2.213   6.833 -0.6571  0.3860 -0.1867
   55MOL   H44430792   4.086   2.336   6.931  1.2497  1.5023  1.4707
   55MOL   H44530793   4.018   2.414   6.803 -0.0174  2.0849  0.3511
   55MOL   H44630794   3.899   2.717   7.002  1.9621 -0.6972 -0.6135
   55MOL   H44730795   3.828   2.913   7.118 -2.3524 -0.1949  0.9243
   55MOL   H44830796   3.949   2.741   7.495  0.4419  1.0570 -0.4055
   55MOL   H44930797   4.010   2.534   7.382  0.8155 -0.2913 -1.0660
   55MOL   O45030798   3.817   3.060   7.300  0.0842  0.0556 -0.6706
   55MOL   C45130799   3.750   3.178   7.342 -0.7051  0.0864  0.5220
   55MOL   C45230800   3.853   3.288   7.382 -0.4387 -0.3781 -0.2872
   55MOL   C45330801   3.822   3.342   7.521  0.6600  0.4938 -0.2258
   55MOL   C45430802   3.917   3.458   7.566 -0.3756 -0.1213  0.3700
   55MOL   O45530803   4.044   3.442   7.510 -0.1891 -0.5542 -0.5056
   55MOL   C45630804   4.145   3.382   7.579 -0.1010  1.2064  0.6153
   55MOL   O45730805   4.129   3.343   7.695  0.1247  0.5038  0.4856
   55MOL   C45830806   4.269   3.356   7.499 -0.6972 -0.0402  0.0954
   55MOL   C45930807   4.296   3.431   7.387 -0.3496  0.6584 -0.6800
   55MOL   C46030808   4.409   3.417   7.304 -0.1130 -0.4125  0.0372
   55MOL   C46130809   4.505   3.314   7.331 -0.2928 -0.3089 -0.2111
   55MOL   C46230810   4.627   3.295   7.239 -0.6759  0.2993  0.6266
   55MOL   O46330811   4.661   3.378   7.160 -0.3701  0.3307  0.0361
   55MOL   C46430812   4.479   3.236   7.449  0.0007 -0.8382 -0.0285
   55MOL   C46530813   4.369   3.261   7.534  0.3737 -0.1578 -0.0312
   55MOL   H46630814   3.693   3.213   7.256  0.1318 -2.0588 -0.9408
   55MOL   H46730815   3.674   3.139   7.411 -1.1186 -0.0850 -0.0281
   55MOL   H46830816   3.850   3.362   7.302  0.0409  0.5278  0.5223
   55MOL   H46930817   3.952   3.244   7.369 -0.0151  1.0453 -2.1933
   55MOL   H47030818   3.714   3.356   7.529  0.1997 -2.0897 -1.0776
   55MOL   H47130819   3.840   3.264   7.595 -0.0301  0.5016 -0.0504
   55MOL   H47230820   3.891   3.553   7.519  1.7179  0.0890 -0.4187
   55MOL   H47330821   3.924   3.477   7.673  1.2304  1.5007  0.0054
   55MOL   H47430822   4.226   3.507   7.356  0.0541  2.6028  2.8392
   55MOL   H47530823   4.430   3.469   7.212  2.8535  1.0126  1.4286
   55MOL   H47630824   4.546   3.157   7.481 -1.2864 -1.0506  2.2935
   55MOL   H47730825   4.356   3.201   7.622  3.3422  0.2515  0.7387
   55MOL   O47830826   4.694   3.180   7.255  0.6719  0.4428 -0.0709
   55MOL   C47930827   4.797   3.135   7.165  0.5577 -0.5952  0.0490
   55MOL   C48030828   4.790   2.983   7.160  1.0120 -0.4430  1.1109
   55MOL   C48130829   4.656   2.918   7.120 -0.6341  0.0711 -0.1770
   55MOL   C48230830   4.616   2.951   6.976  0.1198  0.0093  0.0491
   55MOL   O48330831   4.548   3.084   6.981 -0.5438 -0.7745  0.5007
   55MOL   C48430832   4.570   3.173   6.884  0.1549  0.2027  0.2180
   55MOL   O48530833   4.657   3.153   6.801  0.1613  0.1897 -0.2997
   55MOL   C48630834   4.473   3.285   6.888 -0.1442 -0.4052  0.1727
   55MOL   C48730835   4.383   3.312   6.994 -0.0306  0.5532 -0.3961
   55MOL   C48830836   4.298   3.429   6.990  0.1451 -0.2186 -0.3163
   55MOL   C48930837   4.288   3.503   6.871 -0.0684  0.1901 -0.3492
   55MOL   C49030838   4.199   3.624   6.865  0.4249 -0.1386 -0.9150
   55MOL   O49130839   4.169   3.688   6.764  0.5326  0.2195 -0.0146
   55MOL   C49230840   4.380   3.481   6.771  0.1253 -0.3679 -0.2716
   55MOL   C49330841   4.471   3.376   6.783 -0.0618 -0.8196  1.3538
   55MOL   H49430842   4.771   3.171   7.066  2.5881  1.8361  0.3462
   55MOL   H49530843   4.895   3.172   7.194  0.5005 -0.0483 -0.4485
   55MOL   H49630844   4.811   2.942   7.259 -2.0324 -1.3691  1.4052
   55MOL   H49730845   4.872   2.952   7.095 -1.8094 -2.2811 -1.6655
   55MOL   H49830846   4.650   2.810   7.135  4.4840 -0.7876 -3.2399
   55MOL   H49930847   4.578   2.958   7.184 -3.1785 -2.1560 -1.7973
   55MOL   H50030848   4.701   2.944   6.909  0.6789  0.0334  0.7600
   55MOL   H50130849   4.546   2.877   6.937  0.1285 -0.2151  0.4611
   55MOL   H50230850   4.388   3.239   7.074 -0.5791 -0.9938 -1.7676
   55MOL   H50330851   4.240   3.452   7.078 -0.6845  1.2934 -1.2411
   55MOL   H50430852   4.384   3.547   6.686  1.9779 -2.5920 -1.9633
   55MOL   H50530853   4.541   3.356   6.703 -0.2208 -1.7613  1.4482
   55MOL   O50630854   4.168   3.668   6.988  0.1342  0.4728  0.9503
   55MOL   C50730855   4.097   3.785   7.012  0.4956 -0.6221 -0.1905
   55MOL   C50830856   4.039   3.784   7.153 -0.8349 -0.2701  0.4016
   55MOL   C50930857   4.042   3.920   7.221 -1.2271  0.0740 -0.9718
   55MOL   C51030858   3.977   3.903   7.362 -0.8341  0.1078  0.2970
   55MOL   O51130859   3.994   4.002   7.453 -0.1132 -0.2218  0.9025
   55MOL   C51230860   3.909   4.110   7.438  0.0784 -0.2635 -0.7074
   55MOL   O51330861   3.832   4.123   7.347  0.5451  0.3211 -0.5349
   55MOL   C51430862   3.924   4.204   7.551 -0.1454  0.6396  0.4062
   55MOL   C51530863   3.839   4.317   7.552  0.6631  0.3284 -0.4126
   55MOL   C51630864   3.859   4.419   7.650 -0.2319  0.3846 -0.2415
   55MOL   C51730865   3.950   4.400   7.760 -0.3735  0.8062  0.1863
   55MOL   C51830866   3.980   4.499   7.863 -0.1201 -0.0140 -0.7536
   55MOL   O51930867   4.044   4.479   7.964  0.0494  0.0802  0.2933
   55MOL   C52030868   4.033   4.282   7.754  0.1384 -0.0563 -0.7010
   55MOL   C52130869   4.028   4.191   7.649  0.2924  0.1018 -0.9132
   55MOL   H52230870   4.169   3.867   7.006  3.0247 -2.6663  1.2214
   55MOL   H52330871   4.015   3.787   6.940 -1.0585  2.3128  1.5237
   55MOL   H52430872   4.088   3.711   7.218 -0.8984  0.1070  0.8667
   55MOL   H52530873   3.937   3.744   7.156 -0.9832 -0.2355 -2.4575
   55MOL   H52630874   4.143   3.958   7.231 -0.4849 -1.7664 -1.1629
   55MOL   H52730875   3.984   3.986   7.157  0.2788  0.8756 -1.5345
   55MOL   H52830876   3.871   3.879   7.350 -0.1567 -2.0331 -1.9326
   55MOL   H52930877   4.025   3.817   7.408  0.9826  1.0475  0.2036
   55MOL   H53030878   3.765   4.329   7.475 -1.4394 -1.9578  1.1798
   55MOL   H53130879   3.799   4.508   7.641 -1.5771 -0.3164  1.5238
   55MOL   H53230880   4.100   4.269   7.837 -1.0006  0.7332  0.3559
   55MOL   H53330881   4.082   4.099   7.667 -0.2854 -0.4000 -1.7189
   55MOL   O53430882   3.924   4.619   7.826 -0.1736  0.2771 -0.1284
   55MOL   C53530883   3.895   4.713   7.925 -0.4119  0.0889  0.3190
   55MOL   C53630884   3.791   4.665   8.029  0.0308 -0.4261  0.3778
   55MOL   C53730885   3.661   4.622   7.960 -0.0369  0.3453 -0.6507
   55MOL   C53830886   3.600   4.715   7.854  0.4588 -0.4907 -0.6993
   55MOL   O53930887   3.579   4.847   7.902  0.1769 -0.3992 -0.1733
   55MOL   C54030888   3.451   4.872   7.935  0.0027 -0.2600 -0.7656
   55MOL   O54130889   3.361   4.794   7.936  0.1446  0.8050  0.0428
   55MOL   C54230890   3.426   5.012   7.978  0.2266 -0.1772 -0.5998
   55MOL   C54330891   3.313   5.049   8.054  0.0140  0.4141  0.2052
   55MOL   C54430892   3.301   5.184   0.004  0.4672  0.8486 -0.0613
   55MOL   C54530893   3.398   5.279   8.067  0.7611 -1.2791 -0.5331
   55MOL   C54630894   3.380   5.415   0.020 -0.1387 -0.4742 -0.2493
   55MOL   O54730895   3.469   5.505   0.030 -0.1026 -0.3097 -0.1095
   55MOL   C54830896   3.511   5.241   7.998  0.3444 -0.7023 -0.2465
   55MOL   C54930897   3.524   5.114   7.954 -0.8392  0.4700 -0.1605
   55MOL   H55030898   3.986   4.745   7.978 -1.8538  3.6595  0.8120
   55MOL   H55130899   3.857   4.809   7.888 -0.1621  0.1757  0.2810
   55MOL   H55230900   3.764   4.751   8.091  0.3919  0.6602 -0.9341
   55MOL   H55330901   3.831   4.581   8.086 -0.7045 -1.6378 -0.8545
   55MOL   H55430902   3.683   4.524   7.919 -2.1630 -0.1415 -0.6708
   55MOL   H55530903   3.586   4.604   8.038 -0.4094 -0.9698 -1.3040
   55MOL   H55630904   3.669   4.715   7.769 -0.9535 -2.4139 -1.8672
   55MOL   H55730905   3.511   4.663   7.819 -0.5819  1.3904 -0.9593
   55MOL   H55830906   3.236   4.979   8.083 -0.9818  0.6233 -1.8359
   55MOL   H55930907   3.215   5.191   0.069  0.1631 -0.0395 -0.3613
   55MOL   H56030908   3.575   5.323   7.967  0.3981  0.5866  3.0074
   55MOL   H56130909   3.613   5.090   7.897 -2.4509 -1.6929 -1.8769
   55MOL   H56230910   3.279   5.432   0.057 -1.0427 -1.7999 -2.0171
   56MOL     O130911   6.049   1.003   1.020 -0.6154  0.4874 -0.5141
   56MOL     C230912   6.152   1.061   0.941  0.7861  0.2017 -0.7077
   56MOL     C330913   6.257   0.956   0.919 -1.1858  0.3917 -0.0434
   56MOL     C430914   6.364   0.998   0.822 -0.2249 -0.4147 -0.0345
   56MOL     C530915   6.471   0.898   0.796  0.4020 -0.7166  0.4743
   56MOL     O630916   6.582   0.956   0.719  0.1798 -0.1347  0.1492
   56MOL     C730917   6.705   0.926   0.759  0.1569  0.0673  0.6273
   56MOL     O830918   6.728   0.883   0.874  0.1899  0.5180  0.1225
   56MOL     C930919   6.816   0.950   0.661 -0.2125 -0.4348 -0.1306
   56MOL    C1030920   6.788   0.990   0.523  0.4818 -0.4611 -0.2535
   56MOL    C1130921   6.894   0.997   0.428  0.7784 -0.9468  0.3649
   56MOL    C1230922   7.030   0.977   0.470 -0.8629 -0.0362 -0.4405
   56MOL    C1330923   7.134   0.978   0.367 -0.3756  0.3294 -0.1452
   56MOL    O1430924   7.116   1.011   0.247  0.0616 -0.3786  0.5287
   56MOL    C1530925   7.055   0.952   0.606 -0.4979 -0.2691 -0.2456
   56MOL    C1630926   6.954   0.931   0.697 -0.4946 -0.0692 -0.1439
   56MOL    H1730927   6.106   1.095   0.848 -1.6839 -0.7128  0.1254
   56MOL    H1830928   6.198   1.139   1.003  0.7671  0.2172 -0.7130
   56MOL    H1930929   6.207   0.865   0.883  0.4557 -0.3329 -0.5563
   56MOL    H2030930   6.303   0.931   1.014 -0.2538  0.2595 -0.5196
   56MOL    H2130931   6.322   1.014   0.723 -0.4671 -1.8964 -0.1828
   56MOL    H2230932   6.411   1.092   0.851  0.9756 -1.5198  1.6595
   56MOL    H2330933   6.511   0.858   0.889  1.4290 -0.3385  0.2017
   56MOL    H2430934   6.431   0.816   0.736 -1.0556  1.9119 -2.2702
   56MOL    H2530935   6.689   1.014   0.487  0.5977 -2.0182 -1.7122
   56MOL    H2630936   6.878   1.018   0.323 -0.1097 -1.2815  0.4304
   56MOL    H2730937   7.156   0.935   0.642 -0.7649 -2.2106 -0.3436
   56MOL    H2830938   6.980   0.927   0.801  0.7754 -0.8868 -0.4928
   56MOL    H2930939   6.045   1.050   1.102  3.4185  3.7704 -2.0261
   56MOL    O3030940   7.257   0.935   0.410  0.5083  0.0706  0.3720
   56MOL    C3130941   7.374   0.944   0.332  0.0990  1.2460 -0.9058
   56MOL    C3230942   7.402   0.825   0.246 -0.2530 -0.3098  0.4591
   56MOL    C3330943   7.424   0.867   0.105 -0.1795 -0.3664 -0.5544
   56MOL    C3430944   7.455   0.746   0.018  0.2719 -0.0688 -0.1685
   56MOL    O3530945   7.587   0.702   0.047 -0.1625  0.5507  0.3702
   56MOL    C3630946   7.642   0.625   8.048 -0.1014 -0.1776 -0.8521
   56MOL    O3730947   7.586   0.608   7.941 -0.0054 -0.0102 -0.2577
   56MOL    C3830948   7.769   0.555   8.081 -0.8680 -0.6561 -0.0356
   56MOL    C3930949   7.804   0.544   0.120  0.5525  0.5864 -0.1728
   56MOL    C4030950   7.937   0.511   0.144 -0.2967 -0.7087 -0.2924
   56MOL    C4130951   8.033   0.489   0.043 -0.2447 -0.6604  0.8333
   56MOL    C4230952   0.075   0.439   0.069 -0.0499 -0.5564 -0.1064
   56MOL    O4330953   0.145   0.392   8.076 -0.0087 -0.1943 -0.7241
   56MOL    C4430954   7.993   0.502   8.010 -0.2544 -0.1591  0.9834
   56MOL    C4530955   7.860   0.529   7.975  0.4759  0.5516 -0.8334
   56MOL    H4630956   7.360   1.039   0.280  0.7573  1.7748 -0.1268
   56MOL    H4730957   7.448   0.962   0.410  0.7529 -0.1856 -1.1881
   56MOL    H4830958   7.314   0.761   0.247 -0.6760  0.2742  0.7158
   56MOL    H4930959   7.481   0.764   0.289  0.0888 -0.1166  0.1110
   56MOL    H5030960   7.334   0.914   0.064  0.5155  1.2117 -0.3276
   56MOL    H5130961   7.498   0.947   0.096 -0.0165 -0.7083 -2.5065
   56MOL    H5230962   7.391   0.659   0.037  3.8988 -2.6703  0.7000
   56MOL    H5330963   7.439   0.757   8.009 -0.5678 -0.3248 -0.0807
   56MOL    H5430964   7.736   0.566   0.201  2.7627  1.6458  1.4615
   56MOL    H5530965   7.966   0.506   0.248  1.4862  0.8104 -0.7100
   56MOL    H5630966   8.068   0.495   7.933 -1.5310 -1.3601 -0.1789
   56MOL    H5730967   7.839   0.535   7.869 -1.1350  0.5973 -0.5194
   56MOL    O5830968   0.112   0.453   0.198 -0.2794  0.3775  0.4190
   56MOL    C5930969   0.247   0.426   0.230 -0.4384  0.1925  0.3359
   56MOL    C6030970   0.271   0.451   0.381 -0.1228  0.0213  0.2905
   56MOL    C6130971   0.409   0.511   0.404  0.0713  0.0268  0.6233
   56MOL    C6230972   0.472   0.459   0.541 -0.0811 -0.4183  0.4986
   56MOL    O6330973   0.574   0.554   0.557 -0.1333  0.0627 -0.7693
   56MOL    C6430974   0.647   0.566   0.667  0.5644 -0.1259 -0.1578
   56MOL    O6530975   0.656   0.484   0.760 -0.2629 -0.0241 -0.3304
   56MOL    C6630976   0.728   0.689   0.666 -0.0324  0.2357 -0.5178
   56MOL    C6730977   0.833   0.706   0.758 -0.0360  0.0023 -0.2228
   56MOL    C6830978   0.924   0.812   0.745 -0.8862 -0.6182 -0.2769
   56MOL    C6930979   0.914   0.912   0.642  0.0044 -0.1067  0.1614
   56MOL    C7030980   1.011   1.031   0.636  0.4775  0.2400  0.3871
   56MOL    O7130981   1.025   1.105   0.546 -0.1921 -0.1268 -0.7736
   56MOL    C7230982   0.800   0.900   0.560  0.3107 -0.1283  0.2916
   56MOL    C7330983   0.709   0.788   0.571  0.4992 -0.5643  0.4813
   56MOL    H7430984   0.282   0.328   0.196 -0.9746  0.0445  0.2064
   56MOL    H7530985   0.305   0.497   0.171 -0.5265  1.8264  2.1650
   56MOL    H7630986   0.263   0.365   0.448 -2.5616  0.0769  0.1373
   56MOL    H7730987   0.200   0.520   0.426  1.6046  0.2240  2.8016
   56MOL    H7830988   0.480   0.483   0.326 -0.8249  1.7564 -0.8689
   56MOL    H7930989   0.402   0.620   0.409  0.2630  0.0941 -0.4350
   56MOL    H8030990   0.401   0.459   0.623 -1.5776  0.0051 -0.7728
   56MOL    H8130991   0.508   0.357   0.528 -0.7434 -0.7007  0.8969
   56MOL    H8230992   0.861   0.628   0.826 -1.0004 -0.0958  0.0605
   56MOL    H8330993   1.008   0.827   0.811  0.2280  1.8797 -2.1817
   56MOL    H8430994   0.788   0.974   0.482  3.5176 -0.2590 -0.3984
   56MOL    H8530995   0.628   0.789   0.500  1.2670 -0.0157 -0.4066
   56MOL    O8630996   1.088   1.049   0.746  0.0095  0.0305  0.3568
   56MOL    C8730997   1.187   1.155   0.741 -0.1872 -0.2981 -0.0806
   56MOL    C8830998   1.265   1.169   0.873  0.2612  0.5169  0.0349
   56MOL    C8930999   1.351   1.045   0.905  0.0615 -0.0797 -0.9731
   56MOL    C9031000   1.425   1.071   1.042 -0.1896 -0.7442 -0.0168
   56MOL    O9131001   1.531   1.161   1.022 -0.5419  0.4957 -0.4182
   56MOL    C9231002   1.521   1.288   1.044 -0.2978  0.7242 -0.3811
   56MOL    O9331003   1.419   1.336   1.094 -0.2524  0.0636 -0.3779
   56MOL    C9431004   1.647   1.363   1.009  0.0767  0.0774 -0.4464
   56MOL    C9531005   1.642   1.507   1.008  0.1028 -0.2941 -0.1529
   56MOL    C9631006   1.758   1.584   0.985 -0.4147 -0.3988  0.2766
   56MOL    C9731007   1.882   1.515   0.957  0.2947  1.0339 -1.0356
   56MOL    C9831008   2.009   1.589   0.926 -0.1810 -0.6096  0.9586
   56MOL    O9931009   2.088   1.546   0.840  0.2811 -0.1991  0.3397
   56MOL   C10031010   1.887   1.372   0.962 -0.5809 -0.0744  0.1395
   56MOL   C10131011   1.769   1.295   0.998 -1.0919  0.3515 -0.8899
   56MOL   H10231012   1.265   1.136   0.668 -0.2345  1.7864 -0.7033
   56MOL   H10331013   1.145   1.251   0.712 -0.0888  0.0125  0.7898
   56MOL   H10431014   1.196   1.193   0.954  1.7134  0.1267  1.4273
   56MOL   H10531015   1.338   1.248   0.853  2.1818 -0.7219  1.9469
   56MOL   H10631016   1.284   0.960   0.921  1.7364 -0.9112  2.0250
   56MOL   H10731017   1.421   1.018   0.826  0.7515  0.7054 -0.6379
   56MOL   H10831018   1.347   1.101   1.112  1.3262  3.0267  0.2040
   56MOL   H10931019   1.467   0.978   1.079 -2.1986 -1.7113 -0.1225
   56MOL   H11031020   1.547   1.554   1.026  0.7129  1.6157 -1.7081
   56MOL   H11131021   1.759   1.692   0.984  1.4099 -0.4071 -1.0956
   56MOL   H11231022   1.983   1.329   0.938 -0.2135  1.8588 -2.0316
   56MOL   H11331023   1.784   1.189   1.011  2.8534  0.8593 -0.7455
   56MOL   O11431024   2.026   1.693   1.010 -0.2072 -0.0874 -0.3465
   56MOL   C11531025   2.147   1.752   1.024 -0.0283  0.3978  0.2189
   56MOL   C11631026   2.122   1.908   1.012 -0.7718 -0.0867  0.1493
   56MOL   C11731027   2.031   1.961   1.124 -0.0981 -0.4850 -0.7067
   56MOL   C11831028   2.002   2.107   1.113 -0.4854 -0.3337  0.4026
   56MOL   O11931029   1.904   2.140   1.214  0.0365  0.0903  0.2573
   56MOL   C12031030   1.856   2.264   1.223  0.5126 -0.2025 -0.2985
   56MOL   O12131031   1.896   2.358   1.162  0.5076  0.2750 -0.5350
   56MOL   C12231032   1.737   2.272   1.312  0.1130  0.3716 -0.1372
   56MOL   C12331033   1.706   2.154   1.391 -0.5496  0.2990 -0.8700
   56MOL   C12431034   1.590   2.161   1.467 -0.6707  0.8233 -0.0952
   56MOL   C12531035   1.505   2.274   1.477  0.1312 -0.4329  0.6734
   56MOL   C12631036   1.403   2.287   1.588  0.1686  0.1378  0.3228
   56MOL   O12731037   1.353   2.392   1.625  0.1311 -0.6506 -0.3448
   56MOL   C12831038   1.536   2.380   1.393 -0.2254 -0.1541  0.5874
   56MOL   C12931039   1.652   2.386   1.313 -0.2892  0.2239  0.6333
   56MOL   H13031040   2.213   1.728   1.108  0.6678  0.2019 -0.3739
   56MOL   H13131041   2.223   1.738   0.947 -1.5153 -0.6567 -1.0908
   56MOL   H13231042   2.080   1.919   0.913  0.4628 -2.3172 -0.6653
   56MOL   H13331043   2.220   1.957   1.004 -0.2343 -1.2088 -0.2288
   56MOL   H13431044   1.931   1.920   1.117 -0.4042  0.4333 -1.7529
   56MOL   H13531045   2.072   1.923   1.218  0.3423  1.8609  0.0988
   56MOL   H13631046   2.088   2.173   1.106 -0.4112 -0.6804 -2.3242
   56MOL   H13731047   1.954   2.120   1.016  2.1037  0.6082 -0.7901
   56MOL   H13831048   1.757   2.058   1.394 -1.9414 -0.4084  1.5391
   56MOL   H13931049   1.570   2.079   1.534 -0.2127 -0.5664 -1.6363
   56MOL   H14031050   1.477   2.470   1.398 -0.9017 -0.5704  0.1503
   56MOL   H14131051   1.669   2.480   1.262  1.4995  0.6309  1.9201
   56MOL   O14231052   1.387   2.164   1.645  0.7809 -0.4208 -0.4210
   56MOL   C14331053   1.301   2.160   1.759  0.1428 -0.3071 -0.0235
   56MOL   C14431054   1.243   2.020   1.773  0.6541 -0.2198  0.0466
   56MOL   C14531055   1.341   1.919   1.801 -0.3679  0.8656  0.1744
   56MOL   C14631056   1.287   1.769   1.808 -0.3569 -0.1128 -0.8695
   56MOL   O14731057   1.406   1.689   1.814  0.0933  0.0890  0.2721
   56MOL   C14831058   1.415   1.581   1.896  0.1683 -0.5256  0.4810
   56MOL   O14931059   1.321   1.543   1.968 -0.4595 -0.5040 -0.1835
   56MOL   C15031060   1.549   1.510   1.887  0.5053  0.0900 -0.8605
   56MOL   C15131061   1.571   1.399   1.966 -0.1221  0.2242  0.2569
   56MOL   C15231062   1.701   1.335   1.967 -0.8616 -0.3118 -0.4431
   56MOL   C15331063   1.802   1.371   1.877  0.5375 -0.5902 -0.0999
   56MOL   C15431064   1.933   1.304   1.878 -0.8899  0.0778 -0.0281
   56MOL   O15531065   1.950   1.198   1.945  0.2056 -0.2437  0.1800
   56MOL   C15631066   1.768   1.478   1.788  0.3473 -0.8219  0.2392
   56MOL   C15731067   1.649   1.550   1.798  0.5476 -0.0535  0.0593
   56MOL   H15831068   1.368   2.176   1.844  0.1587 -0.3492 -0.0282
   56MOL   H15931069   1.225   2.238   1.763 -0.4732 -0.7837 -1.8598
   56MOL   H16031070   1.188   2.003   1.680 -0.8656  1.2708  0.6583
   56MOL   H16131071   1.167   2.022   1.851  0.6126 -2.1337  0.0975
   56MOL   H16231072   1.417   1.926   1.722  0.9413  0.4439  1.3706
   56MOL   H16331073   1.391   1.944   1.894  2.2136 -0.3790 -0.8171
   56MOL   H16431074   1.229   1.751   1.898 -0.0140 -1.7580 -0.9647
   56MOL   H16531075   1.229   1.749   1.718 -0.1223  0.6365 -1.1946
   56MOL   H16631076   1.492   1.359   2.028 -0.2059  0.1709  0.1155
   56MOL   H16731077   1.719   1.255   2.038 -3.1704 -1.5093 -1.1748
   56MOL   H16831078   1.838   1.507   1.711  2.0832 -0.9031  1.7581
   56MOL   H16931079   1.646   1.625   1.720  1.0820  0.9420  0.9820
   56MOL   O17031080   2.028   1.373   1.818  0.0005 -0.5027 -0.0101
   56MOL   C17131081   2.163   1.330   1.823 -0.6089 -0.6323 -0.3376
   56MOL   C17231082   2.195   1.202   1.734 -0.2986  0.2106  0.5621
   56MOL   C17331083   2.190   1.241   1.584  0.3275 -0.0379 -0.4467
   56MOL   C17431084   2.225   1.125   1.492 -0.0282  0.8328  0.4327
   56MOL   O17531085   2.327   1.030   1.528 -0.1512  0.4059 -0.3366
   56MOL   C17631086   2.446   1.014   1.460 -0.2836  0.2596 -0.6483
   56MOL   O17731087   2.473   1.068   1.356  0.1952 -0.1273  0.1715
   56MOL   C17831088   2.544   0.922   1.536  0.2018 -0.2454  0.3892
   56MOL   C17931089   2.649   0.871   1.466 -0.3865 -0.2871  0.9306
   56MOL   C18031090   2.740   0.784   1.527 -0.1561 -0.1826 -0.7027
   56MOL   C18131091   2.720   0.739   1.660  0.1188  0.1264 -0.1941
   56MOL   C18231092   2.824   0.651   1.732  0.5816  0.0401 -0.6826
   56MOL   O18331093   2.829   0.629   1.856  0.6565 -0.2743  0.0968
   56MOL   C18431094   2.605   0.788   1.734  0.0490 -0.4717  0.2399
   56MOL   C18531095   2.519   0.878   1.673 -0.7457 -0.2185 -0.7471
   56MOL   H18631096   2.230   1.414   1.804  1.3390 -1.5766  1.9879
   56MOL   H18731097   2.201   1.300   1.921  1.2282 -1.1732 -1.1919
   56MOL   H18831098   2.123   1.125   1.762 -1.0261  0.9235  0.6677
   56MOL   H18931099   2.293   1.158   1.754  0.5765  0.7589 -2.2466
   56MOL   H19031100   2.087   1.273   1.571 -0.0509 -0.5196  1.2301
   56MOL   H19131101   2.253   1.329   1.571  2.7131 -1.3200  1.6800
   56MOL   H19231102   2.135   1.066   1.472 -0.6314  1.8462  0.1034
   56MOL   H19331103   2.255   1.158   1.393 -2.3780  1.2010 -0.2004
   56MOL   H19431104   2.665   0.907   1.366  1.3552 -0.7909  1.0083
   56MOL   H19531105   2.822   0.751   1.465  0.5554  0.4577 -0.1221
   56MOL   H19631106   2.589   0.744   1.831  1.5023 -0.5784  0.4445
   56MOL   H19731107   2.427   0.912   1.717  0.1948  1.7691 -0.2899
   56MOL   O19831108   2.912   0.607   1.641  0.1336  0.0237  0.4229
   56MOL   C19931109   3.025   0.542   1.687 -0.8998 -0.4969  0.3388
   56MOL   C20031110   3.131   0.544   1.580  0.4011 -0.5155 -0.2417
   56MOL   C20131111   3.099   0.481   1.446 -0.5593 -0.3446  0.1352
   56MOL   C20231112   3.188   0.522   1.324 -0.3663 -0.0262  0.5395
   56MOL   O20331113   3.197   0.669   1.297 -0.3662 -0.0528  0.3760
   56MOL   C20431114   3.309   0.717   1.230  0.2650 -0.0172  0.1088
   56MOL   O20531115   3.396   0.641   1.188  0.1697 -1.0073 -0.2805
   56MOL   C20631116   3.325   0.866   1.236  0.0903 -0.4042 -0.3072
   56MOL   C20731117   3.224   0.951   1.304  0.0527  0.6605 -0.3629
   56MOL   C20831118   3.257   1.086   1.328  0.4304 -0.6040 -0.5672
   56MOL   C20931119   3.368   1.148   1.285 -0.2613  0.0308 -0.8020
   56MOL   C21031120   3.398   1.290   1.326 -0.0957 -0.2793  0.4186
   56MOL   O21131121   3.339   1.360   1.405  0.2052  0.3629 -0.2910
   56MOL   C21231122   3.462   1.068   1.214 -0.0334 -0.2074 -0.4518
   56MOL   C21331123   3.443   0.928   1.194 -0.3683  0.0171  0.1692
   56MOL   H21431124   3.050   0.586   1.784 -0.9118  2.0055 -0.7439
   56MOL   H21531125   2.994   0.439   1.706 -1.3305 -0.5208 -0.4898
   56MOL   H21631126   3.228   0.506   1.612  0.1223 -2.2664 -1.4358
   56MOL   H21731127   3.140   0.650   1.555  0.1042 -0.1792  1.0461
   56MOL   H21831128   3.105   0.374   1.464  1.1034 -0.4274 -0.8821
   56MOL   H21931129   2.992   0.489   1.424  0.0072 -0.2135 -2.7706
   56MOL   H22031130   3.284   0.484   1.359 -0.7900 -1.1242  0.5256
   56MOL   H22131131   3.168   0.478   1.226 -1.1222 -1.1772  1.1893
   56MOL   H22231132   3.133   0.909   1.344  1.0688  1.1229  2.5618
   56MOL   H22331133   3.177   1.151   1.363 -0.6487 -1.3052 -1.6839
   56MOL   H22431134   3.546   1.120   1.171 -0.2229 -1.7194 -2.7416
   56MOL   H22531135   3.525   0.872   1.152  0.1316  0.7082  0.2093
   56MOL   O22631136   3.491   1.337   1.251  0.1164 -0.2349  0.3118
   56MOL   C22731137   3.542   1.469   1.270  0.2044 -0.9354 -0.5728
   56MOL   C22831138   3.624   1.497   1.145 -0.9195  0.3425 -0.3617
   56MOL   C22931139   3.531   1.509   1.024  0.5647  0.0172 -1.1174
   56MOL   C23031140   3.457   1.647   1.010  0.4542 -0.0730  0.0513
   56MOL   O23131141   3.329   1.646   1.077  0.2810 -0.2316 -0.2081
   56MOL   C23231142   3.235   1.744   1.070  0.3014 -0.4086 -0.8290
   56MOL   O23331143   3.233   1.829   0.980 -0.3421 -0.2842  0.3525
   56MOL   C23431144   3.135   1.745   1.182  0.7440 -0.3651  0.3445
   56MOL   C23531145   3.169   1.677   1.303 -0.3508 -0.2359  0.3402
   56MOL   C23631146   3.076   1.681   1.411 -0.1541  0.1172 -0.0514
   56MOL   C23731147   2.958   1.755   1.405  0.0292 -0.1552  0.8410
   56MOL   C23831148   2.872   1.782   1.522  0.0234 -0.5683  0.0093
   56MOL   O23931149   2.765   1.849   1.520  0.4476  0.2756  0.4671
   56MOL   C24031150   2.921   1.811   1.284 -0.6471 -0.4050 -0.4066
   56MOL   C24131151   3.015   1.824   1.178  0.3710  0.0974 -0.9243
   56MOL   H24231152   3.452   1.530   1.278 -0.6093 -2.3640  1.6154
   56MOL   H24331153   3.599   1.469   1.363  2.7319  0.0931 -2.0627
   56MOL   H24431154   3.693   1.412   1.136  1.3896  2.0825  0.5447
   56MOL   H24531155   3.679   1.588   1.164 -0.3971 -0.1955  0.7267
   56MOL   H24631156   3.602   1.501   0.940  1.1703 -3.1799 -0.3719
   56MOL   H24731157   3.477   1.418   0.999 -0.6502  0.6364 -0.7559
   56MOL   H24831158   3.530   1.720   1.044  2.8422 -1.4017 -2.1080
   56MOL   H24931159   3.452   1.660   0.902  0.6642 -2.3444 -0.2425
   56MOL   H25031160   3.263   1.623   1.306 -1.5004 -2.2207  1.1653
   56MOL   H25131161   3.102   1.623   1.498  0.6607 -0.0032 -0.3681
   56MOL   H25231162   2.831   1.872   1.281  0.4449  1.2266 -0.7256
   56MOL   H25331163   2.984   1.893   1.101 -1.5214  1.8027  1.3036
   56MOL   O25431164   2.929   1.739   1.632 -0.3053  0.6642 -0.4386
   56MOL   C25531165   2.870   1.758   1.761  0.3860  0.4502 -0.0257
   56MOL   C25631166   2.903   1.638   1.841  0.8297 -0.2804  0.6623
   56MOL   C25731167   3.055   1.621   1.855  0.1515  0.4811  0.5218
   56MOL   C25831168   3.085   1.503   1.949  0.4396  0.1022  0.5986
   56MOL   O25931169   3.022   1.509   2.073 -0.1623  0.1557 -0.0924
   56MOL   C26031170   2.925   1.426   2.105 -0.0893 -0.4407 -0.2733
   56MOL   O26131171   2.871   1.351   2.019  0.0499  0.2330 -0.2286
   56MOL   C26231172   2.893   1.429   2.247  0.1685  0.0874 -0.2776
   56MOL   C26331173   2.795   1.329   2.272 -0.7525  0.0439 -0.2721
   56MOL   C26431174   2.742   1.320   2.402  0.0132 -0.2761 -0.4937
   56MOL   C26531175   2.798   1.402   2.504  0.2598  0.3059  0.5658
   56MOL   C26631176   2.744   1.400   2.638 -0.6607 -0.5817  0.0722
   56MOL   O26731177   2.793   1.467   2.730  0.3412 -0.5819  0.2070
   56MOL   C26831178   2.902   1.491   2.473 -0.2659 -0.2817 -0.2581
   56MOL   C26931179   2.949   1.508   2.340  0.2900  0.6298 -0.1346
   56MOL   H27031180   2.894   1.850   1.813 -0.2710  0.3261  0.5104
   56MOL   H27131181   2.765   1.746   1.733  0.6199 -0.6336 -0.4533
   56MOL   H27231182   2.852   1.553   1.796  0.7710  0.4722 -0.7195
   56MOL   H27331183   2.860   1.650   1.941  1.4880 -0.8690  1.0203
   56MOL   H27431184   3.100   1.590   1.761 -0.2983  1.7226 -0.1116
   56MOL   H27531185   3.104   1.712   1.889 -0.2512  0.9046 -0.0303
   56MOL   H27631186   3.071   1.411   1.891  2.1037  1.5932 -2.3037
   56MOL   H27731187   3.191   1.509   1.974  0.2264  0.2289  1.4792
   56MOL   H27831188   2.760   1.257   2.200  0.1487 -1.3594  0.6590
   56MOL   H27931189   2.666   1.244   2.413  2.3452 -2.7554 -0.7567
   56MOL   H28031190   2.954   1.554   2.543  0.5005 -0.4152 -0.6944
   56MOL   H28131191   3.026   1.577   2.311  0.9812 -0.6384 -1.3665
   56MOL   O28231192   2.654   1.303   2.658  0.1835  0.1315 -0.1350
   56MOL   C28331193   2.620   1.265   2.791 -0.0127 -0.4299  0.4010
   56MOL   C28431194   2.510   1.162   2.806 -0.2429  0.0746  0.0869
   56MOL   C28531195   2.549   1.028   2.740  0.6465 -0.4055  0.3084
   56MOL   C28631196   2.432   0.923   2.763  0.2599 -0.1054  0.6498
   56MOL   O28731197   2.308   0.970   2.708  0.0281 -0.1472  0.0371
   56MOL   C28831198   2.244   0.916   2.599  0.4375  0.2678 -0.0662
   56MOL   O28931199   2.271   0.805   2.551 -0.2843  0.2117  0.0908
   56MOL   C29031200   2.146   1.013   2.549 -0.5525  0.0049  0.2092
   56MOL   C29131201   2.052   0.953   2.462  0.0169  0.1508 -0.2990
   56MOL   C29231202   1.954   1.035   2.403  0.1740 -0.5699  0.9312
   56MOL   C29331203   1.953   1.176   2.429  1.0426  0.5064  0.2684
   56MOL   C29431204   1.840   1.261   2.377 -0.6068 -0.1951  0.5255
   56MOL   O29531205   1.754   1.203   2.307 -0.1101  0.2113 -0.4198
   56MOL   C29631206   2.049   1.227   2.514 -0.8269 -0.2388  0.0644
   56MOL   C29731207   2.154   1.154   2.559  0.2200 -0.0016  0.1415
   56MOL   H29831208   2.709   1.226   2.841  1.5088  1.2218 -0.9337
   56MOL   H29931209   2.587   1.354   2.845 -2.6615 -1.5603  0.7143
   56MOL   H30031210   2.417   1.204   2.769 -0.0045  0.4811 -0.0516
   56MOL   H30131211   2.503   1.148   2.914 -1.4511 -0.3821 -0.0414
   56MOL   H30231212   2.570   1.046   2.634  0.6480  1.4518  0.6053
   56MOL   H30331213   2.643   0.988   2.778  1.8293  0.5757 -1.4800
   56MOL   H30431214   2.455   0.826   2.720 -0.9257 -0.6354  1.1834
   56MOL   H30531215   2.425   0.898   2.869  2.6060  0.1509  0.8939
   56MOL   H30631216   2.057   0.847   2.438  1.0629  0.1543 -0.1053
   56MOL   H30731217   1.881   0.989   2.338 -3.6882  2.4475  2.8917
   56MOL   H30831218   2.048   1.332   2.541 -1.8498 -0.5044  1.0862
   56MOL   H30931219   2.231   1.194   2.623  1.5319 -1.8023 -0.2782
   56MOL   O31031220   1.854   1.395   2.394 -0.5857 -0.3165 -0.0219
   56MOL   C31131221   1.758   1.485   2.339 -0.6173 -0.6230  0.3871
   56MOL   C31231222   1.628   1.476   2.412 -0.0391  0.7453 -0.2000
   56MOL   C31331223   1.620   1.565   2.531  0.7657  0.4006 -0.1923
   56MOL   C31431224   1.494   1.543   2.617  0.2204  0.1002 -0.7371
   56MOL   O31531225   1.382   1.534   2.524  0.7417 -1.1545  0.1150
   56MOL   C31631226   1.257   1.520   2.568 -0.0401  0.5550  1.0057
   56MOL   O31731227   1.219   1.521   2.679  0.2536  0.0473 -0.0919
   56MOL   C31831228   1.176   1.476   2.455  0.2317  0.5672 -0.0279
   56MOL   C31931229   1.044   1.426   2.477 -0.5668 -1.4575  0.0460
   56MOL   C32031230   0.947   1.404   2.376 -0.3609 -0.4177  0.1830
   56MOL   C32131231   0.993   1.394   2.245 -0.1477  0.3238  1.0219
   56MOL   C32231232   0.909   1.344   2.138 -0.6086  0.8226 -0.5150
   56MOL   O32331233   0.789   1.338   2.145 -0.3350 -0.0761 -0.1949
   56MOL   C32431234   1.128   1.434   2.217 -0.1983  0.8452 -0.0016
   56MOL   C32531235   1.213   1.491   2.317 -0.1011 -0.2388  0.5886
   56MOL   H32631236   1.797   1.587   2.340 -0.6422 -0.5892 -1.1801
   56MOL   H32731237   1.756   1.460   2.234  1.4840 -1.5221  0.5388
   56MOL   H32831238   1.614   1.378   2.456  3.2695  0.3962  0.2147
   56MOL   H32931239   1.545   1.498   2.345  0.2923  0.0839 -0.8309
   56MOL   H33031240   1.701   1.535   2.598 -0.3065  0.4567  1.1523
   56MOL   H33131241   1.628   1.671   2.507  1.1464  0.5754  0.6673
   56MOL   H33231242   1.500   1.449   2.673  1.0079 -0.4552 -1.7251
   56MOL   H33331243   1.478   1.614   2.698 -0.5145 -0.8832 -0.0176
   56MOL   H33431244   1.011   1.416   2.579 -1.4482 -0.1000 -0.0930
   56MOL   H33531245   0.844   1.391   2.408  0.1932 -1.4247  1.6119
   56MOL   H33631246   1.170   1.435   2.118 -0.4931  2.2749 -0.1188
   56MOL   H33731247   1.312   1.520   2.285 -0.0017 -0.3084  0.8309
   56MOL   O33831248   0.978   1.322   2.020  0.1233 -0.1986 -0.1471
   56MOL   C33931249   0.915   1.280   1.906  0.3447  0.0439  0.3998
   56MOL   C34031250   1.017   1.212   1.816 -0.3074 -0.3045 -0.4449
   56MOL   C34131251   1.012   1.062   1.805 -0.4444  0.1957 -0.2470
   56MOL   C34231252   0.899   1.023   1.707  0.0336  0.7534  0.9465
   56MOL   O34331253   0.893   0.882   1.704  0.2216  0.4688  0.0455
   56MOL   C34431254   0.835   0.810   1.801  0.0226 -0.2962 -0.0188
   56MOL   O34531255   0.762   0.871   1.887  0.0966 -0.7413 -0.6756
   56MOL   C34631256   0.859   0.663   1.798  0.2930  0.6015 -0.4323
   56MOL   C34731257   0.965   0.612   1.717 -0.2424 -0.4204  0.2135
   56MOL   C34831258   0.985   0.472   1.714  0.3986  0.1182  0.7911
   56MOL   C34931259   0.894   0.384   1.778 -0.0967 -0.4931 -0.1930
   56MOL   C35031260   0.906   0.236   1.774  0.2184  0.2646  0.1982
   56MOL   O35131261   0.832   0.155   1.827 -0.2791  0.1286  0.0121
   56MOL   C35231262   0.785   0.441   1.850  0.1561 -0.3724 -0.9519
   56MOL   C35331263   0.770   0.579   1.863  0.0005 -0.0258 -0.0325
   56MOL   H35431264   0.831   1.212   1.926  1.5977 -1.6488 -0.0031
   56MOL   H35531265   0.879   1.366   1.850 -0.0880 -0.2005  0.2982
   56MOL   H35631266   1.117   1.247   1.842  0.0313 -1.4961 -0.1375
   56MOL   H35731267   1.002   1.251   1.715 -0.9980  0.8238  0.0703
   56MOL   H35831268   1.105   1.022   1.764 -1.4044 -0.7061 -1.6162
   56MOL   H35931269   0.991   1.013   1.900 -2.7375 -0.0629 -0.8592
   56MOL   H36031270   0.808   1.073   1.741 -0.1759  1.0348 -0.0266
   56MOL   H36131271   0.926   1.067   1.611 -0.7613  0.1611  0.4473
   56MOL   H36231272   1.030   0.676   1.658  0.7050  0.9208  2.6185
   56MOL   H36331273   1.059   0.425   1.651  0.5593  0.3009  0.8436
   56MOL   H36431274   0.715   0.389   1.914  0.7489  1.9485  1.6684
   56MOL   H36531275   0.695   0.622   1.928  0.3165  2.8923 -1.5106
   56MOL   O36631276   1.020   0.199   1.717  0.3020  0.2168 -0.1968
   56MOL   C36731277   1.060   0.061   1.705  0.6183 -0.1424  0.0556
   56MOL   C36831278   1.208   0.069   1.673  0.5664  0.2550 -0.0097
   56MOL   C36931279   1.243   0.173   1.571  0.2368  0.7545  0.1986
   56MOL   C37031280   1.165   0.153   1.443 -0.1171  0.1161  0.5596
   56MOL   O37131281   1.209   0.237   1.346  0.5044  0.4557 -0.2075
   56MOL   C37231282   1.135   0.337   1.299  0.3143 -0.1830  0.7394
   56MOL   O37331283   1.025   0.358   1.343  0.2450  0.1659 -0.0951
   56MOL   C37431284   1.190   0.394   1.176 -0.3153 -0.9556 -0.4364
   56MOL   C37531285   1.109   0.471   1.092 -0.6050 -0.0699 -0.6096
   56MOL   C37631286   1.158   0.541   0.981 -0.8916  0.1059  0.4905
   56MOL   C37731287   1.299   0.539   0.953 -0.2518  0.7287 -0.4122
   56MOL   C37831288   1.351   0.627   0.844 -0.3622  0.3866  0.6006
   56MOL   O37931289   1.294   0.728   0.808 -0.0597 -0.8763 -0.1630
   56MOL   C38031290   1.380   0.454   1.034 -0.5212  0.1954 -0.2729
   56MOL   C38131291   1.324   0.386   1.140  0.2113  0.5275 -0.0823
   56MOL   H38231292   1.030   0.013   1.798 -0.7451 -0.2070 -0.4053
   56MOL   H38331293   0.997   0.018   1.626 -2.7296 -1.3184  3.2247
   56MOL   H38431294   1.225   8.070   1.627  1.8487  0.3947  0.1592
   56MOL   H38531295   1.286   0.095   1.744  1.8570 -1.9356 -0.5665
   56MOL   H38631296   1.227   0.275   1.604  1.2778  0.0073  3.2287
   56MOL   H38731297   1.351   0.176   1.559  0.6335 -2.5809  2.1976
   56MOL   H38831298   1.180   0.050   1.409 -2.3884 -0.1853  0.3776
   56MOL   H38931299   1.059   0.154   1.468 -0.5167 -1.2149 -0.9579
   56MOL   H39031300   1.007   0.467   1.126 -0.6421 -0.8989 -0.8141
   56MOL   H39131301   1.096   0.592   0.909  0.3959  0.8413 -0.1008
   56MOL   H39231302   1.488   0.457   1.025 -0.3978 -0.8024  0.7027
   56MOL   H39331303   1.390   0.328   1.202 -0.8354 -0.8776 -0.2648
   56MOL   O39431304   1.469   0.585   0.804 -0.6544  0.0190  0.5238
   56MOL   C39531305   1.535   0.651   0.695  0.0106  0.6234  1.0327
   56MOL   C39631306   1.650   0.736   0.751 -0.3339  0.6447 -0.3181
   56MOL   C39731307   1.776   0.663   0.813 -0.4176 -0.1195 -0.3422
   56MOL   C39831308   1.869   0.765   0.864 -0.4863  0.5636 -0.3551
   56MOL   O39931309   1.828   0.813   0.991 -0.1096  0.2120 -0.5835
   56MOL   C40031310   1.889   0.916   1.041  0.2152  0.5710  0.2236
   56MOL   O40131311   1.984   0.974   0.981  0.0597 -0.3133 -0.1988
   56MOL   C40231312   1.845   0.958   1.174  0.6489 -0.6600 -0.2256
   56MOL   C40331313   1.724   0.906   1.233  0.2553 -0.0452 -0.2923
   56MOL   C40431314   1.690   0.947   1.365 -0.0929 -0.3261  1.2909
   56MOL   C40531315   1.772   1.042   1.432  0.8230 -0.1807 -0.0371
   56MOL   C40631316   1.743   1.091   1.575  0.1993  0.0325  0.0555
   56MOL   O40731317   1.809   1.179   1.625 -0.3114 -0.2380 -0.3998
   56MOL   C40831318   1.879   1.102   1.368  0.4309 -0.2404  0.3016
   56MOL   C40931319   1.915   1.064   1.237  0.8439  0.0947  0.6784
   56MOL   H41031320   1.571   0.578   0.623  0.1531  1.3652  0.3446
   56MOL   H41131321   1.465   0.719   0.646  1.0036 -1.1597 -3.0364
   56MOL   H41231322   1.604   0.803   0.823 -1.0152  0.4019 -0.5227
   56MOL   H41331323   1.684   0.807   0.676 -3.3662  0.7483 -1.6737
   56MOL   H41431324   1.749   0.585   0.884 -0.0648 -0.3634 -0.4769
   56MOL   H41531325   1.819   0.611   0.727 -1.8888  0.0281 -1.1983
   56MOL   H41631326   1.966   0.716   0.880 -1.2640 -0.6396  0.7726
   56MOL   H41731327   1.881   0.847   0.793  2.2491 -0.3433 -0.9901
   56MOL   H41831328   1.653   0.838   1.189 -2.0569  1.2247  1.4195
   56MOL   H41931329   1.607   0.899   1.414 -1.4148 -0.6678 -1.2449
   56MOL   H42031330   1.933   1.180   1.420 -1.9881  2.3890 -0.9776
   56MOL   H42131331   1.996   1.116   1.188  0.2445  1.8439  1.4874
   56MOL   O42231332   1.637   1.021   1.618  0.3306 -0.4093 -0.0066
   56MOL   C42331333   1.593   1.032   1.754  0.1285 -0.4415  0.6788
   56MOL   C42431334   1.670   0.935   1.848 -0.4498  0.1936  0.2456
   56MOL   C42531335   1.612   0.965   1.985 -0.1862  0.1486 -0.1766
   56MOL   C42631336   1.694   0.913   2.104 -0.3535  0.5241  0.2564
   56MOL   O42731337   1.626   0.802   2.151 -0.3883 -0.0307 -0.0603
   56MOL   C42831338   1.684   0.721   2.250 -0.0539 -0.1539  0.0498
   56MOL   O42931339   1.798   0.738   2.295 -0.0348 -0.4848 -0.1228
   56MOL   C43031340   1.592   0.613   2.292  0.1522 -0.3883  0.4151
   56MOL   C43131341   1.642   0.491   2.345 -0.0166 -0.5822 -0.3147
   56MOL   C43231342   1.551   0.392   2.390  0.3050  0.0943 -0.3437
   56MOL   C43331343   1.412   0.403   2.369  0.5799 -0.3843  0.3751
   56MOL   C43431344   1.309   0.299   2.414 -0.5003  0.8822  0.7217
   56MOL   O43531345   1.189   0.307   2.409  0.4407  0.2421 -0.2660
   56MOL   C43631346   1.366   0.528   2.316 -0.1602 -0.5464 -0.6144
   56MOL   C43731347   1.450   0.632   2.276  0.0104  1.1719 -0.4768
   56MOL   H43831348   1.606   1.135   1.788 -1.0405  0.1971 -0.7497
   56MOL   H43931349   1.487   1.006   1.756 -0.3554  1.3232 -0.7069
   56MOL   H44031350   1.773   0.971   1.850  0.2591 -1.7588  0.0826
   56MOL   H44131351   1.671   0.828   1.827 -3.3134 -0.0214  1.0311
   56MOL   H44231352   1.614   1.073   1.993 -0.7523  0.0862  0.8736
   56MOL   H44331353   1.514   0.917   1.977 -0.2596  0.2801 -0.0557
   56MOL   H44431354   1.789   0.873   2.068 -0.5351  0.7732 -0.4979
   56MOL   H44531355   1.727   0.990   2.174  0.6211  0.4908 -0.1575
   56MOL   H44631356   1.746   0.480   2.372 -0.7231 -0.2754  2.6809
   56MOL   H44731357   1.584   0.299   2.433  1.3730  0.0007 -1.3339
   56MOL   H44831358   1.259   0.544   2.315 -0.4429 -2.0704  1.3702
   56MOL   H44931359   1.406   0.722   2.236 -0.9575  0.2418 -1.5524
   56MOL   O45031360   1.362   0.191   2.461 -0.3603  0.2280  0.4133
   56MOL   C45131361   1.288   0.094   2.543  0.3727 -0.6317  0.2340
   56MOL   C45231362   1.326   0.105   2.691 -0.4239  0.8589  0.2468
   56MOL   C45331363   1.267   0.223   2.767  0.1071  0.3584  0.3893
   56MOL   C45431364   1.300   0.223   2.915  0.0537 -0.0533  0.2621
   56MOL   O45531365   1.445   0.221   2.925 -0.6859 -0.1874  0.0496
   56MOL   C45631366   1.497   0.128   2.994  0.1758 -0.4723 -0.2029
   56MOL   O45731367   1.433   0.077   3.085  0.2357  0.0169  0.4053
   56MOL   C45831368   1.644   0.112   2.969 -0.2938 -0.2570 -0.2126
   56MOL   C45931369   1.725   0.050   3.063  0.1669 -0.2228  0.5487
   56MOL   C46031370   1.861   0.045   3.058 -0.0362  0.4120 -0.7391
   56MOL   C46131371   1.921   0.090   2.939  0.6454  0.6340 -0.2421
   56MOL   C46231372   2.073   0.097   2.933 -0.0597  0.1937 -0.1184
   56MOL   O46331373   2.132   0.133   2.832 -0.4211 -0.2419  0.1548
   56MOL   C46431374   1.843   0.143   2.835  0.0941 -0.0189  0.5450
   56MOL   C46531375   1.708   0.165   2.855  0.4271 -0.3103  0.0602
   56MOL   H46631376   1.179   0.099   2.541  0.2826 -0.9896  2.7479
   56MOL   H46731377   1.310   8.096   2.497 -0.4142 -0.4524 -0.5282
   56MOL   H46831378   1.435   0.100   2.700 -0.4053  0.1629 -0.2922
   56MOL   H46931379   1.294   0.007   2.726 -0.9172  0.6495 -0.7656
   56MOL   H47031380   1.306   0.315   2.722 -0.6075  0.0542 -0.8703
   56MOL   H47131381   1.160   0.221   2.746  0.6417  2.9923 -3.3103
   56MOL   H47231382   1.263   0.312   2.967  0.3468 -1.1792  2.4827
   56MOL   H47331383   1.265   0.127   2.953  1.0476 -1.1582 -1.5690
   56MOL   H47431384   1.682   0.025   3.159 -1.5129  2.1914  0.4808
   56MOL   H47531385   1.917   8.094   3.136 -0.0401 -1.2265 -1.7336
   56MOL   H47631386   1.891   0.185   2.748  0.2842  2.1937  1.6884
   56MOL   H47731387   1.640   0.212   2.785 -1.4671 -2.8512  0.1157
   56MOL   O47831388   2.128   0.054   3.046  0.1084  0.1629  0.4571
   56MOL   C47931389   2.259   0.010   3.038 -0.4434  0.0980 -0.7878
   56MOL   C48031390   2.303   8.058   3.172  0.3439  0.6762 -0.0578
   56MOL   C48131391   2.226   7.941   3.226 -0.5829 -0.4583  0.4273
   56MOL   C48231392   2.323   7.864   3.324 -0.1038 -0.0106  0.6830
   56MOL   O48331393   2.257   7.773   3.400  0.2529  0.2875 -0.5242
   56MOL   C48431394   2.221   7.656   3.353  0.2043  0.0006  0.1528
   56MOL   O48531395   2.244   7.620   3.238  0.9508  0.1780  0.2364
   56MOL   C48631396   2.157   7.581   3.463 -0.1644 -0.0809 -0.2389
   56MOL   C48731397   2.122   7.631   3.594  0.9226 -0.1091 -0.3824
   56MOL   C48831398   2.043   7.557   3.692 -0.5378 -0.3811  0.4828
   56MOL   C48931399   2.015   7.424   3.655 -0.5489 -0.0343 -0.3198
   56MOL   C49031400   1.944   7.331   3.737  0.6050  1.2018 -0.1807
   56MOL   O49131401   1.928   7.211   3.702  0.3961  0.3936 -0.7836
   56MOL   C49231402   2.057   7.372   3.529  0.3334 -0.1924 -0.7899
   56MOL   C49331403   2.123   7.443   3.438 -0.2985  0.1930 -0.7479
   56MOL   H49431404   2.285   8.026   2.972 -0.8530 -0.2207 -0.5494
   56MOL   H49531405   2.329   0.086   3.002 -1.1457  1.1730  0.1174
   56MOL   H49631406   2.300   0.042   3.243 -0.4860  0.8274 -0.2638
   56MOL   H49731407   2.406   8.024   3.163  0.0207  0.2748 -2.7747
   56MOL   H49831408   2.127   7.964   3.264 -0.3814 -0.2061  0.8000
   56MOL   H49931409   2.209   7.876   3.139  0.7337 -0.2028 -0.0377
   56MOL   H50031410   2.407   7.818   3.271  1.0844  1.2740  1.3817
   56MOL   H50131411   2.366   7.935   3.395  0.5878  0.5463 -0.2788
   56MOL   H50231412   2.143   7.734   3.617 -1.1413  0.6428 -1.7295
   56MOL   H50331413   2.014   7.599   3.787  1.1130  0.2080  0.7443
   56MOL   H50431414   2.023   7.276   3.494 -0.9700 -0.7672  1.9177
   56MOL   H50531415   2.162   7.394   3.350 -2.9330 -1.4833 -1.0366
   56MOL   O50631416   1.921   7.375   3.857  0.3743  0.3379 -0.0606
   56MOL   C50731417   1.891   7.286   3.961  0.2229 -0.2426 -0.0233
   56MOL   C50831418   1.742   7.247   3.976 -0.8622  0.1337  0.0127
   56MOL   C50931419   1.722   7.172   4.114  0.0782  0.0735  0.3722
   56MOL   C51031420   1.572   7.157   4.151 -1.5226  0.3234  0.5056
   56MOL   O51131421   1.559   7.050   4.237 -0.2330  0.1341 -0.1816
   56MOL   C51231422   1.563   7.073   4.368  0.3414 -0.2600  0.2186
   56MOL   O51331423   1.595   7.182   4.424 -0.0195  0.6952 -0.5586
   56MOL   C51431424   1.535   6.943   4.441  0.7976 -1.0057  0.5493
   56MOL   C51531425   1.559   6.944   4.582  0.4185 -0.4392 -0.0999
   56MOL   C51631426   1.561   6.826   4.653  0.2603 -0.4828  0.2850
   56MOL   C51731427   1.525   6.702   4.596  0.6224  0.6717  0.4567
   56MOL   C51831428   1.525   6.574   4.675 -0.4037  0.1617  0.2376
   56MOL   O51931429   1.547   6.565   4.796  0.1116  0.3639  0.1689
   56MOL   C52031430   1.500   6.705   4.461 -0.3895 -0.4336  0.1065
   56MOL   C52131431   1.505   6.819   4.376 -0.0760  0.3055 -0.4984
   56MOL   H52231432   1.951   7.196   3.949  0.8999 -0.2174  2.7505
   56MOL   H52331433   1.931   7.337   4.049 -1.8011  0.7888  0.3575
   56MOL   H52431434   1.714   7.198   3.883 -0.7962  1.1066 -0.5192
   56MOL   H52531435   1.690   7.343   3.972  0.8629  1.1442  1.0809
   56MOL   H52631436   1.778   7.078   4.114 -0.9919 -0.5640  1.3303
   56MOL   H52731437   1.772   7.228   4.193 -0.8667  1.8709 -0.2792
   56MOL   H52831438   1.514   7.246   4.176 -1.9618  0.3980 -0.7582
   56MOL   H52931439   1.524   7.115   4.063  1.0710  2.9493 -2.2466
   56MOL   H53031440   1.587   7.036   4.632  0.2775 -0.3972 -0.1000
   56MOL   H53131441   1.587   6.835   4.757  0.1373  2.9362  0.0806
   56MOL   H53231442   1.479   6.611   4.412 -1.7316  0.0309 -0.2206
   56MOL   H53331443   1.484   6.798   4.272  3.0447 -2.6813 -0.6323
   56MOL   O53431444   1.505   6.466   4.599 -0.6315 -0.2232  0.0535
   56MOL   C53531445   1.508   6.338   4.659  0.7531  0.1470 -0.8932
   56MOL   C53631446   1.529   6.240   4.541 -1.0737 -0.3976 -0.8762
   56MOL   C53731447   1.398   6.185   4.486  0.4459 -0.3661 -0.8368
   56MOL   C53831448   1.409   6.129   4.348  0.0574  0.4656 -0.1650
   56MOL   O53931449   1.418   6.244   4.269  0.2514  0.3566 -0.3167
   56MOL   C54031450   1.514   6.271   4.182  0.3943  0.5281 -0.1083
   56MOL   O54131451   1.605   6.199   4.153  0.1548  0.5281  0.0519
   56MOL   C54231452   1.490   6.403   4.117 -0.4125 -0.7363 -0.4456
   56MOL   C54331453   1.590   6.452   4.028  0.4883  0.1619  0.3948
   56MOL   C54431454   1.580   6.586   3.979 -0.5897  0.2858  0.4243
   56MOL   C54531455   1.485   6.672   4.028 -0.2091 -0.2574  0.7265
   56MOL   C54631456   1.470   6.809   3.972 -0.3038 -0.3407 -0.0621
   56MOL   O54731457   1.371   6.877   3.994  0.7509 -0.0701 -0.6037
   56MOL   C54831458   1.387   6.626   4.121  0.5036  0.2320 -0.4431
   56MOL   C54931459   1.389   6.491   4.160  0.0326 -0.2173  0.4763
   56MOL   H55031460   1.588   6.328   4.732 -1.5457  2.1952  1.9904
   56MOL   H55131461   1.422   6.323   4.725 -0.9455  0.5818 -2.9228
   56MOL   H55231462   1.582   6.151   4.575 -0.3768  0.2816 -0.1274
   56MOL   H55331463   1.591   6.291   4.467  2.9104 -0.7025  2.0806
   56MOL   H55431464   1.352   6.112   4.552  3.0574 -0.2596  1.1920
   56MOL   H55531465   1.324   6.265   4.486 -0.4103 -1.1194  1.5047
   56MOL   H55631466   1.495   6.063   4.339 -0.2568 -0.0240  0.4658
   56MOL   H55731467   1.319   6.076   4.319  0.9416  0.2244 -2.6376
   56MOL   H55831468   1.682   6.399   4.007  0.1861 -0.8525  1.6438
   56MOL   H55931469   1.658   6.619   3.912 -1.6502 -0.6691 -1.3360
   56MOL   H56031470   1.311   6.693   4.158 -1.5445 -2.4175  0.2618
   56MOL   H56131471   1.314   6.459   4.231  0.8337 -2.6579  0.2661
   56MOL   H56231472   1.554   6.846   3.912 -1.2027 -0.6612 -1.5487
   57MOL     O131473   4.470   0.268   5.448  0.0957  0.0934  0.1010
   57MOL     C231474   4.368   0.321   5.536 -0.5265 -0.0737 -0.0586
   57MOL     C331475   4.338   0.213   5.645  0.3630  0.3409 -0.2429
   57MOL     C431476   4.456   0.179   5.738  0.2033 -0.7268  0.0433
   57MOL     C531477   4.434   0.067   5.839 -0.0294  0.2541  0.2521
   57MOL     O631478   4.312   0.077   5.915 -0.9114  0.5506  0.4217
   57MOL     C731479   4.273   8.063   5.970  0.8914 -0.0083  0.7130
   57MOL     O831480   4.323   7.955   5.965 -0.0619 -0.2352 -0.0826
   57MOL     C931481   4.157   8.078   6.065  0.5543  0.4116 -0.0734
   57MOL    C1031482   4.062   0.075   6.026 -0.2401  0.3372  0.2833
   57MOL    C1131483   3.949   0.094   6.109  0.0679  0.1996  0.2714
   57MOL    C1231484   3.922   0.017   6.224  0.6170 -0.0580 -0.0418
   57MOL    C1331485   3.810   0.038   6.325 -0.1111  0.2837 -0.1905
   57MOL    O1431486   3.811   8.079   6.430  0.1345 -0.1062 -0.0775
   57MOL    C1531487   4.018   8.017   6.257 -0.7106 -0.3855 -0.0987
   57MOL    C1631488   4.138   7.998   6.179 -0.0507  0.0208  0.5477
   57MOL    H1731489   4.406   0.415   5.574 -3.9371  0.9604  0.9637
   57MOL    H1831490   4.280   0.344   5.476  0.3003  0.4399 -1.0788
   57MOL    H1931491   4.301   0.123   5.595  2.2457 -0.4312 -0.2888
   57MOL    H2031492   4.256   0.248   5.708 -1.3687 -0.4062 -2.0185
   57MOL    H2131493   4.537   0.154   5.670 -1.8773 -1.5342 -2.2025
   57MOL    H2231494   4.485   0.272   5.788 -1.2125 -0.4353  0.3499
   57MOL    H2331495   4.411   8.081   5.775  0.2513 -0.9753  1.7546
   57MOL    H2431496   4.521   0.036   5.898  0.6665  1.5401 -0.0683
   57MOL    H2531497   4.068   0.133   5.935 -0.9030  1.4134  0.9270
   57MOL    H2631498   3.884   0.178   6.090  0.6350  0.6754  0.4450
   57MOL    H2731499   3.995   7.948   6.337 -1.5411  1.3159  1.1751
   57MOL    H2831500   4.217   7.926   6.199 -0.5598 -0.7882 -0.3146
   57MOL    H2931501   4.471   0.314   5.366  0.3866  1.8327  1.0545
   57MOL    O3031502   3.722   0.125   6.291  0.3775  0.4038 -0.3744
   57MOL    C3131503   3.640   0.185   6.392 -0.1678  0.1560  0.3864
   57MOL    C3231504   3.508   0.219   6.336  0.4918 -0.2491 -0.0635
   57MOL    C3331505   3.430   0.089   6.296 -0.1890 -0.0203  0.1920
   57MOL    C3431506   3.314   0.120   6.200  0.1238  0.2500  0.0519
   57MOL    O3531507   3.258   8.094   6.169  0.3039 -0.4134 -0.0486
   57MOL    C3631508   3.181   8.071   6.051  0.9796 -1.2933 -0.0187
   57MOL    O3731509   3.160   0.058   5.966 -0.2279 -0.5322  0.0336
   57MOL    C3831510   3.128   7.936   6.033 -0.4658  0.0261  0.5203
   57MOL    C3931511   3.158   7.832   6.126 -0.3405 -0.2361 -0.1636
   57MOL    C4031512   3.097   7.709   6.112  0.2919 -0.1703 -0.2923
   57MOL    C4131513   3.008   7.675   6.008 -0.0922  0.1126  0.2547
   57MOL    C4231514   2.952   7.536   5.984 -0.0019  0.1013  0.5372
   57MOL    O4331515   2.871   7.506   5.897  0.3440  0.3825 -0.2115
   57MOL    C4431516   2.980   7.775   5.918  0.9349 -0.6194 -0.0151
   57MOL    C4531517   3.034   7.904   5.931  0.0505 -0.1372  0.4336
   57MOL    H4631518   3.629   0.117   6.476  0.1553  1.2097  1.2962
   57MOL    H4731519   3.680   0.280   6.429 -0.1956  0.5075 -0.4736
   57MOL    H4831520   3.519   0.280   6.246 -1.7961  0.7131  0.2724
   57MOL    H4931521   3.452   0.285   6.403  1.2938  0.6809 -0.2887
   57MOL    H5031522   3.495   0.012   6.254  2.6822  1.7425  1.1841
   57MOL    H5131523   3.391   0.055   6.392 -0.0323  0.1153  0.3057
   57MOL    H5231524   3.241   0.184   6.251 -2.7847 -2.1511 -0.9189
   57MOL    H5331525   3.350   0.172   6.112  0.6147 -0.9863 -0.4764
   57MOL    H5431526   3.226   7.852   6.207  0.6931 -2.3785 -0.4714
   57MOL    H5531527   3.134   7.641   6.187  0.8337 -0.1311 -0.5210
   57MOL    H5631528   2.913   7.765   5.834 -1.0302  1.7200  1.1983
   57MOL    H5731529   3.003   7.975   5.857 -0.3276 -0.6845  0.0637
   57MOL    O5831530   3.006   7.444   6.071 -0.3065 -0.3112  0.4075
   57MOL    C5931531   2.997   7.301   6.047  0.6000  0.1379 -0.2449
   57MOL    C6031532   3.068   7.230   6.154  0.3578  0.1126 -0.1426
   57MOL    C6131533   3.004   7.275   6.291  0.0714  0.2610  0.6124
   57MOL    C6231534   3.077   7.205   6.400 -0.0197 -0.2162 -0.4142
   57MOL    O6331535   3.017   7.074   6.414  0.3355  0.3908  0.3580
   57MOL    C6431536   2.910   7.059   6.504 -0.2161 -1.1948 -0.7215
   57MOL    O6531537   2.842   7.159   6.537 -0.0083  0.1632  0.0797
   57MOL    C6631538   2.896   6.917   6.559  0.6012 -0.2458 -0.3240
   57MOL    C6731539   2.964   6.813   6.493  0.5500  0.4670 -0.4808
   57MOL    C6831540   2.932   6.682   6.528  0.8112 -0.4698  0.6332
   57MOL    C6931541   2.836   6.652   6.627  0.6985  0.4514 -0.1949
   57MOL    C7031542   2.790   6.507   6.647  0.0082 -0.0908 -0.1705
   57MOL    O7131543   2.687   6.489   6.708  0.3713 -0.4781 -0.0657
   57MOL    C7231544   2.771   6.759   6.692 -0.3246 -0.1862  0.0639
   57MOL    C7331545   2.800   6.893   6.657  0.8532  0.2039  0.6939
   57MOL    H7431546   2.889   7.284   6.056  0.6974 -2.2032 -2.8038
   57MOL    H7531547   3.040   7.284   5.949  3.4660 -1.1888  1.1972
   57MOL    H7631548   3.176   7.245   6.153  0.2655  0.7737 -0.2255
   57MOL    H7731549   3.056   7.123   6.138  1.1612  0.1623 -1.1179
   57MOL    H7831550   3.026   7.381   6.304 -1.3421  0.7734 -1.0963
   57MOL    H7931551   2.897   7.253   6.289  0.6367 -2.6565 -0.3668
   57MOL    H8031552   3.186   7.203   6.395  0.1375 -1.1608  2.6480
   57MOL    H8131553   3.059   7.267   6.488 -1.2530 -1.6886  0.3805
   57MOL    H8231554   3.045   6.824   6.423 -0.4041 -1.5760 -1.9652
   57MOL    H8331555   2.990   6.600   6.488  1.7690 -0.4204  1.9066
   57MOL    H8431556   2.697   6.760   6.772  0.5370  2.2260  0.8865
   57MOL    H8531557   2.757   6.979   6.704  0.3048  0.9234 -1.1024
   57MOL    O8631558   2.866   6.419   6.584  0.0424  0.3235  0.5556
   57MOL    C8731559   2.821   6.279   6.586  0.0077  0.2110  0.3746
   57MOL    C8831560   2.924   6.183   6.514  0.3208  0.1547 -0.2408
   57MOL    C8931561   2.887   6.026   6.535  0.1135 -0.3599  0.1779
   57MOL    C9031562   2.995   5.939   6.467 -0.1560 -0.4021  0.0356
   57MOL    O9131563   3.031   5.994   6.341 -0.5526  0.0907  0.2065
   57MOL    C9231564   3.145   5.964   6.284 -1.0597  0.3252  0.4937
   57MOL    O9331565   3.221   5.873   6.315 -0.6053  0.1197  0.1116
   57MOL    C9431566   3.170   6.047   6.161 -0.2547  0.2572  0.0788
   57MOL    C9531567   3.268   6.006   6.071 -0.4965 -0.8661  0.0847
   57MOL    C9631568   3.276   6.070   5.949 -0.3466 -0.9468 -0.3170
   57MOL    C9731569   3.210   6.190   5.918  0.4115 -0.2003  0.2874
   57MOL    C9831570   3.211   6.254   5.784 -0.0304  0.3791  0.4935
   57MOL    O9931571   3.132   6.347   5.756  0.4890  0.0118 -0.4438
   57MOL   C10031572   3.124   6.239   6.016 -0.3709 -0.1021  0.4778
   57MOL   C10131573   3.100   6.167   6.138  0.4285 -0.4424 -0.0812
   57MOL   H10231574   2.802   6.243   6.687  3.6205  0.7391  1.3100
   57MOL   H10331575   2.729   6.265   6.529 -0.7684  1.9081  1.1715
   57MOL   H10431576   3.024   6.197   6.554 -0.1621  0.6474  0.8148
   57MOL   H10531577   2.923   6.207   6.408 -1.5999  3.5916  0.4975
   57MOL   H10631578   2.867   6.003   6.640 -0.4255 -0.5564  0.0346
   57MOL   H10731579   2.794   6.016   6.480  0.2499  1.4388 -0.3867
   57MOL   H10831580   3.077   5.927   6.538 -1.1161  1.1173  1.4513
   57MOL   H10931581   2.934   5.850   6.456  0.8124 -1.2295  1.1603
   57MOL   H11031582   3.326   5.917   6.091  0.9475 -0.0607 -0.5107
   57MOL   H11131583   3.330   6.019   5.871 -0.3154  2.0804 -2.3668
   57MOL   H11231584   3.076   6.336   6.016  0.9188  0.5721 -0.7636
   57MOL   H11331585   3.039   6.198   6.222 -0.2304  1.5286 -1.2426
   57MOL   O11431586   3.311   6.216   5.701 -0.0682  0.0507  0.2124
   57MOL   C11531587   3.317   6.263   5.572 -0.3560  0.0150  0.4353
   57MOL   C11631588   3.437   6.201   5.494 -0.3708 -0.4904 -0.4563
   57MOL   C11731589   3.454   6.250   5.351  0.0867  1.1075 -0.0737
   57MOL   C11831590   3.498   6.393   5.333  0.1488  0.0566  0.3512
   57MOL   O11931591   3.634   6.401   5.354  0.5403 -0.2094 -0.3087
   57MOL   C12031592   3.693   6.511   5.392  0.5194 -0.1686  0.1678
   57MOL   O12131593   3.639   6.622   5.404  0.2431 -0.6705 -0.6393
   57MOL   C12231594   3.834   6.482   5.432 -0.2551 -0.2294  0.6309
   57MOL   C12331595   3.900   6.358   5.416 -0.0574 -0.4067 -0.4910
   57MOL   C12431596   4.037   6.349   5.445 -0.0354 -0.7568  0.1263
   57MOL   C12531597   4.118   6.468   5.470  0.0714  0.3970 -0.9821
   57MOL   C12631598   4.264   6.461   5.478  0.1901  0.0981 -0.2190
   57MOL   O12731599   4.332   6.557   5.512  0.6287  0.3334 -0.3987
   57MOL   C12831600   4.046   6.586   5.501  0.1879  0.0618  0.4181
   57MOL   C12931601   3.909   6.597   5.475  0.1019  0.4204 -0.6975
   57MOL   H13031602   3.225   6.234   5.522 -1.4196  3.0702  0.5272
   57MOL   H13131603   3.328   6.372   5.568 -0.5781  0.1204  2.1767
   57MOL   H13231604   3.427   6.092   5.487 -0.5440 -0.4077 -1.6872
   57MOL   H13331605   3.526   6.220   5.555  0.9166 -1.4075 -1.9866
   57MOL   H13431606   3.527   6.176   5.318 -1.4700 -0.7300  0.5625
   57MOL   H13531607   3.361   6.234   5.296 -0.6608 -2.3449  2.0555
   57MOL   H13631608   3.473   6.429   5.233  0.2429  1.4095  0.8020
   57MOL   H13731609   3.440   6.445   5.410  1.3603  1.3516  0.4106
   57MOL   H13831610   3.851   6.273   5.371 -1.7244  0.1494  0.2051
   57MOL   H13931611   4.087   6.253   5.434  1.8772  0.0623  1.4675
   57MOL   H14031612   4.111   6.672   5.510 -0.6244  0.6889  0.4044
   57MOL   H14131613   3.858   6.688   5.503 -0.4816 -0.1967  0.2833
   57MOL   O14231614   4.307   6.339   5.450  0.3144 -0.6120 -0.3382
   57MOL   C14331615   4.444   6.306   5.461  0.8895  0.1081 -0.1316
   57MOL   C14431616   4.466   6.196   5.353  0.0073 -0.2716 -0.4627
   57MOL   C14531617   4.459   6.237   5.199 -0.1451  0.1765  0.1783
   57MOL   C14631618   4.364   6.355   5.150 -0.1413 -0.2349 -0.1046
   57MOL   O14731619   4.228   6.325   5.163 -0.8512 -0.3353  0.0782
   57MOL   C14831620   4.138   6.420   5.143  0.1338 -0.1777  0.0663
   57MOL   O14931621   4.163   6.538   5.130  0.5228  0.0879 -0.7540
   57MOL   C15031622   3.999   6.361   5.123 -0.2008 -0.8644 -0.5087
   57MOL   C15131623   3.980   6.226   5.096  0.4079 -0.4276 -0.2572
   57MOL   C15231624   3.857   6.187   5.044 -0.1863 -0.4989 -0.0211
   57MOL   C15331625   3.749   6.276   5.030  0.3605  0.4936  0.7357
   57MOL   C15431626   3.618   6.225   4.981 -0.1550 -0.1668 -0.5934
   57MOL   O15531627   3.508   6.254   5.028  0.0379 -0.3810 -1.1529
   57MOL   C15631628   3.765   6.406   5.056  0.4339 -0.0103  0.4695
   57MOL   C15731629   3.889   6.451   5.100 -0.5763 -0.4792 -0.3177
   57MOL   H15831630   4.505   6.394   5.443 -0.4287  0.8291 -1.1462
   57MOL   H15931631   4.464   6.271   5.563 -1.1062 -2.2735 -0.5168
   57MOL   H16031632   4.396   6.117   5.380 -0.2134  0.3216  0.7306
   57MOL   H16131633   4.558   6.142   5.374  0.2537  0.2188 -0.2660
   57MOL   H16231634   4.557   6.268   5.164 -0.9741  0.6414 -1.8446
   57MOL   H16331635   4.441   6.141   5.150 -0.3435 -0.2986  1.1673
   57MOL   H16431636   4.385   6.446   5.206  0.5236 -0.5822  0.2035
   57MOL   H16531637   4.380   6.374   5.043 -0.7067 -2.5535 -0.6221
   57MOL   H16631638   4.058   6.151   5.103  1.0291  0.2252 -0.0819
   57MOL   H16731639   3.835   6.082   5.026  1.2515 -0.4333 -2.3936
   57MOL   H16831640   3.683   6.476   5.053  0.5026  0.0654  0.3497
   57MOL   H16931641   3.905   6.557   5.113  2.5332 -1.1796  2.0441
   57MOL   O17031642   3.641   6.141   4.874  0.1523 -0.3609  0.0702
   57MOL   C17131643   3.539   6.056   4.830  0.5219  0.2104 -0.0046
   57MOL   C17231644   3.606   5.916   4.833 -0.4412 -0.1696  0.3877
   57MOL   C17331645   3.622   5.858   4.971 -0.0956 -0.6420 -0.2865
   57MOL   C17431646   3.689   5.721   4.964 -0.5146  0.1584 -0.6526
   57MOL   O17531647   3.823   5.734   4.916 -0.4769  0.3893 -0.0285
   57MOL   C17631648   3.918   5.779   4.991  0.2494 -0.1818 -0.8156
   57MOL   O17731649   3.911   5.812   5.109  0.0395  0.8741 -0.0113
   57MOL   C17831650   4.050   5.787   4.920 -0.6421 -0.9676 -0.4163
   57MOL   C17931651   4.079   5.706   4.812  0.2781 -0.3480 -0.2399
   57MOL   C18031652   4.190   5.731   4.728 -0.8985  0.6746 -0.4318
   57MOL   C18131653   4.276   5.839   4.754  0.1839 -0.2345 -0.1458
   57MOL   C18231654   4.396   5.851   4.659 -0.7446 -0.6084  0.2636
   57MOL   O18331655   4.403   5.780   4.558 -0.5010 -0.0529  0.0433
   57MOL   C18431656   4.258   5.920   4.871 -0.4560  0.0159 -0.2629
   57MOL   C18531657   4.142   5.893   4.950 -0.3229  0.7641  0.0055
   57MOL   H18631658   3.442   6.057   4.880 -0.2793  0.7531 -1.5523
   57MOL   H18731659   3.526   6.085   4.726 -3.6490 -0.0787  0.3390
   57MOL   H18831660   3.702   5.909   4.781 -0.3022 -2.1505  0.8533
   57MOL   H18931661   3.534   5.853   4.780 -0.9817  1.1571 -0.4926
   57MOL   H19031662   3.684   5.917   5.038 -0.9959 -0.1497  0.1291
   57MOL   H19131663   3.524   5.845   5.019 -0.3570 -2.3748 -1.2531
   57MOL   H19231664   3.692   5.672   5.061 -3.3857  0.9046 -0.1620
   57MOL   H19331665   3.638   5.656   4.893  0.6838 -0.8851 -0.5690
   57MOL   H19431666   4.024   5.621   4.774  0.0788 -0.2700 -0.1271
   57MOL   H19531667   4.206   5.660   4.649  2.1509 -0.2988  1.0002
   57MOL   H19631668   4.335   5.994   4.889  0.8239 -1.5366  0.8980
   57MOL   H19731669   4.126   5.961   5.032  2.2293 -0.4644  1.5531
   57MOL   O19831670   4.484   5.948   4.689  0.7002  0.1514 -0.6328
   57MOL   C19931671   4.590   5.983   4.606  0.3459 -0.0833 -0.5363
   57MOL   C20031672   4.637   6.123   4.635  0.4059 -0.3145  0.1039
   57MOL   C20131673   4.704   6.166   4.766  0.0682  0.9774 -0.1073
   57MOL   C20231674   4.729   6.313   4.759 -0.6658 -0.0923  0.3202
   57MOL   O20331675   4.783   6.371   4.873  0.1461  0.9439  0.1598
   57MOL   C20431676   4.710   6.455   4.948 -0.1969 -0.1094 -0.0221
   57MOL   O20531677   4.586   6.474   4.930 -0.4351  0.0983  0.3144
   57MOL   C20631678   4.802   6.509   5.055 -0.1595 -0.2358  0.0712
   57MOL   C20731679   4.747   6.557   5.174  0.3284  0.1105 -0.2327
   57MOL   C20831680   4.829   6.601   5.276  0.2793  0.2018  0.5011
   57MOL   C20931681   4.967   6.572   5.279  0.2085 -0.4548 -0.2398
   57MOL   C21031682   5.050   6.585   5.401 -0.6552 -0.4903 -0.3545
   57MOL   O21131683   5.014   6.631   5.510  0.6766 -0.1500  0.3123
   57MOL   C21231684   5.024   6.526   5.158 -0.1267 -0.0957 -0.2198
   57MOL   C21331685   4.940   6.501   5.046 -0.9761  0.3051 -0.0678
   57MOL   H21431686   4.671   5.912   4.623  0.9351  1.1461  2.0404
   57MOL   H21531687   4.556   5.987   4.502 -2.3031  0.0597  0.2929
   57MOL   H21631688   4.549   6.187   4.628 -0.0236 -1.0137 -1.0484
   57MOL   H21731689   4.712   6.153   4.562 -1.0980 -1.0389 -1.7807
   57MOL   H21831690   4.641   6.145   4.852  2.6213  0.3043  1.6731
   57MOL   H21931691   4.795   6.108   4.784 -0.1624  1.1479  1.6047
   57MOL   H22031692   4.811   6.337   4.691 -0.0398  1.6507  1.6509
   57MOL   H22131693   4.645   6.376   4.728 -0.2730  1.1422  1.6714
   57MOL   H22231694   4.643   6.545   5.203  0.4582  2.2376  1.2483
   57MOL   H22331695   4.775   6.628   5.365 -0.2790 -1.8929  0.8306
   57MOL   H22431696   5.128   6.501   5.142 -0.2379  0.5202 -1.9090
   57MOL   H22531697   4.986   6.469   4.954  1.5577  0.4169  1.1133
   57MOL   O22631698   5.169   6.540   5.372 -0.2418 -0.1370  0.2238
   57MOL   C22731699   5.268   6.562   5.472 -0.0247  0.4548  0.6193
   57MOL   C22831700   5.383   6.466   5.444  0.1458 -0.3436  0.0027
   57MOL   C22931701   5.498   6.514   5.526  0.6808 -0.0797 -0.0226
   57MOL   C23031702   5.602   6.403   5.513  0.4571  0.2557 -0.2610
   57MOL   O23131703   5.579   6.297   5.605  0.0983 -0.7032 -0.4846
   57MOL   C23231704   5.671   6.198   5.607  0.2193  0.1763 -0.4005
   57MOL   O23331705   5.763   6.193   5.521 -0.2514 -0.1584 -0.1532
   57MOL   C23431706   5.653   6.092   5.712 -0.2759  1.6672 -0.8725
   57MOL   C23531707   5.554   6.112   5.812 -0.4444  0.1690 -0.0076
   57MOL   C23631708   5.541   6.022   5.918  0.0663  0.4369  0.4734
   57MOL   C23731709   5.620   5.909   5.919 -0.2904 -0.0769 -0.8925
   57MOL   C23831710   5.589   5.809   6.027 -0.3790  0.3060  0.5970
   57MOL   O23931711   5.499   5.819   6.115 -0.6692 -0.3538  0.6847
   57MOL   C24031712   5.718   5.884   5.824 -0.1835  0.0275  0.1932
   57MOL   C24131713   5.742   5.983   5.724  0.1028  1.0584  0.3786
   57MOL   H24231714   5.291   6.668   5.471 -1.0784  0.6960 -1.9452
   57MOL   H24331715   5.230   6.544   5.572 -0.6547  2.1610  0.7020
   57MOL   H24431716   5.405   6.478   5.338  0.9019 -1.1924  0.0626
   57MOL   H24531717   5.353   6.366   5.474 -0.6934  0.5044  2.1064
   57MOL   H24631718   5.536   6.612   5.498  0.1728 -0.1408 -0.9526
   57MOL   H24731719   5.464   6.522   5.629 -2.2982 -1.4278 -0.8469
   57MOL   H24831720   5.609   6.370   5.409 -0.9360  0.8346 -0.5489
   57MOL   H24931721   5.695   6.452   5.545  0.7713 -0.7880  0.4500
   57MOL   H25031722   5.492   6.201   5.816  2.0238  1.9107  1.2212
   57MOL   H25131723   5.477   6.045   6.002 -1.7255  0.2805 -0.8199
   57MOL   H25231724   5.787   5.801   5.823 -0.1432  0.0613 -0.3850
   57MOL   H25331725   5.825   5.966   5.656 -1.0586  0.8318 -1.0093
   57MOL   O25431726   5.674   5.706   6.020  0.2621 -0.6820  0.0431
   57MOL   C25531727   5.661   5.594   6.113  0.5156 -0.3264  0.5402
   57MOL   C25631728   5.756   5.599   6.236 -0.2709 -0.3619  0.4501
   57MOL   C25731729   5.898   5.543   6.197  0.0487  0.0543 -0.2960
   57MOL   C25831730   5.983   5.547   6.320  0.1156  0.2360 -0.0991
   57MOL   O25931731   5.942   5.436   6.395  0.1469  0.1250 -0.0729
   57MOL   C26031732   5.946   5.438   6.525 -0.0137 -0.1496  1.0979
   57MOL   O26131733   5.991   5.535   6.593  0.2741 -0.1857 -0.2717
   57MOL   C26231734   5.899   5.315   6.591 -0.6786 -0.2310  0.8794
   57MOL   C26331735   5.851   5.204   6.518 -0.7483 -0.1662  0.4433
   57MOL   C26431736   5.803   5.091   6.587 -0.7685 -0.1587  0.5334
   57MOL   C26531737   5.809   5.077   6.726 -0.1902 -0.1036 -0.6938
   57MOL   C26631738   5.765   4.951   6.795  0.4452 -0.7261  0.6552
   57MOL   O26731739   5.720   4.854   6.736 -0.3312 -0.0653 -0.2553
   57MOL   C26831740   5.862   5.186   6.799 -0.8806  0.0328 -0.3632
   57MOL   C26931741   5.907   5.302   6.732  0.6159  0.7832 -0.0665
   57MOL   H27031742   5.559   5.579   6.149  0.6617 -1.8773  0.3636
   57MOL   H27131743   5.691   5.501   6.065  1.0754 -0.7772  1.7643
   57MOL   H27231744   5.705   5.541   6.312 -1.4162 -0.1322 -0.1253
   57MOL   H27331745   5.751   5.703   6.271 -1.5313 -0.8645  1.8265
   57MOL   H27431746   5.891   5.443   6.155  2.0083  0.6694 -2.1770
   57MOL   H27531747   5.946   5.619   6.135 -1.8524 -0.2187 -2.1859
   57MOL   H27631748   6.088   5.532   6.298 -0.2974 -0.4172 -1.7774
   57MOL   H27731749   5.971   5.643   6.370 -0.5143  0.1797 -0.1369
   57MOL   H27831750   5.863   5.201   6.410 -1.1459  1.3882  0.3463
   57MOL   H27931751   5.768   5.008   6.527  1.3675  0.5886 -1.8343
   57MOL   H28031752   5.873   5.187   6.906 -0.6330 -0.9032 -0.3746
   57MOL   H28131753   5.946   5.381   6.795  0.0701 -0.6232  2.1255
   57MOL   O28231754   5.776   4.953   6.934 -0.2069  0.1982 -0.5845
   57MOL   C28331755   5.745   4.833   7.005 -0.0698 -0.3155 -0.5949
   57MOL   C28431756   5.766   4.858   7.154  0.2324  0.2675  0.0006
   57MOL   C28531757   5.918   4.882   7.192  0.7029  0.7651  0.3203
   57MOL   C28631758   5.947   4.863   7.345  0.2152  0.5600 -1.0763
   57MOL   O28731759   5.895   4.973   7.424 -0.4730 -0.3011  0.2882
   57MOL   C28831760   5.986   5.062   7.462 -0.7585 -0.5376 -0.8930
   57MOL   O28931761   6.106   5.056   7.428  0.1128  0.6489  0.0442
   57MOL   C29031762   5.931   5.173   7.555 -0.4880 -0.4805  0.5028
   57MOL   C29131763   6.019   5.239   7.646 -0.6811  1.0902  0.2476
   57MOL   C29231764   5.962   5.342   7.729 -0.0386 -0.0020  0.6366
   57MOL   C29331765   5.824   5.379   7.723 -0.3646  0.2672  0.1970
   57MOL   C29431766   5.770   5.487   7.815  0.0690  0.4641 -0.2021
   57MOL   O29531767   5.648   5.505   7.827 -0.1447 -0.0575  0.2362
   57MOL   C29631768   5.744   5.303   7.640  0.2046  0.1602  0.2086
   57MOL   C29731769   5.793   5.211   7.550  0.2970  0.1373 -0.2019
   57MOL   H29831770   5.637   4.818   6.999 -0.2883  0.0260  1.8428
   57MOL   H29931771   5.797   4.744   6.971 -1.3699 -2.6397  3.1971
   57MOL   H30031772   5.732   4.772   7.211 -0.4840 -0.4746 -1.5100
   57MOL   H30131773   5.709   4.942   7.192 -0.6205  0.4660 -1.6561
   57MOL   H30231774   5.977   4.806   7.142  1.1695  1.6878 -0.5471
   57MOL   H30331775   5.954   4.984   7.176  0.9672  0.0563 -4.0246
   57MOL   H30431776   5.894   4.771   7.370  2.6979 -0.4630  0.6034
   57MOL   H30531777   6.053   4.843   7.359  0.6851  1.7120 -2.7589
   57MOL   H30631778   6.124   5.217   7.647 -1.0914 -0.9276  0.9274
   57MOL   H30731779   6.026   5.389   7.803  0.2359 -1.7771  1.5548
   57MOL   H30831780   5.641   5.334   7.632  0.9501  1.6788 -4.2745
   57MOL   H30931781   5.724   5.160   7.486  0.9351 -0.6857 -0.2474
   57MOL   O31031782   5.870   5.562   7.868 -0.0471 -0.1400 -0.3986
   57MOL   C31131783   5.826   5.666   7.963  0.1264 -0.1836  0.7295
   57MOL   C31231784   5.931   5.778   7.980 -0.7613  0.1519 -0.7169
   57MOL   C31331785   5.870   5.890   8.064  0.0051  0.3827 -0.3133
   57MOL   C31431786   5.777   5.984   7.994 -0.5566  0.1890 -0.1379
   57MOL   O31531787   5.857   6.056   7.900 -0.0133  0.1492  0.4724
   57MOL   C31631788   5.811   6.097   7.784 -0.2785 -0.0705  0.1229
   57MOL   O31731789   5.695   6.088   7.744 -0.4001  0.3452  0.1829
   57MOL   C31831790   5.913   6.165   7.704 -0.3331 -0.1562 -0.3968
   57MOL   C31931791   5.882   6.255   7.607  0.5352 -0.4709  0.2798
   57MOL   C32031792   5.984   6.328   7.538  0.3749 -0.0601  0.1154
   57MOL   C32131793   6.120   6.309   7.573  0.9550 -0.2374 -0.8753
   57MOL   C32231794   6.232   6.389   7.513  0.1382  0.5834 -0.0642
   57MOL   O32331795   6.349   6.395   7.552  0.0860 -0.1984  0.1010
   57MOL   C32431796   6.155   6.212   7.668 -0.6024 -0.3570 -0.9431
   57MOL   C32531797   6.051   6.137   7.733  0.1790 -1.0139  0.2419
   57MOL   H32631798   5.738   5.708   7.915  1.1020  1.6564  0.5081
   57MOL   H32731799   5.791   5.622   8.056  1.6034 -0.6455  1.0796
   57MOL   H32831800   5.945   5.811   7.877 -0.6113  0.9088 -0.4587
   57MOL   H32931801   6.021   5.739   8.026 -0.0368  0.6704 -1.6671
   57MOL   H33031802   5.831   5.849   0.058  0.7365 -2.7979 -1.3588
   57MOL   H33131803   5.954   5.951   8.094  0.4073  0.1978 -1.0404
   57MOL   H33231804   5.702   5.924   7.942  0.4999 -1.3264  0.0575
   57MOL   H33331805   5.733   6.051   8.066  0.0900  2.0544 -1.4268
   57MOL   H33431806   5.778   6.284   7.596  0.7661  0.4032  0.4255
   57MOL   H33531807   5.952   6.397   7.461  1.6489  0.8878  0.4173
   57MOL   H33631808   6.259   6.201   7.695 -1.3001 -1.3927  1.5233
   57MOL   H33731809   6.085   6.061   7.802  1.2601 -1.3747 -0.6699
   57MOL   O33831810   6.190   6.458   7.403  0.0303  0.4885 -0.3231
   57MOL   C33931811   6.286   6.516   7.314  0.1239  0.8088  0.3282
   57MOL   C34031812   6.326   6.657   7.357 -0.1634  0.1829 -0.2252
   57MOL   C34131813   6.396   6.736   7.258 -0.2737  0.3664 -0.5029
   57MOL   C34231814   6.456   6.858   7.334 -0.4601  0.3452  0.1423
   57MOL   O34331815   6.505   6.947   7.232 -0.0618 -0.3744  0.1203
   57MOL   C34431816   6.578   7.056   7.269  0.9425 -0.0771  0.5557
   57MOL   O34531817   6.596   7.088   7.385  0.4488  0.5556  0.6122
   57MOL   C34631818   6.631   7.125   7.150 -0.5117  1.1765 -0.3138
   57MOL   C34731819   6.721   7.232   7.169  0.4044 -0.4902 -0.0744
   57MOL   C34831820   6.783   7.304   7.059  0.4134 -0.1336 -0.0021
   57MOL   C34931821   6.758   7.261   6.928  0.7084  0.5207 -0.2601
   57MOL   C35031822   6.831   7.315   6.813 -0.2371 -0.5920  0.1634
   57MOL   O35131823   6.932   7.384   6.819 -0.2195  0.2595 -0.3169
   57MOL   C35231824   6.664   7.160   6.909 -0.1620  0.5022  0.0095
   57MOL   C35331825   6.594   7.099   7.011  0.2516  0.0799 -0.7418
   57MOL   H35431826   6.377   6.459   7.297  0.6428  2.0549 -1.1835
   57MOL   H35531827   6.244   6.527   7.214  1.4180  2.1011 -0.0970
   57MOL   H35631828   6.368   6.637   7.456 -1.1304 -2.6371 -0.3471
   57MOL   H35731829   6.235   6.711   7.379 -0.1238  0.6523 -1.1793
   57MOL   H35831830   6.481   6.679   7.220 -0.0382  1.2957 -1.4146
   57MOL   H35931831   6.330   6.770   7.178  2.0273 -1.5784 -3.3319
   57MOL   H36031832   6.388   6.905   7.404  0.3877  3.5134 -1.0552
   57MOL   H36131833   6.537   6.809   7.388 -1.9629  0.0337  2.1795
   57MOL   H36231834   6.757   7.255   7.269 -0.6485  0.5977  0.0646
   57MOL   H36331835   6.849   7.384   7.088  0.3944 -0.2409  0.3411
   57MOL   H36431836   6.642   7.121   6.811 -1.6017  0.0454  0.4822
   57MOL   H36531837   6.520   7.023   6.991 -1.3918  1.6536 -0.6985
   57MOL   O36631838   6.766   7.298   6.696  0.0184 -0.2073  0.8295
   57MOL   C36731839   6.817   7.340   6.573 -0.8558 -0.0490  0.2655
   57MOL   C36831840   6.727   7.297   6.453 -0.7912  0.2946 -0.4455
   57MOL   C36931841   6.792   7.322   6.319  0.1174  0.2426  0.1685
   57MOL   C37031842   6.699   7.317   6.205  0.7653 -0.4874  0.1646
   57MOL   O37131843   6.753   7.340   6.075  0.1814  0.2107 -0.1011
   57MOL   C37231844   6.770   7.464   6.032 -0.1272  0.1387 -0.4305
   57MOL   O37331845   6.745   7.564   6.098 -0.3718  0.3811 -0.0830
   57MOL   C37431846   6.814   7.480   5.891  0.0802  0.3594 -0.2899
   57MOL   C37531847   6.834   7.367   5.801  0.3486  0.0665 -0.1180
   57MOL   C37631848   6.871   7.388   5.665 -0.5563  0.1921 -0.0350
   57MOL   C37731849   6.889   7.516   5.615  0.9422 -0.2933  1.2079
   57MOL   C37831850   6.925   7.546   5.478 -0.3295  0.2445 -0.2473
   57MOL   O37931851   6.952   7.667   5.436  0.3287 -0.4707 -0.2976
   57MOL   C38031852   6.874   7.626   5.702  0.0704 -0.3377  0.8295
   57MOL   C38131853   6.831   7.607   5.837  0.5812  0.2623 -0.5841
   57MOL   H38231854   6.812   7.449   6.578 -1.1726 -0.0672  0.3805
   57MOL   H38331855   6.917   7.298   6.566 -1.2682 -1.0056 -0.1134
   57MOL   H38431856   6.632   7.350   6.453  0.8144  3.3375  1.3446
   57MOL   H38531857   6.704   7.191   6.464  0.8947 -0.1004 -0.6048
   57MOL   H38631858   6.844   7.418   6.321  0.1126  0.2390  0.4683
   57MOL   H38731859   6.878   7.259   6.296  0.7313  0.9373  0.5286
   57MOL   H38831860   6.649   7.221   6.200 -1.5320  0.7495 -2.0068
   57MOL   H38931861   6.617   7.389   6.215 -1.0088 -2.3908 -0.4598
   57MOL   H39031862   6.813   7.267   5.837 -2.7105 -0.7421 -3.8089
   57MOL   H39131863   6.884   7.302   5.601 -0.9899 -1.2063  1.7299
   57MOL   H39231864   6.896   7.725   5.666  0.3729 -0.9554 -0.7243
   57MOL   H39331865   6.814   7.691   5.903  1.8914 -0.9392  1.3113
   57MOL   O39431866   6.927   7.433   5.399  0.2955  0.0019 -0.0023
   57MOL   C39531867   6.978   7.439   5.267 -0.8492  0.0088 -0.4743
   57MOL   C39631868   7.131   7.457   5.265  0.8839 -0.1114 -0.6123
   57MOL   C39731869   7.188   7.463   5.121 -0.3956  0.0579  0.4423
   57MOL   C39831870   7.336   7.489   5.112  0.2360  1.2005 -0.6084
   57MOL   O39931871   7.409   7.388   5.179  0.1967 -0.5242  0.4917
   57MOL   C40031872   7.399   7.255   5.150 -0.8319 -0.1080  0.5031
   57MOL   O40131873   7.323   7.205   5.068  0.7657 -0.3589  0.3871
   57MOL   C40231874   7.480   7.167   5.250 -0.0768 -0.0199 -0.3107
   57MOL   C40331875   7.480   7.024   5.237  0.3542 -0.0886  0.0035
   57MOL   C40431876   7.560   6.940   5.321 -0.3595  1.1088 -0.0742
   57MOL   C40531877   7.654   6.993   5.417 -0.1411 -0.4000  1.1722
   57MOL   C40631878   7.738   6.913   5.504  0.3084 -0.3174 -0.1672
   57MOL   O40731879   7.748   6.790   5.489  0.5198 -0.5455 -0.3519
   57MOL   C40831880   7.643   7.132   5.436 -0.1644 -0.6308  0.0802
   57MOL   C40931881   7.555   7.214   5.361  0.0605  0.0030  0.2900
   57MOL   H41031882   6.956   7.340   5.228  1.4524 -0.8329  0.2824
   57MOL   H41131883   6.926   7.514   5.209 -2.0286 -0.5320 -0.1252
   57MOL   H41231884   7.185   7.385   5.326  0.0325  0.2855  0.6347
   57MOL   H41331885   7.153   7.543   5.328 -3.6109 -0.4357  1.6747
   57MOL   H41431886   7.164   7.367   5.075  2.1919 -1.2879  1.8027
   57MOL   H41531887   7.140   7.543   5.064  0.6501  0.4737  0.1515
   57MOL   H41631888   7.360   7.492   5.006  0.0209 -0.5120 -0.7123
   57MOL   H41731889   7.352   7.589   5.153 -1.7685  0.9378  0.8584
   57MOL   H41831890   7.411   6.979   5.168  1.0701 -2.5746  0.8730
   57MOL   H41931891   7.559   6.833   5.308  3.6365  1.2189 -2.0178
   57MOL   H42031892   7.700   7.181   5.514 -1.1057  1.5308 -0.5691
   57MOL   H42131893   7.545   7.318   5.387 -1.8139 -0.0708 -0.1304
   57MOL   O42231894   7.794   6.985   5.602  0.4765 -1.1260 -0.2867
   57MOL   C42331895   7.853   6.915   5.714 -0.0309  0.2817  0.6495
   57MOL   C42431896   7.993   6.863   5.685 -0.8930 -0.0440 -0.1471
   57MOL   C42531897   0.001   6.964   5.626 -0.5263 -0.6990  0.4914
   57MOL   C42631898   0.137   6.909   5.606 -0.7215 -0.3010  0.3439
   57MOL   O42731899   0.188   6.869   5.735 -0.2913  0.0755  0.1740
   57MOL   C42831900   0.217   6.739   5.766  0.3876 -0.4709  0.7619
   57MOL   O42931901   0.209   6.649   5.683  0.1119  0.3624  0.3078
   57MOL   C43031902   0.233   6.720   5.911 -0.1696  1.0480 -0.2041
   57MOL   C43131903   0.254   6.593   5.959  0.3857 -0.4941 -0.0323
   57MOL   C43231904   0.281   6.570   6.095 -0.3154 -0.1194 -0.2995
   57MOL   C43331905   0.291   6.677   6.184 -0.1391  0.2336  0.4998
   57MOL   C43431906   0.318   6.647   6.330 -0.1843  0.6478  0.5548
   57MOL   O43531907   0.320   6.741   6.407 -0.3543  0.0228 -0.4681
   57MOL   C43631908   0.276   6.806   6.140  0.9828 -0.7139 -0.4290
   57MOL   C43731909   0.248   6.835   6.005  0.0527 -0.2824 -1.0126
   57MOL   H43831910   7.838   6.987   5.795  1.9700  0.0636  1.2306
   57MOL   H43931911   7.789   6.830   5.739  0.3832 -0.0424  0.6087
   57MOL   H44031912   7.974   6.777   5.620 -1.6237 -0.3905  0.5084
   57MOL   H44131913   8.027   6.809   5.773  1.0023 -1.6859 -1.8370
   57MOL   H44231914   8.054   6.991   5.531 -1.2255 -2.9007  0.1763
   57MOL   H44331915   0.004   7.048   5.697  0.7627  0.3389 -0.7630
   57MOL   H44431916   0.128   6.817   5.548 -1.1085 -1.3662  2.0666
   57MOL   H44531917   0.205   6.983   5.564  0.3917 -0.0169  2.6023
   57MOL   H44631918   0.253   6.508   5.893  0.2604 -0.2169 -0.3909
   57MOL   H44731919   0.269   6.470   6.133  2.5996 -0.3086  0.2149
   57MOL   H44831920   0.280   6.890   6.208 -0.5609  0.7567 -2.1067
   57MOL   H44931921   0.245   6.941   5.983 -1.1834 -0.5624 -2.2422
   57MOL   O45031922   0.324   6.520   6.366  0.0049 -0.3413 -0.3441
   57MOL   C45131923   0.316   6.469   6.501 -0.1880  1.0361  0.5252
   57MOL   C45231924   0.207   6.355   6.510  0.1906 -0.0655 -0.0509
   57MOL   C45331925   0.206   6.285   6.644  0.8599 -0.7113  0.4262
   57MOL   C45431926   0.084   6.200   6.670  0.1666  0.1297 -0.3891
   57MOL   O45531927   0.094   6.141   6.798 -0.1058  0.8589 -0.0495
   57MOL   C45631928   8.098   6.048   6.827 -0.3913  1.0493  0.3044
   57MOL   O45731929   8.011   6.018   6.748  0.1069 -0.0999 -0.2396
   57MOL   C45831930   0.008   6.015   6.973  0.0122  0.0229  0.2140
   57MOL   C45931931   0.123   6.047   7.050  0.6935 -0.0157 -0.4505
   57MOL   C46031932   0.132   6.010   7.192 -0.3929 -0.9882 -0.4182
   57MOL   C46131933   0.018   5.954   7.252  0.1741  0.0934  0.3896
   57MOL   C46231934   0.033   5.926   7.399 -0.2950  0.1321 -0.1788
   57MOL   O46331935   0.140   5.916   7.457  0.0306 -0.0452  0.2699
   57MOL   C46431936   7.998   5.929   7.178  0.6374 -0.0370 -0.0911
   57MOL   C46531937   7.989   5.962   7.038 -0.1331 -0.1731  0.7360
   57MOL   H46631938   0.415   6.427   6.522 -0.0163  1.6347  0.9145
   57MOL   H46731939   0.301   6.550   6.572 -1.3033  1.5100 -0.2451
   57MOL   H46831940   0.219   6.278   6.435  0.4905 -0.1527  0.0886
   57MOL   H46931941   0.111   6.406   6.496  1.2462  2.8623  2.5792
   57MOL   H47031942   0.295   6.226   6.666  0.3061 -1.8439 -0.2999
   57MOL   H47131943   0.201   6.355   6.727 -1.5257  0.2565 -0.5008
   57MOL   H47231944   8.080   6.237   6.665 -0.5998 -2.2162 -3.6850
   57MOL   H47331945   0.087   6.132   6.585  0.4862  0.5272 -0.7015
   57MOL   H47431946   0.208   6.096   7.004  1.5608  0.9044  2.0036
   57MOL   H47531947   0.222   6.035   7.247 -1.2546  1.0344  0.1070
   57MOL   H47631948   7.916   5.887   7.234  0.1394  0.2946 -0.5626
   57MOL   H47731949   7.901   5.936   6.982 -1.1681  0.3935  2.0711
   57MOL   O47831950   8.014   5.927   7.456  0.0326 -0.2260  0.2207
   57MOL   C47931951   8.006   5.926   7.595  0.4529  0.1865 -0.1817
   57MOL   C48031952   7.861   5.941   7.643  0.0617  0.5307 -0.1395
   57MOL   C48131953   7.800   6.078   7.617  0.3333  0.0049 -0.0951
   57MOL   C48231954   7.847   6.184   7.705 -0.7227 -0.1506  0.3680
   57MOL   O48331955   7.970   6.240   7.664 -0.5878  0.0224  0.4964
   57MOL   C48431956   7.980   6.376   7.662 -0.3122 -0.4061  0.8177
   57MOL   O48531957   7.883   6.446   7.706  0.1312  0.1318 -0.0159
   57MOL   C48631958   0.013   6.425   7.616 -0.0279  0.3655 -0.5546
   57MOL   C48731959   0.053   6.554   7.648  0.3648 -0.4592  0.8382
   57MOL   C48831960   0.172   6.614   7.602  0.0799  0.8685 -0.4365
   57MOL   C48931961   0.262   6.526   7.536 -0.7186  0.8746 -0.5183
   57MOL   C49031962   0.391   6.588   7.483  0.3782 -0.2333 -0.1976
   57MOL   O49131963   0.418   6.707   7.509  0.1349 -0.0488 -0.2933
   57MOL   C49231964   0.235   6.390   7.513 -0.1522 -0.5986 -0.1105
   57MOL   C49331965   0.105   6.340   7.552 -0.4313  0.1628 -0.0665
   57MOL   H49431966   8.047   5.832   7.632 -1.3920 -0.6249 -0.1406
   57MOL   H49531967   8.063   6.008   7.638  0.7014  0.2184 -0.5734
   57MOL   H49631968   7.854   5.920   7.749 -2.0581 -0.7812 -0.5161
   57MOL   H49731969   7.794   5.862   7.610  0.5025  0.5484 -1.1122
   57MOL   H49831970   7.810   6.107   7.512 -2.0567  0.1231 -0.3096
   57MOL   H49931971   7.692   6.071   7.621 -0.0450  3.8317 -1.5746
   57MOL   H50031972   7.769   6.258   7.689 -0.0196  0.4902 -0.1142
   57MOL   H50131973   7.850   6.147   7.808 -0.7813  1.2756  0.8911
   57MOL   H50231974   8.090   6.613   7.715 -0.5534 -0.1087 -0.3077
   57MOL   H50331975   0.201   6.715   7.627  2.4778  0.2439 -0.5634
   57MOL   H50431976   0.304   6.331   7.456 -0.2640 -0.6623 -0.1787
   57MOL   H50531977   0.084   6.239   7.523  0.4579 -0.3500  1.0348
   57MOL   O50631978   0.469   6.513   7.408  1.1517 -0.2220  0.3928
   57MOL   C50731979   0.588   6.564   7.355  0.6191 -0.0166 -0.0102
   57MOL   C50831980   0.711   6.496   7.426  0.0727  0.0565 -0.2692
   57MOL   C50931981   0.730   6.560   7.571  0.5009 -0.6752  0.2819
   57MOL   C51031982   0.855   6.504   7.645  0.5627 -0.0684 -0.6890
   57MOL   O51131983   0.820   6.376   7.685  0.2535 -0.6793 -0.1856
   57MOL   C51231984   0.878   6.303   7.783  0.1858  0.4547 -0.0318
   57MOL   O51331985   0.985   6.332   7.841 -0.1275 -0.5147  0.0754
   57MOL   C51431986   0.803   6.181   7.813  0.1613  0.8227  0.6265
   57MOL   C51531987   0.680   6.153   7.749 -0.5001  0.3065 -0.1122
   57MOL   C51631988   0.616   6.034   7.775  0.0845 -0.1765  0.1655
   57MOL   C51731989   0.674   5.941   7.866  1.0424 -0.5239  0.1078
   57MOL   C51831990   0.610   5.811   7.894 -0.1938  0.7647 -0.8808
   57MOL   O51931991   0.667   5.722   7.952  0.0762  0.2149 -0.3394
   57MOL   C52031992   0.786   5.974   7.941 -0.3273 -0.1483 -0.5906
   57MOL   C52131993   0.855   6.094   7.912  0.2682  0.5514  0.4483
   57MOL   H52231994   0.590   6.539   7.249 -1.2862 -1.6655  0.3133
   57MOL   H52331995   0.603   6.671   7.367 -0.4637  0.2639 -1.0115
   57MOL   H52431996   0.808   6.512   7.378 -0.4312 -2.0337 -2.0313
   57MOL   H52531997   0.696   6.392   7.454 -0.0950  0.7427  2.4088
   57MOL   H52631998   0.733   6.669   7.570 -0.0198 -0.6473  1.3971
   57MOL   H52731999   0.642   6.528   7.626  2.2694 -1.0950  2.9184
   57MOL   H52832000   0.948   6.512   7.589  0.0058  1.1516 -1.4666
   57MOL   H52932001   0.877   6.556   7.738  0.0350 -0.5450 -0.2996
   57MOL   H53032002   0.642   6.224   7.677  0.6215 -0.0223 -1.0493
   57MOL   H53132003   0.524   6.007   7.726 -0.5364  1.0097  0.6425
   57MOL   H53232004   0.818   5.897   8.010 -3.4107 -1.2634 -0.3259
   57MOL   H53332005   0.951   6.108   7.960  0.4963 -0.0635  0.1880
   57MOL   O53432006   0.487   5.797   7.836  0.4492  0.0093 -0.4129
   57MOL   C53532007   0.424   5.668   7.847 -0.4417  0.8839 -0.2277
   57MOL   C53632008   0.282   5.677   7.860 -0.0953 -0.1623  0.1217
   57MOL   C53732009   0.234   5.752   7.989 -0.7154 -0.2280 -0.3150
   57MOL   C53832010   0.309   5.710   0.019 -0.9551  0.5139 -0.8299
   57MOL   O53932011   0.256   5.589   0.083  0.1897  0.0300  0.0543
   57MOL   C54032012   0.318   5.472   0.076  0.1968 -0.0310 -0.0275
   57MOL   O54132013   0.432   5.466   0.031 -0.0608 -0.4985 -0.1494
   57MOL   C54232014   0.248   5.358   0.142  0.7645  0.2375 -0.2226
   57MOL   C54332015   0.264   5.221   0.099  0.3506 -0.4021  0.5859
   57MOL   C54432016   0.193   5.125   0.168  0.4344  0.5026 -1.6112
   57MOL   C54532017   0.110   5.156   0.279 -0.1529 -0.4051  0.3406
   57MOL   C54632018   0.042   5.044   0.360  0.6118 -0.3371  0.3693
   57MOL   O54732019   0.017   4.935   0.313 -0.3911 -0.0585 -0.2769
   57MOL   C54832020   0.082   5.291   0.302  0.6711  0.3897 -0.2694
   57MOL   C54932021   0.153   5.392   0.239 -0.0993  0.6602 -0.0010
   57MOL   H55032022   0.453   5.595   7.772  1.7645  1.6051 -0.1118
   57MOL   H55132023   0.472   5.612   7.928  0.5432  0.7870 -0.8772
   57MOL   H55232024   0.245   5.575   7.866  0.4344 -0.2457  1.9534
   57MOL   H55332025   0.242   5.732   7.774  1.4793  1.9495  0.6952
   57MOL   H55432026   0.256   5.858   7.973 -1.2286  0.2312  1.9081
   57MOL   H55532027   0.126   5.748   8.005 -0.9275 -0.0095 -1.5705
   57MOL   H55632028   0.417   5.703   0.007 -0.3696  2.0837  2.6729
   57MOL   H55732029   0.313   5.788   0.095 -0.5026  0.1560 -0.4787
   57MOL   H55832030   0.340   5.176   0.036 -0.0020 -0.1446 -0.0310
   57MOL   H55932031   0.210   5.022   0.141 -0.9955  0.6722 -3.2138
   57MOL   H56032032   0.011   5.317   0.380  1.4313  0.6366  0.3434
   57MOL   H56132033   0.130   5.494   0.264  1.0304  0.5601  1.5178
   57MOL   H56232034   0.018   5.064   0.464  1.2982  0.8604  0.3010
   58MOL     O132035   4.301   4.154   5.792  0.2236 -0.0490  0.2625
   58MOL     C232036   4.439   4.142   5.764  0.6167 -0.0142  0.0454
   58MOL     C332037   4.513   4.279   5.770  0.9356  0.3183  0.2577
   58MOL     C432038   4.659   4.279   5.729  0.2891 -0.1590  0.1905
   58MOL     C532039   4.736   4.406   5.767  0.2677  0.2314 -0.0722
   58MOL     O632040   4.669   4.518   5.724 -0.1314  0.6404  0.0675
   58MOL     C732041   4.719   4.644   5.756 -0.2323 -0.0185 -0.1375
   58MOL     O832042   4.813   4.653   5.836 -0.0958 -0.0037 -0.2668
   58MOL     C932043   4.647   4.752   5.675  0.5565  0.8172  0.6963
   58MOL    C1032044   4.716   4.868   5.635  0.5243  0.8689 -0.0066
   58MOL    C1132045   4.654   4.970   5.560 -0.4574  1.0370 -0.2392
   58MOL    C1232046   4.519   4.965   5.531  0.4600  0.4027 -0.3907
   58MOL    C1332047   4.452   5.089   5.459 -0.0384 -0.0143 -0.0500
   58MOL    O1432048   4.509   5.199   5.436 -0.0345 -0.3733 -0.3797
   58MOL    C1532049   4.447   4.848   5.561  0.1038  0.3084 -0.2930
   58MOL    C1632050   4.519   4.736   5.630  0.2403  0.2117  0.5374
   58MOL    H1732051   4.486   4.076   5.836  2.8830  1.1233 -0.3472
   58MOL    H1832052   4.458   4.111   5.661 -1.1736  0.9984 -0.6026
   58MOL    H1932053   4.510   4.315   5.872  2.2069  0.6344  0.1878
   58MOL    H2032054   4.459   4.348   5.705  0.4529 -0.4124 -0.1341
   58MOL    H2132055   4.708   4.189   5.765  2.2030  1.3687  1.4824
   58MOL    H2232056   4.648   4.265   5.621 -0.9636  0.3220  0.2504
   58MOL    H2332057   4.741   4.406   5.876  0.2494 -2.2193 -0.0501
   58MOL    H2432058   4.840   4.412   5.735  0.4592 -1.1795  0.2603
   58MOL    H2532059   4.823   4.876   5.650  0.9812  1.4963 -3.3318
   58MOL    H2632060   4.721   5.048   5.526 -0.0493 -0.0698 -2.0284
   58MOL    H2732061   4.342   4.832   5.538  0.1350 -3.2478  1.6612
   58MOL    H2832062   4.472   4.640   5.647 -0.4719  0.4770  0.1215
   58MOL    H2932063   4.285   4.159   5.885 -1.3678  2.3279 -0.1061
   58MOL    O3032064   4.325   5.072   5.430  0.2719 -0.4156  0.3990
   58MOL    C3132065   4.247   5.184   5.417 -0.3401 -0.5687  0.3124
   58MOL    C3232066   4.169   5.186   5.287  0.4305 -0.0729 -0.0154
   58MOL    C3332067   4.251   5.225   5.169  0.8718 -0.3076  0.1444
   58MOL    C3432068   4.174   5.216   5.035  0.0300  0.3059  0.0111
   58MOL    O3532069   4.049   5.282   5.052 -0.1183 -0.9610  0.3980
   58MOL    C3632070   3.994   5.345   4.944  0.3127  0.1582 -0.6392
   58MOL    O3732071   4.061   5.373   4.847  0.7190 -0.0471  0.6395
   58MOL    C3832072   3.842   5.357   4.945 -0.1049  0.0138 -1.0296
   58MOL    C3932073   3.768   5.337   5.067 -0.8312 -0.1479  0.0518
   58MOL    C4032074   3.628   5.336   5.074 -0.3050 -0.1677 -0.0900
   58MOL    C4132075   3.563   5.381   4.954 -0.5152 -0.5933 -0.1865
   58MOL    C4232076   3.410   5.387   4.950 -0.0679 -0.0509 -0.8502
   58MOL    O4332077   3.343   5.415   4.849 -0.1136 -0.2652 -0.1170
   58MOL    C4432078   3.639   5.413   4.837 -0.0207 -1.1749 -0.2193
   58MOL    C4532079   3.777   5.410   4.832 -0.6011 -0.8609  0.0083
   58MOL    H4632080   4.176   5.190   5.499  1.6155  0.7283  1.9584
   58MOL    H4732081   4.307   5.275   5.407  0.6628 -1.3768 -1.2502
   58MOL    H4832082   4.091   5.263   5.294  2.3975  1.7898  2.1548
   58MOL    H4932083   4.125   5.087   5.277  0.4645 -0.2677  1.7618
   58MOL    H5032084   4.292   5.324   5.188  2.1801 -0.9043  0.5089
   58MOL    H5132085   4.342   5.166   5.166  0.1751 -1.4312  0.4702
   58MOL    H5232086   4.238   5.271   4.966  0.4327  0.8515  0.8026
   58MOL    H5332087   4.147   5.113   5.014 -0.9105  0.3778  0.7921
   58MOL    H5432088   3.816   5.309   5.159 -1.9668 -1.2414  0.3303
   58MOL    H5532089   3.572   5.318   5.165 -0.9224 -1.1542 -0.6563
   58MOL    H5632090   3.593   5.458   4.750 -0.2183  1.1590  1.0509
   58MOL    H5732091   3.838   5.436   4.747 -0.9318 -1.4025 -0.3981
   58MOL    O5832092   3.343   5.338   5.060  0.6754  0.2867  0.0675
   58MOL    C5932093   3.199   5.342   5.066 -0.7008 -0.4659  0.2625
   58MOL    C6032094   3.163   5.434   5.180 -1.2414 -0.5129  0.3346
   58MOL    C6132095   3.224   5.400   5.323 -0.3905 -0.0175 -0.2710
   58MOL    C6232096   3.194   5.500   5.433  0.1237 -0.7206 -0.6485
   58MOL    O6332097   3.049   5.499   5.447  0.4307 -0.0935 -0.1096
   58MOL    C6432098   3.001   5.519   5.575  0.3300  0.7644 -0.4099
   58MOL    O6532099   3.075   5.550   5.672  0.4152 -0.3244 -0.3323
   58MOL    C6632100   2.848   5.507   5.592  0.1945 -0.1375  0.0688
   58MOL    C6732101   2.792   5.536   5.719  0.1907 -0.0338  0.7446
   58MOL    C6832102   2.653   5.511   5.733 -0.2856  0.5473  0.5001
   58MOL    C6932103   2.572   5.452   5.631  0.3743  0.2322 -0.1441
   58MOL    C7032104   2.430   5.431   5.665  0.1468  0.7145 -0.3552
   58MOL    O7132105   2.379   5.461   5.772  0.5127 -0.0611 -0.0492
   58MOL    C7232106   2.635   5.425   5.510  1.0202  0.0815 -0.0115
   58MOL    C7332107   2.776   5.441   5.494 -0.0174  0.8026  0.2189
   58MOL    H7432108   3.140   5.380   4.983 -0.3453  2.3939  1.2620
   58MOL    H7532109   3.160   5.240   5.077 -1.5911 -0.0119  1.4582
   58MOL    H7632110   3.054   5.441   5.178 -1.2384 -0.2226  1.1830
   58MOL    H7732111   3.191   5.531   5.140  0.8368 -1.6313 -1.0194
   58MOL    H7832112   3.178   5.308   5.357 -0.2158  0.1599  0.4564
   58MOL    H7932113   3.330   5.378   5.324  0.1431  2.3812  0.1154
   58MOL    H8032114   3.236   5.475   5.530 -0.0538  1.0283 -0.1019
   58MOL    H8132115   3.218   5.604   5.411 -2.3477  0.8122  3.3461
   58MOL    H8232116   2.854   5.577   5.798 -1.4493  0.5724  1.7419
   58MOL    H8332117   2.608   5.536   5.828  1.2693 -0.7465  1.6174
   58MOL    H8432118   2.574   5.388   5.429  0.6279 -0.6859  0.6438
   58MOL    H8532119   2.817   5.403   5.401  0.2571 -0.5416  0.8725
   58MOL    O8632120   2.355   5.378   5.574 -0.7690 -0.4248  0.5264
   58MOL    C8732121   2.230   5.315   5.601  0.3551 -0.2995 -0.6001
   58MOL    C8832122   2.215   5.189   5.520 -0.3625 -0.4706 -0.4933
   58MOL    C8932123   2.197   5.212   5.373 -0.7236  0.4776 -0.5891
   58MOL    C9032124   2.060   5.266   5.332  0.0395 -0.3182  0.2489
   58MOL    O9132125   1.972   5.161   5.366  0.3656  0.5646 -0.0884
   58MOL    C9232126   1.838   5.195   5.365 -0.0107  0.6266  0.2145
   58MOL    O9332127   1.793   5.309   5.337 -0.2282  0.3215 -0.0133
   58MOL    C9432128   1.746   5.072   5.379  0.1577 -0.0423  0.1042
   58MOL    C9532129   1.605   5.079   5.365  0.5821  1.0482 -0.0349
   58MOL    C9632130   1.527   4.962   5.374  0.7634 -0.0319 -0.1559
   58MOL    C9732131   1.583   4.837   5.396  0.0628 -0.3909 -0.2534
   58MOL    C9832132   1.501   4.714   5.414 -0.9466  0.1444 -0.0009
   58MOL    O9932133   1.377   4.719   5.392  0.5406 -0.3989  0.0099
   58MOL   C10032134   1.721   4.835   5.418  0.9176  0.3916  0.0715
   58MOL   C10132135   1.798   4.951   5.415 -1.0095  0.9240 -0.6845
   58MOL   H10232136   2.230   5.267   5.699 -0.1955  0.4007 -0.2531
   58MOL   H10332137   2.144   5.381   5.591  0.1201 -0.3748  0.8212
   58MOL   H10432138   2.131   5.131   5.557 -0.4382  0.8949  1.5603
   58MOL   H10532139   2.302   5.125   5.533 -0.0349  0.3468  1.4998
   58MOL   H10632140   2.278   5.276   5.339 -1.4904  1.5423 -0.4329
   58MOL   H10732141   2.209   5.117   5.321 -3.7468  0.3085 -1.0625
   58MOL   H10832142   2.033   5.355   5.388 -0.7743 -0.7451  0.5373
   58MOL   H10932143   2.051   5.293   5.226 -0.8782 -1.3091  0.0618
   58MOL   H11032144   1.560   5.177   5.357  2.8727  1.8519 -4.1830
   58MOL   H11132145   1.421   4.962   5.357  0.8635 -0.0004 -0.8018
   58MOL   H11232146   1.778   4.745   5.435  2.7293  1.1910 -1.6142
   58MOL   H11332147   1.904   4.939   5.429 -1.3009 -2.3743 -0.9682
   58MOL   O11432148   1.570   4.602   5.449  0.6690  0.2260  0.3979
   58MOL   C11532149   1.503   4.490   5.502 -0.6070 -0.1973 -0.1613
   58MOL   C11632150   1.560   4.453   5.638 -0.8310 -0.0235 -0.3885
   58MOL   C11732151   1.544   4.564   5.739  0.3786  0.3422 -0.0281
   58MOL   C11832152   1.599   4.517   5.877  0.7742  0.2576 -0.3503
   58MOL   O11932153   1.735   4.504   5.854  0.6293 -0.8821 -0.3365
   58MOL   C12032154   1.814   4.489   5.960 -0.1099  0.9622  0.4914
   58MOL   O12132155   1.781   4.517   6.078 -0.0997  0.1675  0.4419
   58MOL   C12232156   1.953   4.451   5.930  0.7894  0.5099  0.4651
   58MOL   C12332157   1.979   4.420   5.797 -0.3956 -0.1276  0.4572
   58MOL   C12432158   2.112   4.417   5.754 -0.2821  0.4724  0.2397
   58MOL   C12532159   2.219   4.442   5.846  0.3325 -0.0336  0.0840
   58MOL   C12632160   2.361   4.439   5.794 -0.0261 -0.5894 -0.6402
   58MOL   O12732161   2.461   4.484   5.854  0.1475  0.4767  0.0578
   58MOL   C12832162   2.192   4.459   5.979  0.4091 -0.2967  0.3522
   58MOL   C12932163   2.060   4.460   6.021 -0.0396  0.2805  0.5247
   58MOL   H13032164   1.396   4.511   5.501 -0.4378  0.6700 -1.8119
   58MOL   H13132165   1.506   4.408   5.431 -1.0496  0.5679 -1.0727
   58MOL   H13232166   1.664   4.428   5.622 -1.0359 -2.0490  1.3054
   58MOL   H13332167   1.508   4.366   5.679 -0.4069 -0.4282 -0.7166
   58MOL   H13432168   1.587   4.660   5.713 -0.8395  1.3707  1.6497
   58MOL   H13532169   1.437   4.580   5.748  0.3379 -0.1197  0.3844
   58MOL   H13632170   1.566   4.594   5.947  0.6263  0.2278 -0.3878
   58MOL   H13732171   1.564   4.422   5.917  4.4355 -0.7176  0.6626
   58MOL   H13832172   1.890   4.396   5.740 -0.0987  1.4889 -0.7018
   58MOL   H13932173   2.112   4.399   5.647  1.4865 -0.8783  0.4489
   58MOL   H14032174   2.275   4.477   6.046 -0.0917 -3.6619  1.9931
   58MOL   H14132175   2.042   4.488   6.124  1.2085 -1.0006  1.1056
   58MOL   O14232176   2.367   4.395   5.668  0.1060 -0.3802 -0.1235
   58MOL   C14332177   2.492   4.359   5.608  0.1227 -0.7028 -0.1611
   58MOL   C14432178   2.455   4.319   5.462 -0.0727  0.2997 -0.2798
   58MOL   C14532179   2.417   4.440   5.379 -0.4590 -0.5502  0.5630
   58MOL   C14632180   2.509   4.560   5.386  0.2637  0.1558  0.5250
   58MOL   O14732181   2.437   4.670   5.332  0.2745 -0.6352  0.3178
   58MOL   C14832182   2.487   4.781   5.282 -0.5764  0.0924 -0.4103
   58MOL   O14932183   2.607   4.814   5.302  0.0553  0.4750  0.4413
   58MOL   C15032184   2.382   4.863   5.210  0.3574 -0.0364 -0.2574
   58MOL   C15132185   2.419   4.988   5.154  0.6034  0.6573 -0.2396
   58MOL   C15232186   2.323   5.071   5.093  0.7340  0.8464  0.5167
   58MOL   C15332187   2.187   5.025   5.075  0.0943  0.3153 -0.2026
   58MOL   C15432188   2.096   5.114   4.998  0.0547  0.2415 -0.3249
   58MOL   O15532189   2.127   5.218   4.942 -0.1426  0.7464  0.2943
   58MOL   C15632190   2.144   4.895   5.129  0.0048  0.6647  0.4662
   58MOL   C15732191   2.243   4.820   5.195 -0.5807 -0.7785  0.6072
   58MOL   H15832192   2.562   4.443   5.619 -0.5337 -0.0607 -0.8400
   58MOL   H15932193   2.533   4.269   5.655 -0.0124 -0.1558  1.0450
   58MOL   H16032194   2.386   4.235   5.451  1.4299 -0.8995 -0.7484
   58MOL   H16132195   2.546   4.269   5.427  0.1866  0.5868 -0.0166
   58MOL   H16232196   2.409   4.423   5.272  0.9237  0.2728  0.3208
   58MOL   H16332197   2.322   4.485   5.410  1.1410  2.1401  1.6901
   58MOL   H16432198   2.541   4.588   5.486 -1.6632  1.6409  0.7425
   58MOL   H16532199   2.591   4.535   5.318 -0.3468 -1.6140  0.4182
   58MOL   H16632200   2.522   5.020   5.160  1.4697 -1.6783 -1.8852
   58MOL   H16732201   2.344   5.174   5.069  1.1937  1.1043  2.0060
   58MOL   H16832202   2.040   4.870   5.146  0.2300  0.9444  2.2690
   58MOL   H16932203   2.214   4.725   5.237 -1.7497 -0.4558  0.5367
   58MOL   O17032204   1.971   5.070   4.999 -1.1183  0.1552  0.4827
   58MOL   C17132205   1.861   5.124   4.919 -0.0077 -0.0624 -0.4089
   58MOL   C17232206   1.767   5.193   5.020  0.1439  0.3475 -1.1631
   58MOL   C17332207   1.619   5.227   4.972  0.3357 -0.4000  0.9503
   58MOL   C17432208   1.519   5.107   4.954 -0.5361 -0.1658  0.5305
   58MOL   O17532209   1.417   5.140   4.865 -0.0996  0.0045 -0.3501
   58MOL   C17632210   1.437   5.133   4.732  0.1087 -0.1878  0.0068
   58MOL   O17732211   1.542   5.094   4.677  0.0463 -0.1066  0.2179
   58MOL   C17832212   1.311   5.167   4.660 -0.0104 -0.6773 -0.0363
   58MOL   C17932213   1.294   5.125   4.527 -0.5159  0.7874 -0.4395
   58MOL   C18032214   1.171   5.140   4.468 -0.5052 -0.1742  0.2165
   58MOL   C18132215   1.064   5.207   4.535 -0.4357  1.0530 -0.3171
   58MOL   C18232216   0.935   5.232   4.471  0.0936  0.0129 -0.3326
   58MOL   O18332217   0.898   5.191   4.357 -0.2404  0.2490 -0.3524
   58MOL   C18432218   1.076   5.242   4.675 -0.1031 -0.8147  0.8369
   58MOL   C18532219   1.200   5.224   4.732  0.0940 -0.7610  0.5404
   58MOL   H18632220   1.889   5.185   4.833 -1.2928  0.6728 -0.3263
   58MOL   H18732221   1.810   5.039   4.875 -1.4944  0.6761 -0.1485
   58MOL   H18832222   1.806   5.284   5.064  2.1096 -1.4497  0.9116
   58MOL   H18932223   1.761   5.120   5.101 -2.0903  1.1395 -0.5717
   58MOL   H19032224   1.572   5.291   5.046  0.2922  0.0500  0.5337
   58MOL   H19132225   1.627   5.287   4.882  0.8236 -3.1403 -0.9067
   58MOL   H19232226   1.577   5.029   4.906  0.0620 -0.1670  1.2554
   58MOL   H19332227   1.477   5.068   5.047 -4.0067 -1.0712 -1.3062
   58MOL   H19432228   1.374   5.074   4.475 -1.4151 -0.1034 -0.9850
   58MOL   H19532229   1.166   5.104   4.366 -0.7147 -1.5773  0.7052
   58MOL   H19632230   0.994   5.278   4.735 -0.6572  0.5715 -0.7189
   58MOL   H19732231   1.212   5.244   4.837 -0.6751 -0.8794  0.6536
   58MOL   O19832232   0.865   5.329   4.545 -0.3717 -0.2029  0.5939
   58MOL   C19932233   0.753   5.383   4.488 -0.3710  0.2665 -0.4483
   58MOL   C20032234   0.716   5.503   4.574  0.1703  0.2076 -0.1381
   58MOL   C20132235   0.792   5.626   4.523  0.0104 -0.4468  0.0308
   58MOL   C20232236   0.811   5.734   4.631 -0.1046 -0.4683  0.2596
   58MOL   O20332237   0.926   5.702   4.702  0.5606  0.1832 -0.8894
   58MOL   C20432238   0.981   5.787   4.786 -0.7406 -0.6786 -0.0735
   58MOL   O20532239   0.923   5.890   4.836 -0.6499 -0.2067 -0.6117
   58MOL   C20632240   1.118   5.748   4.822  0.1559  0.3012  0.2444
   58MOL   C20732241   1.168   5.622   4.786 -0.1149 -0.2640  0.4766
   58MOL   C20832242   1.299   5.578   4.822  1.2282  0.2236 -0.1089
   58MOL   C20932243   1.373   5.662   4.903  0.3593  0.7076 -0.0871
   58MOL   C21032244   1.514   5.624   4.943  0.5796  0.6107 -0.0451
   58MOL   O21132245   1.589   5.539   4.883 -0.4995 -0.2683  0.1311
   58MOL   C21232246   1.321   5.790   4.940 -0.0370  0.5570 -0.0211
   58MOL   C21332247   1.195   5.833   4.903 -0.3811  0.3591  0.4427
   58MOL   H21432248   0.759   5.416   4.384 -0.1448  2.1932  0.1458
   58MOL   H21532249   0.673   5.310   4.492 -1.9235  1.9802  0.7715
   58MOL   H21632250   0.744   5.478   4.676  0.9591  3.4147  0.5065
   58MOL   H21732251   0.609   5.522   4.574 -0.2049 -1.8412 -0.8025
   58MOL   H21832252   0.884   5.591   4.476 -0.3911 -1.2383 -0.1714
   58MOL   H21932253   0.740   5.657   4.433  0.5744  1.7618  0.4419
   58MOL   H22032254   0.814   5.832   4.584  0.0840 -0.2613  0.7114
   58MOL   H22132255   0.724   5.731   4.696  0.1071 -0.7886  0.5314
   58MOL   H22232256   1.099   5.557   4.735  0.2677  0.1687 -0.6056
   58MOL   H22332257   1.337   5.480   4.796  0.1453  0.0307 -0.9864
   58MOL   H22432258   1.390   5.857   4.988  0.6532 -0.1194 -0.0506
   58MOL   H22532259   1.153   5.928   4.932 -1.9763 -0.1969 -0.0308
   58MOL   O22632260   1.568   5.705   5.049 -0.3400  0.1024  0.4029
   58MOL   C22732261   1.706   5.700   5.096  0.4176 -0.5747  0.0713
   58MOL   C22832262   1.725   5.814   5.192 -0.2179 -0.4566 -0.3277
   58MOL   C22932263   1.686   5.946   5.133  0.2051 -0.7046 -0.7177
   58MOL   C23032264   1.743   5.965   4.988 -0.5622 -0.1813 -0.2548
   58MOL   O23132265   1.884   5.943   5.002  0.1287  0.6049 -0.5419
   58MOL   C23232266   1.958   5.964   4.893  0.3616  1.0257  0.0685
   58MOL   O23332267   1.911   5.965   4.779  0.0279 -0.5198 -0.2721
   58MOL   C23432268   2.103   5.961   4.927  0.4725  1.0270  0.0856
   58MOL   C23532269   2.190   5.966   4.818 -0.3181 -1.1674  0.4355
   58MOL   C23632270   2.329   5.976   4.845 -0.3119 -0.6250  0.3885
   58MOL   C23732271   2.377   5.967   4.976  0.4520 -0.0375 -0.8842
   58MOL   C23832272   2.528   5.953   4.989 -0.8926  0.3874  0.4238
   58MOL   O23932273   2.583   5.940   5.096  0.1026 -0.1105  0.2365
   58MOL   C24032274   2.286   5.947   5.080 -0.0827  0.4000 -0.5079
   58MOL   C24132275   2.153   5.960   5.062  0.0171  0.5574  1.0190
   58MOL   H24232276   1.727   5.598   5.125  1.4824 -0.3066  0.2403
   58MOL   H24332277   1.777   5.707   5.014  1.7974 -1.0890  1.2069
   58MOL   H24432278   1.830   5.815   5.223 -0.5510 -1.3486  0.8593
   58MOL   H24532279   1.675   5.791   5.286  0.7486 -0.6433  0.1485
   58MOL   H24632280   1.577   5.943   5.128  0.1069  1.2725 -0.2481
   58MOL   H24732281   1.718   6.030   5.195 -2.1738 -1.4036  1.5716
   58MOL   H24832282   1.693   5.900   4.916  0.3421 -1.7309  0.4915
   58MOL   H24932283   1.718   6.067   4.962  0.6947  0.4164  0.8085
   58MOL   H25032284   2.158   5.977   4.715  3.1807  2.7715 -0.4097
   58MOL   H25132285   2.389   5.991   4.757 -0.8691  0.2595  0.1456
   58MOL   H25232286   2.321   5.933   5.181 -0.0924  0.4944 -0.4918
   58MOL   H25332287   2.092   5.948   5.151 -0.4022 -0.2954  0.6224
   58MOL   O25432288   2.593   5.929   4.873 -0.4641 -0.5840 -0.5517
   58MOL   C25532289   2.735   5.922   4.870 -0.5504  0.7433  0.5080
   58MOL   C25632290   2.783   5.916   4.729  0.6996  0.0722 -0.2353
   58MOL   C25732291   2.712   5.820   4.640  1.0186 -0.2026  0.5178
   58MOL   C25832292   2.768   5.802   4.499  0.2907  0.4782  0.1807
   58MOL   O25932293   2.784   5.926   4.448 -0.1438  0.2576 -0.2242
   58MOL   C26032294   2.827   5.947   4.319  0.2315 -0.3920 -0.3192
   58MOL   O26132295   2.856   5.856   4.237 -0.1911  0.4385 -0.6212
   58MOL   C26232296   2.804   6.093   4.278 -0.3130  0.5405  0.5590
   58MOL   C26332297   2.763   6.191   4.374 -0.2829 -0.0747  0.2325
   58MOL   C26432298   2.745   6.326   4.332 -0.2691 -0.6434  0.1561
   58MOL   C26532299   2.768   6.366   4.197  0.4482  0.5692 -0.0182
   58MOL   C26632300   2.743   6.507   4.147  0.1786 -0.4787 -0.7028
   58MOL   O26732301   2.777   6.552   4.038 -0.5149  0.1802  0.2378
   58MOL   C26832302   2.806   6.265   4.103  0.0681 -0.9324 -0.0121
   58MOL   C26932303   2.828   6.134   4.145  0.6677 -0.6518  0.1769
   58MOL   H27032304   2.772   6.014   4.915 -0.5222  0.8844  0.2005
   58MOL   H27132305   2.762   5.837   4.932 -0.7156 -0.2173 -0.7117
   58MOL   H27232306   2.889   5.893   4.745  0.1422 -0.7408  2.5925
   58MOL   H27332307   2.771   6.019   4.697  0.1516  0.0519 -0.0984
   58MOL   H27432308   2.713   5.723   4.688  0.5504 -1.0881 -1.2255
   58MOL   H27532309   2.612   5.861   4.625  0.9795 -0.1763  0.8340
   58MOL   H27632310   2.866   5.755   4.504 -0.7233 -1.6199  0.7290
   58MOL   H27732311   2.708   5.732   4.441  0.0162  0.1675  0.8296
   58MOL   H27832312   2.740   6.164   4.477  1.8315 -0.3476  0.6522
   58MOL   H27932313   2.708   6.400   4.401 -0.2521  1.0996 -1.6762
   58MOL   H28032314   2.825   6.299   4.002 -0.8705  1.1672  0.4782
   58MOL   H28132315   2.862   6.061   4.073  1.5551  0.1555 -0.2343
   58MOL   O28232316   2.686   6.583   4.239  0.0508 -0.2942 -0.3514
   58MOL   C28332317   2.622   6.707   4.204 -0.4721  0.0493 -0.3175
   58MOL   C28432318   2.523   6.741   4.315 -0.3629  0.2272  0.8989
   58MOL   C28532319   2.407   6.645   4.316  0.8802 -0.1669 -0.4935
   58MOL   C28632320   2.299   6.688   4.409 -0.5767  0.0133  0.1281
   58MOL   O28732321   2.347   6.682   4.537  0.4258 -0.0199 -0.2028
   58MOL   C28832322   2.282   6.743   4.639 -0.2027  0.0332  0.3438
   58MOL   O28932323   2.171   6.788   4.619 -0.7096  0.1373  0.2525
   58MOL   C29032324   2.346   6.719   4.770  0.4081 -0.2287 -0.4941
   58MOL   C29132325   2.292   6.785   4.885 -0.4892 -0.1818 -0.0353
   58MOL   C29232326   2.343   6.759   5.015  0.5703  0.9421  0.0756
   58MOL   C29332327   2.458   6.671   5.028  0.0514  0.4051  0.0098
   58MOL   C29432328   2.523   6.651   5.163 -0.5078 -0.0299 -0.0438
   58MOL   O29532329   2.608   6.561   5.186 -0.5875 -0.0787  0.2286
   58MOL   C29632330   2.508   6.612   4.913  0.4627  0.0258  0.2928
   58MOL   C29732331   2.452   6.637   4.786 -0.1274  0.1872 -0.0685
   58MOL   H29832332   2.691   6.790   4.186  1.9120 -1.5663  1.0596
   58MOL   H29932333   2.581   6.700   4.103 -0.7206  1.7344 -0.3467
   58MOL   H30032334   2.489   6.844   4.310 -5.6815 -1.4313 -0.7428
   58MOL   H30132335   2.570   6.733   4.412  1.7640 -2.2817 -0.2638
   58MOL   H30232336   2.367   6.634   4.215 -0.8551 -0.0463  0.1618
   58MOL   H30332337   2.440   6.546   4.347  2.5634  0.4473 -0.3017
   58MOL   H30432338   2.267   6.790   4.387  1.8615  0.5061 -1.2864
   58MOL   H30532339   2.216   6.617   4.404 -1.0637  0.6329 -0.8128
   58MOL   H30632340   2.208   6.853   4.881  0.0593  0.4184 -1.5688
   58MOL   H30732341   2.298   6.798   5.105  0.0075  0.6694 -0.0834
   58MOL   H30832342   2.599   6.553   4.917  0.8460  0.5486 -0.6743
   58MOL   H30932343   2.503   6.592   4.701 -1.7073  1.3955 -1.6788
   58MOL   O31032344   2.478   6.732   5.259 -0.0892 -0.2308 -0.6234
   58MOL   C31132345   2.533   6.735   5.391  0.1622 -0.4597  0.4034
   58MOL   C31232346   2.425   6.734   5.502  0.3216  1.1776  0.7361
   58MOL   C31332347   2.489   6.727   5.645 -0.4442 -0.2294  0.3300
   58MOL   C31432348   2.385   6.734   5.752  0.0221  0.4388 -0.5622
   58MOL   O31532349   2.336   6.865   5.773  0.5288  0.0700 -0.4449
   58MOL   C31632350   2.327   6.921   5.896 -0.3836  0.1916 -0.9945
   58MOL   O31732351   2.394   6.892   5.994  0.1639  0.7498 -0.2411
   58MOL   C31832352   2.216   7.022   5.895  0.9103  0.0289 -0.6708
   58MOL   C31932353   2.143   7.060   5.778 -0.5766  0.0918 -0.4435
   58MOL   C32032354   2.032   7.142   5.796  0.1479 -0.5511 -0.2823
   58MOL   C32132355   1.986   7.183   5.922 -0.5310  0.6302 -0.1741
   58MOL   C32232356   1.863   7.269   5.930  0.7076  0.3408  0.0178
   58MOL   O32332357   1.790   7.286   5.832 -0.2635 -0.0325  0.3124
   58MOL   C32432358   2.062   7.145   6.039 -0.0602 -0.6039 -1.0218
   58MOL   C32532359   2.172   7.059   6.025 -0.4418 -0.2987 -0.5707
   58MOL   H32632360   2.604   6.654   5.402 -0.8858 -1.4920 -0.3680
   58MOL   H32732361   2.590   6.827   5.407  1.2773 -0.8156 -1.4009
   58MOL   H32832362   2.348   6.658   5.484  1.5822 -0.0666  0.4977
   58MOL   H32932363   2.371   6.828   5.502 -0.1553  0.9050  0.0991
   58MOL   H33032364   2.529   6.625   5.650  0.5876 -0.0564 -3.1304
   58MOL   H33132365   2.571   6.795   5.668  0.0091 -0.9326  0.8319
   58MOL   H33232366   2.314   6.661   5.713  0.7103  0.1247 -1.2471
   58MOL   H33332367   2.430   6.700   5.846 -0.6632  2.0714  0.3783
   58MOL   H33432368   2.173   7.034   5.678 -0.4893  1.4229 -0.7760
   58MOL   H33532369   1.975   7.170   5.709 -1.4787  0.5734  1.1306
   58MOL   H33632370   2.038   7.166   6.142  0.5535 -0.3655 -0.9281
   58MOL   H33732371   2.212   7.019   6.116 -0.5796  1.9686  0.5316
   58MOL   O33832372   1.832   7.318   6.052  0.8692  0.7198 -0.2267
   58MOL   C33932373   1.704   7.372   6.085  0.8421  0.2674  0.5103
   58MOL   C34032374   1.603   7.251   6.088  0.2620 -0.2808  0.1282
   58MOL   C34132375   1.648   7.139   6.179 -0.6615  0.1426 -0.2152
   58MOL   C34232376   1.561   7.014   6.182  0.2053 -0.1633  0.5012
   58MOL   O34332377   1.448   7.041   6.266  0.2658 -0.3169  0.3018
   58MOL   C34432378   1.337   6.960   6.268  0.2018 -0.1725  0.4905
   58MOL   O34532379   1.312   6.883   6.178 -0.1989  0.0986  0.2946
   58MOL   C34632380   1.255   6.970   6.388  0.2375 -0.7591  0.7200
   58MOL   C34732381   1.254   7.087   6.478 -0.4605 -0.4516 -0.2062
   58MOL   C34832382   1.171   7.095   6.590 -0.0136 -0.1909 -0.8826
   58MOL   C34932383   1.095   6.980   6.620  0.2184  0.2311 -0.0575
   58MOL   C35032384   1.008   6.978   6.740 -0.0561  0.6456  0.0874
   58MOL   O35132385   0.990   7.077   6.810 -0.4188  0.1720  0.2938
   58MOL   C35232386   1.099   6.865   6.535  0.3708 -0.0577 -0.8250
   58MOL   C35332387   1.167   6.866   6.417  0.4395  0.5670 -0.1186
   58MOL   H35432388   1.714   7.428   6.178  0.3387  0.4667  0.4472
   58MOL   H35532389   1.679   7.442   6.005 -1.0487  0.0667  0.8848
   58MOL   H35632390   1.592   7.217   5.985  0.2692  1.0206 -0.3200
   58MOL   H35732391   1.509   7.291   6.126  1.4490  0.9888  1.8146
   58MOL   H35832392   1.747   7.106   6.146  0.7296  3.3187  0.6031
   58MOL   H35932393   1.664   7.173   6.281  1.7604 -0.4992 -0.3397
   58MOL   H36032394   1.532   6.975   6.085  2.4597  0.3181 -0.3895
   58MOL   H36132395   1.613   6.929   6.228 -1.4428 -0.0148  2.7264
   58MOL   H36232396   1.314   7.174   6.460  0.7016 -1.9689 -4.0447
   58MOL   H36332397   1.183   7.180   6.655  1.6412 -1.3028  0.3273
   58MOL   H36432398   1.037   6.780   6.558 -0.3263  0.9800  1.2463
   58MOL   H36532399   1.162   6.781   6.350 -1.6760  0.5516  0.0268
   58MOL   O36632400   0.962   6.859   6.771 -0.7823  0.3722 -0.0472
   58MOL   C36732401   0.883   6.838   6.875  0.3916  0.3274 -0.4502
   58MOL   C36832402   0.905   6.697   6.945 -0.6873 -0.5873 -1.0584
   58MOL   C36932403   1.046   6.690   7.015  0.0770  0.2302  0.2851
   58MOL   C37032404   1.076   6.562   7.108  0.2519  0.0792 -0.1325
   58MOL   O37132405   1.047   6.436   7.058  0.0034 -0.9401 -0.5381
   58MOL   C37232406   1.129   6.380   6.972 -0.2449  0.6206 -0.1074
   58MOL   O37332407   1.238   6.427   6.938 -0.3064  0.2863  0.2342
   58MOL   C37432408   1.070   6.261   6.906 -0.4865 -0.0076  0.3606
   58MOL   C37532409   1.124   6.220   6.781  0.5982  0.5093 -0.7188
   58MOL   C37632410   1.052   6.124   6.703  0.3447 -0.3333  0.1580
   58MOL   C37732411   0.939   6.056   6.745  0.1285  0.1290 -0.4749
   58MOL   C37832412   0.872   5.950   6.666 -0.5382  0.8853 -0.2028
   58MOL   O37932413   0.777   5.884   6.697 -0.0965  0.4174  0.3644
   58MOL   C38032414   0.897   6.089   6.875 -0.0382 -0.7930 -0.5077
   58MOL   C38132415   0.956   6.188   6.959  0.2201  0.0014 -0.2619
   58MOL   H38232416   0.909   6.918   6.945  0.7867  1.1640 -1.5496
   58MOL   H38332417   0.778   6.844   6.847  0.0971 -0.7265  0.3767
   58MOL   H38432418   0.888   6.620   6.870  0.6338 -0.8281 -1.1116
   58MOL   H38532419   0.828   6.690   7.021 -0.6131  0.0533 -0.9212
   58MOL   H38632420   1.127   6.675   6.944 -0.6026 -0.3074 -0.3882
   58MOL   H38732421   1.065   6.780   7.074 -0.8364  0.9309 -0.4770
   58MOL   H38832422   1.169   6.578   7.162 -0.5259 -0.3647  1.3906
   58MOL   H38932423   0.994   6.582   7.178  0.3064 -0.7036  0.1575
   58MOL   H39032424   1.208   6.267   6.730 -0.7154  1.1992 -2.3035
   58MOL   H39132425   1.096   6.092   6.610 -1.6060  0.6306 -1.1339
   58MOL   H39232426   0.804   6.045   6.907 -1.3796  2.4679  0.3436
   58MOL   H39332427   0.928   6.209   7.061 -2.3880  0.7647 -1.1082
   58MOL   O39432428   0.933   5.932   6.547  0.1488  0.1370  0.1236
   58MOL   C39532429   0.897   5.828   6.460 -0.5629  0.3840  0.8284
   58MOL   C39632430   0.971   5.842   6.325  0.1287  0.1377  0.3249
   58MOL   C39732431   0.925   5.969   6.252  0.7499  0.3321  0.4543
   58MOL   C39832432   1.005   5.984   6.129 -0.1374  0.0456 -0.3097
   58MOL   O39932433   1.023   6.118   6.089  0.4202  0.0832  0.1796
   58MOL   C40032434   1.083   6.150   5.974 -0.5140  0.4349 -0.4563
   58MOL   O40132435   1.121   6.069   5.892 -0.2823 -0.6430 -0.2736
   58MOL   C40232436   1.086   6.293   5.958 -0.5479  0.1379 -0.5338
   58MOL   C40332437   1.182   6.351   5.869  0.2185  0.7047 -0.6577
   58MOL   C40432438   1.168   6.485   5.838 -0.1155  0.0350 -0.4146
   58MOL   C40532439   1.072   6.571   5.900  0.1859  0.6568  0.3705
   58MOL   C40632440   1.060   6.713   5.858 -0.3693 -0.4706  0.0191
   58MOL   O40732441   0.966   6.785   5.890 -0.4487 -0.8311  0.3813
   58MOL   C40832442   0.981   6.508   5.989  0.3942  0.2671 -0.1107
   58MOL   C40932443   0.983   6.367   6.013 -0.2702 -0.0502  0.2978
   58MOL   H41032444   0.934   5.732   6.496  0.5086  0.7766  0.7965
   58MOL   H41132445   0.791   5.844   6.444 -0.5573  2.3284  2.5555
   58MOL   H41232446   0.958   5.757   6.258  1.1720  1.0249 -1.0221
   58MOL   H41332447   1.078   5.855   6.338  0.1599  1.1884 -0.9164
   58MOL   H41432448   0.817   5.965   6.239  0.9551 -1.1934 -1.0482
   58MOL   H41532449   0.958   6.054   6.312 -0.5364  2.4226 -1.7372
   58MOL   H41632450   1.109   5.953   6.140 -1.2875 -3.3416  1.5913
   58MOL   H41732451   0.969   5.927   6.043  1.1964 -0.9308 -0.2371
   58MOL   H41832452   1.247   6.284   5.815  1.9036  0.8108  1.1810
   58MOL   H41932453   1.244   6.519   5.768 -0.5399  2.1769  0.1321
   58MOL   H42032454   0.904   6.571   6.032 -1.3521 -1.9871  0.1499
   58MOL   H42132455   0.907   6.325   6.078 -0.1575  0.5623  0.8278
   58MOL   O42232456   1.162   6.759   5.795 -0.4595  0.3079 -0.1327
   58MOL   C42332457   1.155   6.896   5.752 -0.0340  0.0086 -0.0985
   58MOL   C42432458   1.283   6.968   5.692  0.1894  0.6657 -0.1296
   58MOL   C42532459   1.406   6.964   5.792 -0.2174  0.5540 -0.1605
   58MOL   C42632460   1.530   7.030   5.725  0.2755 -0.1034  1.2991
   58MOL   O42732461   1.626   6.951   5.651  0.6615  0.4999  0.3155
   58MOL   C42832462   1.715   6.875   5.720 -0.4422 -0.2972 -0.1191
   58MOL   O42932463   1.733   6.875   5.838 -0.2602 -0.4558 -0.2238
   58MOL   C43032464   1.802   6.788   5.630 -0.2133  0.5648  0.9410
   58MOL   C43132465   1.752   6.757   5.497 -0.1052 -0.8613  0.3333
   58MOL   C43232466   1.822   6.683   5.407  0.3574  0.3805  0.3158
   58MOL   C43332467   1.950   6.646   5.430  0.6332  0.0217  0.0993
   58MOL   C43432468   2.036   6.583   5.331 -0.1376  0.8418 -0.0164
   58MOL   O43532469   2.129   6.507   5.351 -0.1533 -0.3524 -0.2917
   58MOL   C43632470   2.006   6.668   5.564  0.2926  0.3526  0.1798
   58MOL   C43732471   1.933   6.742   5.662 -0.1783 -0.5499  0.0512
   58MOL   H43832472   1.079   6.900   5.674  0.2578  3.3071 -0.3031
   58MOL   H43932473   1.115   6.952   5.837  1.4760 -1.2732  1.4982
   58MOL   H44032474   1.255   7.071   5.671 -0.1626  0.5067 -0.4590
   58MOL   H44132475   1.307   6.923   5.595  1.4272  0.3173  0.3284
   58MOL   H44232476   1.375   7.008   5.887 -1.1561 -0.5289  0.0554
   58MOL   H44332477   1.421   6.856   5.805 -0.6354  0.8300  3.2135
   58MOL   H44432478   1.505   7.104   5.649 -2.6215 -1.0134  1.3392
   58MOL   H44532479   1.591   7.076   5.803 -0.1397 -0.9437  2.1193
   58MOL   H44632480   1.653   6.786   5.465  0.8690  0.0842 -1.9689
   58MOL   H44732481   1.773   6.672   5.311  1.4732  3.5029 -0.6806
   58MOL   H44832482   2.110   6.645   5.583  0.0619  0.0573  1.0816
   58MOL   H44932483   1.978   6.759   5.758  1.8641 -0.2052 -0.9350
   58MOL   O45032484   1.999   6.611   5.206  0.0100 -0.0726 -0.1563
   58MOL   C45132485   2.074   6.561   5.097  0.3577 -0.2603  0.7800
   58MOL   C45232486   1.992   6.584   4.971 -0.2179 -0.4274 -0.0954
   58MOL   C45332487   1.848   6.527   4.985 -0.3904 -0.0723 -0.8037
   58MOL   C45432488   1.852   6.374   5.013  0.5843  1.0414  0.1926
   58MOL   O45532489   1.724   6.315   5.000 -0.3222 -0.1694  0.0434
   58MOL   C45632490   1.641   6.315   5.107  0.4960 -0.3640 -0.0840
   58MOL   O45732491   1.682   6.350   5.219  0.0341 -0.4898 -0.3095
   58MOL   C45832492   1.497   6.272   5.080  0.5617 -0.7962  0.5304
   58MOL   C45932493   1.466   6.203   4.961  0.2691  1.1174 -0.2768
   58MOL   C46032494   1.337   6.185   4.925 -0.1646  0.2656  0.0010
   58MOL   C46132495   1.232   6.236   5.006 -0.3728  0.7018 -0.2694
   58MOL   C46232496   1.097   6.214   4.956 -0.5731  0.0366  0.1993
   58MOL   O46332497   1.074   6.167   4.842  0.3517 -0.0491  0.6272
   58MOL   C46432498   1.262   6.298   5.130  0.5279 -0.2824 -0.1327
   58MOL   C46532499   1.396   6.314   5.167 -0.4061  1.1220  0.2593
   58MOL   H46632500   2.167   6.617   5.089  0.1507 -0.2670 -1.9977
   58MOL   H46732501   2.100   6.456   5.113  0.6703 -0.0588  1.5952
   58MOL   H46832502   2.039   6.534   4.886 -1.3542 -0.9758 -0.4169
   58MOL   H46932503   1.996   6.692   4.953  3.3241 -0.2437  1.3642
   58MOL   H47032504   1.792   6.587   5.057 -2.1680 -1.6224 -0.8839
   58MOL   H47132505   1.801   6.563   4.894 -1.1205  0.0156 -0.3914
   58MOL   H47232506   1.909   6.333   4.929 -0.5315  3.3481 -1.7477
   58MOL   H47332507   1.900   6.340   5.105  0.4257 -1.9524 -0.7524
   58MOL   H47432508   1.535   6.169   4.886  1.3285  1.7010  0.4192
   58MOL   H47532509   1.311   6.140   4.831  1.7021  0.5013 -0.6534
   58MOL   H47632510   1.186   6.324   5.202 -1.2994 -0.7467 -1.8842
   58MOL   H47732511   1.424   6.363   5.259 -0.4688 -2.0809  2.0515
   58MOL   O47832512   1.000   6.255   5.041  0.5096  0.1507 -0.0301
   58MOL   C47932513   0.866   6.242   5.000 -1.1088  0.5351  0.1568
   58MOL   C48032514   0.799   6.119   5.064 -0.3809  0.2608 -0.6612
   58MOL   C48132515   0.655   6.117   5.014 -0.5618  0.3750  0.8624
   58MOL   C48232516   0.591   5.980   5.018  0.5635 -0.0151  0.0404
   58MOL   O48332517   0.550   5.963   5.160 -0.6345  0.1447 -0.3163
   58MOL   C48432518   0.561   5.842   5.223  0.6876 -0.2949  0.3170
   58MOL   O48532519   0.605   5.739   5.170  0.3261  0.4935  0.5606
   58MOL   C48632520   0.524   5.855   5.364 -0.5936  0.1315 -0.0243
   58MOL   C48732521   0.504   5.982   5.428 -0.0285  0.1751 -0.1552
   58MOL   C48832522   0.451   5.988   5.559 -0.2938  0.2791 -0.5203
   58MOL   C48932523   0.430   5.870   5.635  0.0241 -0.3188 -0.1017
   58MOL   C49032524   0.373   5.870   5.777 -0.1643  0.2809  0.1547
   58MOL   O49132525   0.394   5.955   5.861 -0.4540  0.3879 -0.3885
   58MOL   C49232526   0.468   5.750   5.579 -0.4998  0.4334  0.0156
   58MOL   C49332527   0.508   5.742   5.447  0.7206  0.0346  0.1502
   58MOL   H49432528   0.823   6.334   5.039  0.0172  1.3361 -0.4556
   58MOL   H49532529   0.865   6.255   4.892 -1.4846  1.7497  0.2911
   58MOL   H49632530   0.815   6.115   5.172 -2.7580  2.2809 -0.2017
   58MOL   H49732531   0.853   6.037   5.016  2.0697  1.6019 -0.2577
   58MOL   H49832532   0.595   6.195   5.061 -0.8066  0.6389  0.1226
   58MOL   H49932533   0.665   6.141   4.908  0.7692  1.1785  1.1582
   58MOL   H50032534   0.507   5.968   4.949 -1.0803  1.8279  1.6566
   58MOL   H50132535   0.658   5.899   4.991  1.7755  1.4841 -1.5822
   58MOL   H50232536   0.514   6.067   5.362  0.1079 -0.6245 -1.1932
   58MOL   H50332537   0.423   6.077   5.612 -0.5532 -1.5600  2.5794
   58MOL   H50432538   0.453   5.656   5.631  1.0917  0.5958  0.8057
   58MOL   H50532539   0.529   5.645   5.403  2.0067  0.7026 -0.7302
   58MOL   O50632540   0.278   5.767   5.788  0.0299 -0.0257 -0.4216
   58MOL   C50732541   0.236   5.744   5.921 -0.2923 -0.3382  0.2101
   58MOL   C50832542   0.296   5.616   5.978 -0.0901  0.3722  0.1693
   58MOL   C50932543   0.448   5.627   5.989  0.0883  0.7101  0.6897
   58MOL   C51032544   0.490   5.725   6.098  0.4781  0.2144 -0.4924
   58MOL   O51132545   0.465   5.669   6.227 -0.1003  0.3713  0.1174
   58MOL   C51232546   0.566   5.645   6.314  0.0171 -0.2126  0.0344
   58MOL   O51332547   0.683   5.689   6.305 -0.2771  0.0110  0.1777
   58MOL   C51432548   0.526   5.568   6.435 -1.0149  0.3213  0.3834
   58MOL   C51532549   0.627   5.520   6.528 -0.3394  0.2683  0.4912
   58MOL   C51632550   0.585   5.457   6.645 -0.2956 -0.7985 -0.0133
   58MOL   C51732551   0.450   5.432   6.668 -0.2854  1.1063  0.5122
   58MOL   C51832552   0.403   5.381   6.796 -0.6518  1.2110 -0.0204
   58MOL   O51932553   0.466   5.396   6.902 -0.1071 -0.2110 -0.2129
   58MOL   C52032554   0.351   5.472   6.575 -0.1312 -0.6455  0.1952
   58MOL   C52132555   0.387   5.539   6.456  0.2969 -0.0166 -0.0893
   58MOL   H52232556   0.261   5.824   5.991  1.0216 -0.7294  0.2173
   58MOL   H52332557   0.128   5.732   5.917 -0.2530 -0.8270  0.5399
   58MOL   H52432558   0.266   5.533   5.913  1.3648  0.5354 -0.7366
   58MOL   H52532559   0.248   5.590   6.072 -0.8271 -0.9896 -0.5548
   58MOL   H52632560   0.485   5.528   6.014  1.8305  0.8087 -1.3360
   58MOL   H52732561   0.480   5.649   5.887 -1.3424 -1.8907 -0.3748
   58MOL   H52832562   0.594   5.755   6.086  0.6745 -0.5259 -0.6476
   58MOL   H52932563   0.429   5.816   6.099  0.4053  0.1927 -1.7856
   58MOL   H53032564   0.732   5.545   6.527  0.1477 -1.7227  0.4331
   58MOL   H53132565   0.663   5.420   6.709 -1.1370 -0.0145  1.5104
   58MOL   H53232566   0.247   5.466   6.604  0.0875 -1.4358  0.8282
   58MOL   H53332567   0.311   5.595   6.404  0.4516  0.2095 -0.0711
   58MOL   O53432568   0.285   5.318   6.791  0.4899  0.4509 -0.2636
   58MOL   C53532569   0.226   5.246   6.893  0.2060 -0.7989  0.1864
   58MOL   C53632570   0.104   5.174   6.836 -0.2411 -0.2213  0.5830
   58MOL   C53732571   0.121   5.031   6.785 -0.1393 -0.3590 -0.3792
   58MOL   C53832572   8.085   4.963   6.767  0.4287 -0.5482  0.0686
   58MOL   O53932573   8.075   4.836   6.696 -0.2366 -0.6990  0.3267
   58MOL   C54032574   7.959   4.767   6.686 -0.1933 -0.5231  0.7407
   58MOL   O54132575   7.852   4.804   6.729  0.4621 -0.2593 -0.0797
   58MOL   C54232576   7.973   4.656   6.579 -0.2089  0.6943 -0.0725
   58MOL   C54332577   7.859   4.575   6.546  0.3199 -0.2200 -0.0912
   58MOL   C54432578   7.871   4.474   6.450 -0.1105 -0.3305  0.1164
   58MOL   C54532579   7.992   4.447   6.388  0.1586  0.2830  0.0346
   58MOL   C54632580   7.999   4.339   6.278 -0.6209  0.1809 -0.3913
   58MOL   O54732581   7.909   4.255   6.262 -0.3054  0.9199 -0.5432
   58MOL   C54832582   0.003   4.525   6.414 -0.1208 -0.1114  0.2863
   58MOL   C54932583   8.093   4.630   6.512 -0.1273  0.0944  0.7366
   58MOL   H55032584   0.290   5.162   6.918 -0.1276 -0.8029  1.0297
   58MOL   H55132585   0.194   5.295   6.985  0.7054  0.3378 -0.2338
   58MOL   H55232586   0.064   5.234   6.754  1.9348 -1.0122 -1.1086
   58MOL   H55332587   0.032   5.161   6.916  2.1454 -0.8570  2.6942
   58MOL   H55432588   0.171   5.019   6.689 -1.7274  1.3831 -1.4486
   58MOL   H55532589   0.173   4.964   6.855  1.3900 -1.5901 -2.6466
   58MOL   H55632590   8.038   4.958   6.866 -1.7491  0.8874 -0.8617
   58MOL   H55732591   8.026   5.030   6.704  0.4200 -1.3843 -0.8171
   58MOL   H55832592   7.765   4.593   6.597 -0.1809  0.0087 -1.0759
   58MOL   H55932593   7.784   4.415   6.424 -0.7352  0.6478 -0.0500
   58MOL   H56032594   0.091   4.498   6.358 -1.5595 -0.5718 -1.7870
   58MOL   H56132595   0.088   4.680   6.530 -0.5295  1.7555 -1.5721
   58MOL   H56232596   8.094   4.333   6.225 -0.1424 -1.7515  0.6273
   59MOL     O132597   1.132   6.989   5.333 -0.0673 -0.6302  0.0723
   59MOL     C232598   1.015   6.938   5.274 -0.2005 -0.6512  0.1108
   59MOL     C332599   0.907   6.944   5.380  1.1418 -0.4726 -0.8627
   59MOL     C432600   0.774   6.891   5.331 -0.4274  0.2761 -0.2462
   59MOL     C532601   0.669   6.894   5.444  0.2221 -0.2616  0.7646
   59MOL     O632602   0.548   6.834   5.406 -0.5636 -0.6040  0.4829
   59MOL     C732603   0.458   6.899   5.322 -1.1195  0.6061  0.0676
   59MOL     O832604   0.485   7.013   5.284  0.5206 -0.3405  0.2832
   59MOL     C932605   0.333   6.823   5.300 -1.0156  0.1297  0.1782
   59MOL    C1032606   0.307   6.703   5.367 -0.4120 -0.3167 -0.4018
   59MOL    C1132607   0.179   6.649   5.359  0.7412 -0.3567  0.3311
   59MOL    C1232608   0.079   6.707   5.276  0.4130  0.4080 -0.2131
   59MOL    C1332609   8.046   6.642   5.261 -0.2615  0.0802  0.3143
   59MOL    O1432610   7.960   6.697   5.193 -0.4001  0.1422  0.0193
   59MOL    C1532611   0.113   6.819   5.199 -0.0667  1.1349  0.6883
   59MOL    C1632612   0.235   6.884   5.220 -0.3911  0.1271  0.8999
   59MOL    H1732613   0.987   6.994   5.185 -3.5754 -3.5714 -0.7660
   59MOL    H1832614   1.045   6.837   5.244 -2.2902 -0.6241 -2.2602
   59MOL    H1932615   0.893   7.048   5.410  1.7110 -0.7037  0.2250
   59MOL    H2032616   0.944   6.905   5.475  0.7644 -0.8778 -0.8828
   59MOL    H2132617   0.740   6.942   5.241  0.2073  0.4300 -0.4037
   59MOL    H2232618   0.798   6.787   5.310  0.2225  0.8701 -2.6445
   59MOL    H2332619   0.707   6.852   5.537 -3.5355  0.0544  2.5307
   59MOL    H2432620   0.629   6.994   5.460  0.3828 -0.3719  1.8465
   59MOL    H2532621   0.375   6.651   5.433 -0.4671  0.3641  0.2047
   59MOL    H2632622   0.157   6.559   5.414  3.1457 -0.5608  1.0594
   59MOL    H2732623   0.045   6.866   5.129  0.4738  1.3124  0.2755
   59MOL    H2832624   0.252   6.970   5.156 -1.0832  1.2414  2.2039
   59MOL    H2932625   1.157   6.916   5.386  0.0398 -0.7863 -0.1912
   59MOL    O3032626   8.032   6.526   5.335 -0.0691  0.2735  0.1052
   59MOL    C3132627   7.911   6.469   5.336  0.4757 -0.0510  0.6182
   59MOL    C3232628   7.893   6.409   5.474 -1.1608  1.0394  0.5598
   59MOL    C3332629   7.913   6.497   5.599 -0.0992 -0.3246  0.0687
   59MOL    C3432630   7.890   6.424   5.729 -0.0407 -0.5976 -0.2355
   59MOL    O3532631   7.764   6.364   5.734 -0.0268 -0.1419  0.5432
   59MOL    C3632632   7.731   6.275   5.825  0.8366 -0.2281 -0.2581
   59MOL    O3732633   7.799   6.246   5.922  0.0413 -0.4219 -0.1909
   59MOL    C3832634   7.595   6.210   5.802 -0.2605 -0.4088 -0.2874
   59MOL    C3932635   7.535   6.216   5.675 -0.0559  0.4392  0.1663
   59MOL    C4032636   7.411   6.157   5.648 -0.3139  0.3222  0.1631
   59MOL    C4132637   7.347   6.087   5.750  0.6387  0.6270  0.2264
   59MOL    C4232638   7.213   6.036   5.722  0.6407 -0.3250 -0.0408
   59MOL    O4332639   7.155   6.060   5.614 -0.1344  0.3452  0.1626
   59MOL    C4432640   7.401   6.076   5.881  0.2546 -0.6306 -0.3913
   59MOL    C4532641   7.526   6.140   5.905 -0.0619  0.1524 -0.5472
   59MOL    H4632642   7.839   6.548   5.315  1.1681  0.4449  0.0849
   59MOL    H4732643   7.896   6.410   5.246 -1.2714  1.4962 -0.1517
   59MOL    H4832644   7.958   6.322   5.482  0.6311  2.1477 -1.4857
   59MOL    H4932645   7.791   6.372   5.479 -0.6613 -0.1723  2.3593
   59MOL    H5032646   8.012   6.542   5.606 -0.7758  1.1759  0.0541
   59MOL    H5132647   7.850   6.585   5.604  0.8760  0.4543 -1.0394
   59MOL    H5232648   7.962   6.342   5.735  1.0890  0.3092 -1.0818
   59MOL    H5332649   7.914   6.487   5.815  0.7981 -0.8422 -0.2830
   59MOL    H5432650   7.585   6.272   5.597  0.7322 -0.1409  0.2592
   59MOL    H5532651   7.367   6.178   5.552 -0.5682  0.8387  0.3866
   59MOL    H5632652   7.349   6.018   5.956  0.1478 -1.6830 -1.2633
   59MOL    H5732653   7.556   6.134   6.009 -2.0047  0.8241  0.0722
   59MOL    O5832654   7.156   5.972   5.831  1.0266  0.0788  0.1281
   59MOL    C5932655   7.021   5.928   5.812  0.0752 -0.1265 -0.5179
   59MOL    C6032656   7.009   5.805   5.727 -0.0613 -0.9346  0.1203
   59MOL    C6132657   7.042   5.672   5.794 -0.6919 -0.9539  0.3031
   59MOL    C6232658   7.193   5.652   5.838 -0.0500  0.8859  0.0335
   59MOL    O6332659   7.283   5.673   5.731 -0.0199 -0.6250 -0.0559
   59MOL    C6432660   7.417   5.654   5.753 -0.6670  0.1748  0.0958
   59MOL    O6532661   7.464   5.611   5.860  0.1875 -0.0319 -0.3091
   59MOL    C6632662   7.505   5.677   5.637 -0.1698 -0.4914 -0.1117
   59MOL    C6732663   7.623   5.607   5.609 -0.4513  0.6635  0.3167
   59MOL    C6832664   7.689   5.621   5.486 -0.0838  0.6321  0.3625
   59MOL    C6932665   7.634   5.704   5.388 -0.3910 -0.7407  0.7569
   59MOL    C7032666   7.706   5.707   5.255 -0.2139 -0.1086 -0.2228
   59MOL    O7132667   7.805   5.640   5.229  0.0856 -0.1599  0.1549
   59MOL    C7232668   7.526   5.795   5.418 -0.1969  0.8658 -0.0939
   59MOL    C7332669   7.455   5.773   5.536  0.0528  0.2318  0.0837
   59MOL    H7432670   6.978   5.924   5.911 -0.6851 -1.3105 -0.8936
   59MOL    H7532671   6.965   6.010   5.766 -0.9564 -0.8658 -0.5817
   59MOL    H7632672   7.059   5.820   5.631 -0.8544  0.0765 -0.1368
   59MOL    H7732673   6.911   5.786   5.684 -1.1995  0.7009  1.8778
   59MOL    H7832674   6.972   5.664   5.877 -0.4119 -1.4576  0.4924
   59MOL    H7932675   7.015   5.599   5.718 -2.0976 -0.0893 -0.0472
   59MOL    H8032676   7.224   5.721   5.917 -3.3963  2.2034  0.2981
   59MOL    H8132677   7.216   5.549   5.869 -0.2936  0.5024 -1.0474
   59MOL    H8232678   7.659   5.528   5.674 -0.3483  1.6526  1.4782
   59MOL    H8332679   7.774   5.555   5.470 -1.6266 -1.1434 -0.7402
   59MOL    H8432680   7.493   5.869   5.347  0.6419 -0.9424 -2.4386
   59MOL    H8532681   7.378   5.843   5.563  1.7607  1.5050  1.7292
   59MOL    O8632682   7.649   5.799   5.170 -0.3369  0.6282 -0.2752
   59MOL    C8732683   7.692   5.790   5.036  0.2057 -0.5339  0.7034
   59MOL    C8832684   7.632   5.896   4.951 -0.4238  0.1844  0.9208
   59MOL    C8932685   7.620   5.862   4.799  0.5478  0.9644 -0.0930
   59MOL    C9032686   7.598   5.986   4.719  0.2415  0.0272  0.4693
   59MOL    O9132687   7.478   6.051   4.759 -0.2781  0.2671  0.1066
   59MOL    C9232688   7.473   6.177   4.767  0.2401  0.1216  0.3338
   59MOL    O9332689   7.572   6.250   4.755 -0.0740  0.2012 -0.4188
   59MOL    C9432690   7.338   6.230   4.799  0.0795 -0.1033 -1.0515
   59MOL    C9532691   7.326   6.369   4.817  0.1884 -0.6585 -0.0442
   59MOL    C9632692   7.198   6.424   4.831  0.4267 -0.7476 -0.0707
   59MOL    C9732693   7.082   6.340   4.842 -0.3912  0.3122  0.2017
   59MOL    C9832694   6.951   6.405   4.847 -0.2933 -0.0711 -0.4058
   59MOL    O9932695   6.854   6.346   4.803 -0.1912 -0.4811  0.1464
   59MOL   C10032696   7.094   6.198   4.827  0.2621  0.3764  0.2056
   59MOL   C10132697   7.224   6.146   4.803 -0.3682  0.7792  0.8839
   59MOL   H10232698   7.801   5.788   5.027  0.2295  1.5704  0.2542
   59MOL   H10332699   7.654   5.698   4.991  0.8713 -0.4201 -0.0970
   59MOL   H10432700   7.687   5.989   4.966 -0.4537  0.7876 -2.4154
   59MOL   H10532701   7.531   5.922   4.982 -1.3341  1.1027 -2.6076
   59MOL   H10632702   7.708   5.811   4.759  0.1570  1.4829 -1.6729
   59MOL   H10732703   7.535   5.797   4.781  1.4410 -0.1105 -0.5112
   59MOL   H10832704   7.689   6.046   4.720  1.8645 -2.3535  2.0271
   59MOL   H10932705   7.584   5.957   4.615  2.6074 -3.2913  0.9833
   59MOL   H11032706   7.416   6.427   4.802 -0.1389 -0.4500 -1.2374
   59MOL   H11132707   7.194   6.532   4.825 -0.9604 -0.6909  1.4962
   59MOL   H11232708   7.007   6.135   4.831 -0.2053  1.0680  1.2343
   59MOL   H11332709   7.239   6.039   4.801 -0.6874  0.7351  0.8614
   59MOL   O11432710   6.945   6.526   4.912  0.4424 -0.3986 -0.2425
   59MOL   C11532711   6.816   6.590   4.923 -0.1313 -0.1117 -0.5325
   59MOL   C11632712   6.806   6.690   5.042 -0.2823  0.2886  0.4142
   59MOL   C11732713   6.853   6.621   5.172 -0.0995  0.0173 -0.1788
   59MOL   C11832714   6.821   6.714   5.298 -0.3544 -0.0120  0.1611
   59MOL   O11932715   6.847   6.640   5.412  0.9366  0.3789 -0.0260
   59MOL   C12032716   6.803   6.683   5.529  0.2127 -0.1454  0.0433
   59MOL   O12132717   6.747   6.790   5.550 -0.2648 -0.0852 -0.2850
   59MOL   C12232718   6.844   6.590   5.640 -0.3933 -0.4027 -0.0124
   59MOL   C12332719   6.800   6.617   5.772 -0.2281  0.1491 -0.3586
   59MOL   C12432720   6.826   6.536   5.880 -0.1393 -0.1196  0.3625
   59MOL   C12532721   6.903   6.421   5.858 -0.7590 -0.0437 -0.3114
   59MOL   C12632722   6.926   6.328   5.971 -0.5320 -0.0765 -0.5083
   59MOL   O12732723   6.984   6.219   5.967  0.6130 -0.1979 -0.5210
   59MOL   C12832724   6.960   6.394   5.728 -0.2792 -0.4918 -0.0387
   59MOL   C12932725   6.921   6.472   5.615 -0.0409 -0.3234  0.0011
   59MOL   H13032726   6.801   6.636   4.826 -1.0910  2.5760  0.8427
   59MOL   H13132727   6.747   6.508   4.946 -0.1834  0.4893  1.5735
   59MOL   H13232728   6.703   6.725   5.048 -0.3645 -0.0182  0.7681
   59MOL   H13332729   6.855   6.786   5.024 -0.1962  0.1108 -0.3181
   59MOL   H13432730   6.810   6.521   5.176  0.3470 -0.1571  0.3689
   59MOL   H13532731   6.957   6.589   5.176  0.0078  0.5018  1.1863
   59MOL   H13632732   6.882   6.804   5.295 -0.3820 -0.0207 -1.2822
   59MOL   H13732733   6.715   6.738   5.302 -0.3143  0.2299 -0.2511
   59MOL   H13832734   6.743   6.709   5.777  0.8467  0.7459  0.9937
   59MOL   H13932735   6.788   6.572   5.974  0.1459 -0.2002  0.5097
   59MOL   H14032736   7.015   6.301   5.717  1.2152  0.4678 -0.7932
   59MOL   H14132737   6.948   6.452   5.512  1.1079  1.7271 -0.1400
   59MOL   O14232738   6.911   6.387   6.096  0.2308 -0.2505 -0.6056
   59MOL   C14332739   6.921   6.320   6.218 -0.3382  0.0597 -0.0914
   59MOL   C14432740   6.778   6.331   6.274 -0.5345  0.0807  0.3836
   59MOL   C14532741   6.764   6.291   6.422  0.3935 -0.6014  0.7614
   59MOL   C14632742   6.626   6.310   6.478 -0.1052 -0.4492 -0.3639
   59MOL   O14732743   6.603   6.263   6.607  0.4794 -0.1016 -0.4157
   59MOL   C14832744   6.647   6.334   6.711  0.6418  0.5343 -0.0981
   59MOL   O14932745   6.728   6.428   6.710 -0.0555  0.1166  0.3561
   59MOL   C15032746   6.586   6.292   6.835  0.0569  0.3290 -0.3455
   59MOL   C15132747   6.643   6.330   6.956  0.5689 -0.4386  0.2228
   59MOL   C15232748   6.575   6.304   7.075 -0.7758 -0.0362 -0.2905
   59MOL   C15332749   6.465   6.222   7.082  0.4564 -0.0003  0.9459
   59MOL   C15432750   6.415   6.167   7.220 -0.4940 -0.3621 -0.2941
   59MOL   O15532751   6.487   6.184   7.321 -0.8857  0.1598 -0.2063
   59MOL   C15632752   6.400   6.182   6.960 -0.0854 -0.1867  0.4842
   59MOL   C15732753   6.459   6.222   6.836 -0.4012  0.5726 -0.6106
   59MOL   H15832754   6.943   6.214   6.201 -0.4808 -0.1040  0.7032
   59MOL   H15932755   6.996   6.364   6.284 -0.2171  0.9978 -0.8477
   59MOL   H16032756   6.719   6.275   6.201 -1.1262  2.1330 -0.7617
   59MOL   H16132757   6.736   6.431   6.255 -2.5859 -0.6070  1.1541
   59MOL   H16232758   6.794   6.187   6.435 -0.1311 -0.7006  1.1607
   59MOL   H16332759   6.825   6.365   6.474 -2.3027  0.9504  1.8519
   59MOL   H16432760   6.603   6.416   6.470  1.0861 -0.0826  1.0097
   59MOL   H16532761   6.553   6.257   6.417  2.2506  0.3946 -4.0628
   59MOL   H16632762   6.740   6.377   6.958  0.7222 -0.8037  2.4208
   59MOL   H16732763   6.623   6.338   7.165 -1.4308  0.3991 -0.1034
   59MOL   H16832764   6.306   6.131   6.955 -0.4733  0.5231  0.4375
   59MOL   H16932765   6.419   6.191   6.741  1.7345  0.2852 -1.4501
   59MOL   O17032766   6.298   6.098   7.212  0.0428  0.1957 -0.0574
   59MOL   C17132767   6.243   6.042   7.330 -0.2179 -0.6845  0.1680
   59MOL   C17232768   6.140   5.927   7.307 -0.6839  0.4163 -0.1201
   59MOL   C17332769   6.150   5.843   7.173  0.0120  0.5516  0.8202
   59MOL   C17432770   6.079   5.901   7.051 -0.0384 -0.1527 -0.0160
   59MOL   O17532771   5.942   5.908   7.070  0.1501  0.7676 -0.0283
   59MOL   C17632772   5.863   6.001   6.997  0.5418  0.0175 -0.6034
   59MOL   O17732773   5.909   6.093   6.931  0.0395  0.0309 -0.1348
   59MOL   C17832774   5.712   5.975   7.009  0.5997  0.3961 -0.5300
   59MOL   C17932775   5.615   6.063   6.963  0.1859 -0.4629 -0.0634
   59MOL   C18032776   5.481   6.038   6.969  0.9497  0.5393  0.4312
   59MOL   C18132777   5.434   5.921   7.019  0.5834 -0.2291  0.1157
   59MOL   C18232778   5.290   5.883   7.027 -0.2506 -0.0715 -0.1008
   59MOL   O18332779   5.247   5.763   7.017  0.2962 -0.1203  0.6611
   59MOL   C18432780   5.524   5.826   7.080 -0.0504 -0.7375  0.7971
   59MOL   C18532781   5.665   5.856   7.073  0.4413  0.0214 -0.8741
   59MOL   H18632782   6.319   5.998   7.395 -0.8187 -1.3908  0.3968
   59MOL   H18732783   6.199   6.123   7.390 -0.7990 -0.9107  0.0529
   59MOL   H18832784   6.038   5.964   7.318 -0.8772  0.1869 -1.0855
   59MOL   H18932785   6.176   5.865   7.390  0.1726  1.4431  0.2974
   59MOL   H19032786   6.252   5.820   7.143 -1.1997 -4.3875 -0.0358
   59MOL   H19132787   6.118   5.742   7.198  1.1556  0.1958  0.8539
   59MOL   H19232788   6.113   6.002   7.031 -0.2285  0.3505  2.0832
   59MOL   H19332789   6.090   5.849   6.955  2.4736 -0.1048  0.1905
   59MOL   H19432790   5.650   6.159   6.928  1.9835 -0.7749  0.8247
   59MOL   H19532791   5.409   6.110   6.933 -0.2044  0.4287  2.4301
   59MOL   H19632792   5.496   5.737   7.135 -4.3298  0.1095  0.1093
   59MOL   H19732793   5.727   5.786   7.127  0.3345  0.1793 -0.5398
   59MOL   O19832794   5.211   5.996   7.042  0.8094  0.4515  1.1919
   59MOL   C19932795   5.071   5.986   7.046 -0.7216  0.5092  0.6368
   59MOL   C20032796   5.005   6.123   7.065  0.4373 -0.7681 -0.4510
   59MOL   C20132797   5.004   6.204   6.934 -0.0890 -0.3049 -0.4393
   59MOL   C20232798   4.920   6.334   6.937  0.7778 -1.2378  0.7628
   59MOL   O20332799   4.925   6.417   6.818  0.2816  0.2382  0.1275
   59MOL   C20432800   4.815   6.426   6.737 -0.1125  0.3135  0.9358
   59MOL   O20532801   4.705   6.373   6.755 -0.2492 -0.4075  0.3393
   59MOL   C20632802   4.851   6.504   6.607  0.5969  1.2084 -0.0725
   59MOL   C20732803   4.978   6.548   6.579  0.1552  0.2524 -0.1480
   59MOL   C20832804   5.006   6.594   6.453 -0.4078 -0.4115  0.0509
   59MOL   C20932805   4.912   6.581   6.347  0.2405  0.1282 -0.0464
   59MOL   C21032806   4.954   6.609   6.210  0.4708  0.3161 -0.0554
   59MOL   O21132807   5.075   6.625   6.178 -0.0661 -0.2293 -0.8776
   59MOL   C21232808   4.776   6.548   6.372 -0.4429 -0.0844 -0.0554
   59MOL   C21332809   4.749   6.517   6.505  0.4295 -0.7120  0.0517
   59MOL   H21432810   5.040   5.952   6.948  0.7094 -1.4832  0.8415
   59MOL   H21532811   5.043   5.900   7.108 -0.9535 -1.2000 -1.7829
   59MOL   H21632812   5.038   6.182   7.150 -1.5930  0.7659 -0.6862
   59MOL   H21732813   4.900   6.104   7.088  0.5626 -0.2058  0.6108
   59MOL   H21832814   5.108   6.222   6.907 -0.0244 -0.3916 -0.2436
   59MOL   H21932815   4.973   6.142   6.849  1.5970 -0.4008 -0.9974
   59MOL   H22032816   4.821   6.309   6.977 -0.8758  1.3978 -1.5542
   59MOL   H22132817   4.954   6.397   7.019 -0.9303 -0.3599  0.8264
   59MOL   H22232818   5.058   6.550   6.651  0.0167 -0.8445  0.0480
   59MOL   H22332819   5.100   6.644   6.437 -0.2584 -0.1857  1.4838
   59MOL   H22432820   4.700   6.566   6.297  0.5031 -0.6219 -1.1551
   59MOL   H22532821   4.646   6.496   6.531  0.0333  0.5574 -0.4115
   59MOL   O22632822   4.858   6.604   6.116 -0.5619  0.1529  0.1096
   59MOL   C22732823   4.909   6.558   5.990 -0.0136  0.0865  0.6176
   59MOL   C22832824   4.786   6.517   5.903 -0.3489 -0.3235 -0.2938
   59MOL   C22932825   4.838   6.464   5.770  0.0820 -0.9831 -0.7509
   59MOL   C23032826   4.745   6.385   5.682 -0.5800  0.0369 -0.5537
   59MOL   O23132827   4.807   6.339   5.560  0.6201  0.9027  0.3304
   59MOL   C23232828   4.799   6.212   5.530 -0.6894  0.5931 -0.3625
   59MOL   O23332829   4.743   6.131   5.608 -0.4570  0.3378  0.3004
   59MOL   C23432830   4.852   6.166   5.401 -0.6095 -0.3755 -0.3694
   59MOL   C23532831   4.891   6.029   5.386 -0.0516  0.6575  0.2424
   59MOL   C23632832   4.932   5.978   5.269  0.5449  0.4028 -0.0563
   59MOL   C23732833   4.946   6.053   5.151 -0.4029 -0.0293  0.1095
   59MOL   C23832834   5.019   6.001   5.033 -0.2814 -0.0109 -0.1418
   59MOL   O23932835   5.031   5.878   5.012  0.1076 -0.2659 -0.1791
   59MOL   C24032836   4.908   6.190   5.163  0.1353  0.2661 -0.2449
   59MOL   C24132837   4.859   6.242   5.286  0.0291 -0.1563 -0.1248
   59MOL   H24232838   4.961   6.639   5.938 -1.6846  0.8353  0.0934
   59MOL   H24332839   4.981   6.476   5.992  0.6037  0.5631 -1.6376
   59MOL   H24432840   4.706   6.591   5.894  0.1923  0.5178  1.6652
   59MOL   H24532841   4.742   6.427   5.946  1.0170 -1.2404 -0.7949
   59MOL   H24632842   4.877   6.546   5.710 -2.1719  1.8331  1.5134
   59MOL   H24732843   4.930   6.412   5.797 -1.0535 -3.1029 -0.8227
   59MOL   H24832844   4.684   6.309   5.731 -0.3400 -0.7205 -1.4218
   59MOL   H24932845   4.671   6.464   5.663  0.4696  0.6870 -2.0172
   59MOL   H25032846   4.891   5.969   5.476 -2.4740 -0.6635 -0.6046
   59MOL   H25132847   4.969   5.876   5.264  0.9994  0.6006 -0.8275
   59MOL   H25232848   4.925   6.255   5.078 -0.1165 -0.9580 -1.2570
   59MOL   H25332849   4.828   6.345   5.297  1.2216  0.0402  1.5945
   59MOL   O25432850   5.051   6.094   4.939  0.1645  0.1815 -0.0241
   59MOL   C25532851   5.138   6.058   4.830  0.6072 -0.4885  0.1564
   59MOL   C25632852   5.090   6.117   4.694  0.0743  0.2485  0.5133
   59MOL   C25732853   5.185   6.083   4.572  0.2475  0.3147 -0.2390
   59MOL   C25832854   5.118   6.118   4.442 -0.3558  0.4417  0.0745
   59MOL   O25932855   5.219   6.095   4.341 -0.1176 -0.1330 -0.0265
   59MOL   C26032856   5.242   5.974   4.289  0.4971  0.0520 -0.3694
   59MOL   O26132857   5.178   5.872   4.322 -0.5293  0.1031  0.3932
   59MOL   C26232858   5.368   5.973   4.211  0.6333  0.5144  0.6498
   59MOL   C26332859   5.443   5.854   4.196  0.0036  0.3574 -0.0119
   59MOL   C26432860   5.546   5.833   4.102 -0.5630 -0.1411  0.4219
   59MOL   C26532861   5.587   5.941   4.022 -0.0780 -0.7751  0.4046
   59MOL   C26632862   5.711   5.934   3.945  0.7883  0.1170 -0.0224
   59MOL   O26732863   5.767   6.036   3.905 -0.4607  0.5844  0.1873
   59MOL   C26832864   5.521   6.065   4.047 -1.0368 -0.1892  0.1185
   59MOL   C26932865   5.411   6.078   4.140 -0.3197  0.2536  0.3342
   59MOL   H27032866   5.242   6.090   4.838  0.7010 -1.1452  1.7425
   59MOL   H27132867   5.149   5.951   4.812  0.3567 -0.7708  1.5876
   59MOL   H27232868   5.064   6.223   4.699  0.7579  0.4866 -0.6890
   59MOL   H27332869   4.990   6.076   4.683  0.5524 -1.2274  1.4828
   59MOL   H27432870   5.279   6.139   4.578 -1.2582  2.6478  2.9141
   59MOL   H27532871   5.221   5.981   4.577 -2.3905 -0.6086  0.6264
   59MOL   H27632872   5.031   6.055   4.425  0.1537 -0.5254  1.0130
   59MOL   H27732873   5.086   6.221   4.426  0.3072  0.4330 -1.3893
   59MOL   H27832874   5.408   5.778   4.264 -0.3386 -0.4095 -1.0422
   59MOL   H27932875   5.591   5.736   4.091  0.3822  0.1871  1.2657
   59MOL   H28032876   5.544   6.154   3.990 -0.0181 -0.2847  0.3703
   59MOL   H28132877   5.367   6.176   4.146  1.0044  1.1475 -3.3298
   59MOL   O28232878   5.757   5.808   3.932 -0.6912  0.2325  0.8347
   59MOL   C28332879   5.887   5.782   3.877 -0.1784 -0.5241 -0.3660
   59MOL   C28432880   5.936   5.642   3.897  0.1099  1.1931  0.1666
   59MOL   C28532881   5.868   5.548   3.800  0.0126  0.8321  0.4028
   59MOL   C28632882   5.727   5.492   3.829  0.0030 -0.7227 -0.3082
   59MOL   O28732883   5.730   5.378   3.908 -0.3439 -0.0435 -0.0640
   59MOL   C28832884   5.743   5.396   4.049 -1.1732 -0.0660 -0.6561
   59MOL   O28932885   5.740   5.507   4.105  0.1836 -0.2046  0.2751
   59MOL   C29032886   5.761   5.268   4.120  0.2268  0.1941 -0.0353
   59MOL   C29132887   5.756   5.149   4.046 -0.0372 -0.2216  1.2351
   59MOL   C29232888   5.758   5.023   4.107 -0.0274  0.8982 -0.8796
   59MOL   C29332889   5.770   5.021   4.253 -0.3027 -0.0866  0.9785
   59MOL   C29432890   5.764   4.882   4.315  0.1207 -0.0193 -0.3280
   59MOL   O29532891   5.764   4.776   4.254  0.3670 -0.3423  0.2770
   59MOL   C29632892   5.784   5.137   4.327  0.3275  0.1207 -0.4621
   59MOL   C29732893   5.782   5.257   4.258 -0.2221 -0.3319 -0.0151
   59MOL   H29832894   5.881   5.798   3.770 -0.6086  0.4668 -0.2003
   59MOL   H29932895   5.961   5.846   3.927 -1.6098  0.8792  0.0081
   59MOL   H30032896   5.921   5.618   4.003 -0.5516  1.0270  0.0381
   59MOL   H30132897   6.044   5.640   3.881  0.0464  0.9449 -0.2339
   59MOL   H30232898   5.856   5.600   3.705  1.2424 -0.6129 -0.5697
   59MOL   H30332899   5.944   5.479   3.765 -1.7208  1.4134 -5.0265
   59MOL   H30432900   5.659   5.568   3.867  1.4541  0.0648  0.7747
   59MOL   H30532901   5.697   5.449   3.733 -0.5494 -2.1090  0.4706
   59MOL   H30632902   5.718   5.150   3.945  2.6286 -1.1282  0.2014
   59MOL   H30732903   5.727   4.935   4.053 -0.1557  0.6413 -0.3929
   59MOL   H30832904   5.798   5.145   4.434  1.6545  0.5238 -0.6575
   59MOL   H30932905   5.787   5.353   4.308 -1.6321  0.2423 -0.9471
   59MOL   O31032906   5.756   4.886   4.449 -0.1249 -0.9344  0.4301
   59MOL   C31132907   5.768   4.778   4.537 -0.2974 -0.3836 -0.2924
   59MOL   C31232908   5.787   4.827   4.683 -0.9041 -0.4163 -0.5832
   59MOL   C31332909   5.933   4.862   4.720 -0.8646  0.1107  0.7016
   59MOL   C31432910   5.954   4.958   4.839 -0.2249 -0.2087 -0.9647
   59MOL   O31532911   5.904   4.900   4.960  0.5586 -0.8215  0.0078
   59MOL   C31632912   5.971   4.820   5.035 -0.3635 -0.2924  0.2720
   59MOL   O31732913   6.076   4.768   4.994  0.2590  0.1559 -0.3546
   59MOL   C31832914   5.915   4.807   5.169  0.1385  0.9302 -0.5049
   59MOL   C31932915   5.806   4.881   5.216 -0.4170  0.5867  0.0385
   59MOL   C32032916   5.762   4.874   5.354  0.5825 -0.1105 -0.6429
   59MOL   C32132917   5.832   4.793   5.443  0.6714  0.0107  0.3483
   59MOL   C32232918   5.789   4.789   5.588 -0.0227  0.6785  0.5387
   59MOL   O32332919   5.817   4.699   5.668  0.1090  0.9343  0.4815
   59MOL   C32432920   5.944   4.714   5.400  0.0060 -0.1250 -0.3431
   59MOL   C32532921   5.981   4.717   5.266  0.2381 -0.8269  0.8814
   59MOL   H32632922   5.675   4.721   4.540  0.2181 -1.2456 -0.3992
   59MOL   H32732923   5.846   4.715   4.495  1.3856  1.0709  0.5779
   59MOL   H32832924   5.751   4.745   4.745 -2.2330  1.1906  0.8384
   59MOL   H32932925   5.729   4.917   4.703 -0.7179 -0.3091 -0.5247
   59MOL   H33032926   5.997   4.775   4.716 -0.6073  0.3788 -1.3457
   59MOL   H33132927   5.977   4.912   4.633  0.6009  0.8903  1.8645
   59MOL   H33232928   6.056   4.991   4.859  0.0200 -0.7155 -1.3532
   59MOL   H33332929   5.906   5.053   4.817 -2.4875 -1.8016 -3.1763
   59MOL   H33432930   5.752   4.945   5.148  0.3738  0.9880 -0.2174
   59MOL   H33532931   5.677   4.929   5.391  0.7162 -0.4094  0.1050
   59MOL   H33632932   6.002   4.663   5.476 -1.3555 -0.1528  0.7120
   59MOL   H33732933   6.072   4.671   5.230 -0.2604 -1.5788  0.5673
   59MOL   O33832934   5.712   4.891   5.624  0.1563 -0.3047 -0.2102
   59MOL   C33932935   5.662   4.905   5.758  0.3402 -0.3657 -0.6152
   59MOL   C34032936   5.506   4.901   5.752  0.2903  0.6446 -0.2360
   59MOL   C34132937   5.440   4.766   5.730  0.2565  0.1583 -0.2158
   59MOL   C34232938   5.294   4.758   5.785 -0.7556 -0.0008 -0.3781
   59MOL   O34332939   5.210   4.845   5.712 -0.1777  0.5212 -0.7382
   59MOL   C34432940   5.146   4.942   5.771  0.2977 -0.3083  0.3931
   59MOL   O34532941   5.159   4.982   5.886 -0.1213  0.1899  1.0964
   59MOL   C34632942   5.062   5.026   5.677 -0.5059 -0.9488  0.3849
   59MOL   C34732943   5.049   4.993   5.542 -0.2052  0.4389  0.5241
   59MOL   C34832944   5.002   5.093   5.452  0.2161 -0.4345 -0.3676
   59MOL   C34932945   4.936   5.211   5.496 -0.2784 -0.0975  0.4632
   59MOL   C35032946   4.870   5.323   5.411  0.1937 -0.2670  0.6534
   59MOL   O35132947   4.851   5.435   5.460 -0.2898 -0.8473  0.1045
   59MOL   C35232948   4.950   5.239   5.635  0.9656 -0.6633  0.1391
   59MOL   C35332949   5.002   5.145   5.726  0.1345 -0.3209  0.1643
   59MOL   H35432950   5.709   4.825   5.817 -1.9467 -0.8061  0.6715
   59MOL   H35532951   5.703   4.992   5.808 -0.3325 -1.5475  2.0972
   59MOL   H35632952   5.477   4.970   5.673  0.8968  0.6356 -0.4684
   59MOL   H35732953   5.467   4.951   5.841 -1.2783  0.9659 -1.0866
   59MOL   H35832954   5.428   4.750   5.623  2.3167 -3.8047  0.0541
   59MOL   H35932955   5.502   4.682   5.760 -0.8731  0.1976  2.3801
   59MOL   H36032956   5.264   4.654   5.771 -0.8283  0.0913 -0.8851
   59MOL   H36132957   5.302   4.775   5.893 -0.6009  1.1583 -0.5739
   59MOL   H36232958   5.102   4.913   5.493  1.1967  1.4515  0.3742
   59MOL   H36332959   5.003   5.071   5.346 -2.2050  1.3670 -0.8158
   59MOL   H36432960   4.912   5.335   5.667  0.8634 -1.3118  2.0237
   59MOL   H36532961   5.020   5.181   5.825 -0.9541  2.4994 -0.6244
   59MOL   O36632962   4.834   5.284   5.285 -0.0582  0.2214  0.1410
   59MOL   C36732963   4.741   5.359   5.214  0.2462 -0.1132 -0.7271
   59MOL   C36832964   4.818   5.435   5.102 -0.6081 -0.0504  0.6754
   59MOL   C36932965   4.900   5.548   5.154 -0.3576 -0.0048  0.5522
   59MOL   C37032966   5.042   5.516   5.211  0.3399 -0.2907  0.0853
   59MOL   O37132967   5.148   5.600   5.155  0.2090 -0.3846  0.4176
   59MOL   C37232968   5.271   5.572   5.200 -0.0590 -0.4193  0.0500
   59MOL   O37332969   5.301   5.508   5.303 -0.1506 -0.5187 -0.1747
   59MOL   C37432970   5.383   5.645   5.126  0.1491  0.2656  1.1738
   59MOL   C37532971   5.514   5.626   5.167 -0.2197  0.6704 -0.0730
   59MOL   C37632972   5.621   5.688   5.095 -0.0628 -0.0606  0.4547
   59MOL   C37732973   5.593   5.756   4.971  0.1088 -0.1109  0.2123
   59MOL   C37832974   5.700   5.816   4.886  0.4096  0.4431 -0.1089
   59MOL   O37932975   5.819   5.794   4.901 -0.6822  0.1714  0.6914
   59MOL   C38032976   5.462   5.764   4.925  0.5156 -0.1892 -0.2279
   59MOL   C38132977   5.355   5.713   5.002 -0.1134 -0.0612 -0.4085
   59MOL   H38232978   4.668   5.291   5.170 -0.5905  0.2899  0.0353
   59MOL   H38332979   4.688   5.427   5.280  0.2138  0.0193 -0.8887
   59MOL   H38432980   4.743   5.481   5.037  0.7310  0.8447 -0.2661
   59MOL   H38532981   4.886   5.373   5.044  1.9422  2.6398  0.6754
   59MOL   H38632982   4.904   5.623   5.075  0.0333  0.7728  1.2931
   59MOL   H38732983   4.849   5.594   5.239 -0.3835 -0.2534  0.6723
   59MOL   H38832984   5.046   5.530   5.320 -1.8738  0.5341  0.0858
   59MOL   H38932985   5.063   5.413   5.183  1.3386  0.3308 -1.5288
   59MOL   H39032986   5.537   5.565   5.254  0.1014 -0.2264 -0.7775
   59MOL   H39132987   5.725   5.675   5.122 -0.0163  0.4995  0.5470
   59MOL   H39232988   5.426   5.818   4.838  0.0216 -0.3161 -0.1048
   59MOL   H39332989   5.253   5.732   4.972 -0.2181  3.0286  1.7184
   59MOL   O39432990   5.654   5.923   4.806 -0.2378 -0.4830  0.5906
   59MOL   C39532991   5.749   5.997   4.726  0.6150 -0.5936 -0.0498
   59MOL   C39632992   5.744   5.952   4.582 -0.2363 -0.5752 -0.1356
   59MOL   C39732993   5.623   5.999   4.508 -0.0362 -0.5935 -0.2132
   59MOL   C39832994   5.620   6.152   4.466 -0.3760 -0.3803  0.7112
   59MOL   O39932995   5.701   6.183   4.353  0.5189  0.2979 -0.1026
   59MOL   C40032996   5.817   6.249   4.382  0.0330 -0.3424  0.8757
   59MOL   O40132997   5.862   6.272   4.494  0.0189 -0.1840  0.2641
   59MOL   C40232998   5.895   6.278   4.254 -0.0030 -0.4971 -0.1404
   59MOL   C40332999   6.024   6.328   4.266 -0.5568  0.3572  0.4303
   59MOL   C40433000   6.103   6.360   4.153 -0.0869 -0.3726  0.1184
   59MOL   C40533001   6.043   6.344   4.026 -0.2828  0.8019 -0.6816
   59MOL   C40633002   6.119   6.376   3.899  0.1106 -0.6100 -0.5555
   59MOL   O40733003   6.061   6.410   3.796  0.0476 -0.8442  1.1650
   59MOL   C40833004   5.910   6.293   4.013 -0.4601  0.1529  0.4155
   59MOL   C40933005   5.836   6.261   4.128  0.0800  0.9502 -0.3978
   59MOL   H41033006   5.738   6.104   4.741  1.6203 -0.3808 -0.7818
   59MOL   H41133007   5.849   5.989   4.767 -0.0877 -0.9704  1.6157
   59MOL   H41233008   5.749   5.843   4.594  2.2630 -0.5882 -1.1290
   59MOL   H41333009   5.841   5.975   4.537  0.1378 -0.5599  0.6671
   59MOL   H41433010   5.612   5.932   4.423  1.1614  0.0870 -0.9032
   59MOL   H41533011   5.536   5.979   4.571  0.4648 -0.5935  0.4862
   59MOL   H41633012   5.514   6.164   4.443  0.3046 -1.4341 -3.3689
   59MOL   H41733013   5.630   6.213   4.556  1.2931 -1.0192  0.9771
   59MOL   H41833014   6.075   6.342   4.360 -0.8128  1.7722  0.3677
   59MOL   H41933015   6.208   6.384   4.162 -0.0738  0.3036 -1.6686
   59MOL   H42033016   5.872   6.280   3.913 -0.9588  1.4035  0.4231
   59MOL   H42133017   5.737   6.222   4.108  0.5138 -0.8142  0.8040
   59MOL   O42233018   6.257   6.363   3.903  0.5268  0.8054  0.2698
   59MOL   C42333019   6.336   6.394   3.793 -0.1055 -0.6110 -0.5469
   59MOL   C42433020   6.483   6.387   3.836 -0.3084  0.7181  0.6429
   59MOL   C42533021   6.523   6.462   3.956 -0.2032 -0.0759 -0.1002
   59MOL   C42633022   6.677   6.438   3.995  0.9245 -0.0801 -0.4573
   59MOL   O42733023   6.758   6.506   3.900  0.2735  0.1649  0.1750
   59MOL   C42833024   6.885   6.554   3.936  0.0621 -0.0972 -0.9479
   59MOL   O42933025   6.936   6.532   4.048  0.1470  0.3241  0.4929
   59MOL   C43033026   6.936   6.654   3.839 -0.1205 -0.0124 -0.8336
   59MOL   C43133027   6.882   6.661   3.703  0.4453  0.6330  0.1199
   59MOL   C43233028   6.939   6.760   3.616  0.2863  0.5617  0.3571
   59MOL   C43333029   7.036   6.843   3.660 -0.2362 -0.7900  0.1010
   59MOL   C43433030   7.090   6.945   3.563  0.0003 -0.3861 -0.4333
   59MOL   O43533031   7.198   7.005   3.581  0.3694 -0.4781  0.1722
   59MOL   C43633032   7.093   6.835   3.790  0.4665  0.6976 -0.3439
   59MOL   C43733033   7.038   6.741   3.883 -0.3658  0.4300  0.5426
   59MOL   H43833034   6.315   6.347   3.698 -1.5516 -2.5384  0.6930
   59MOL   H43933035   6.315   6.499   3.773  0.8749  0.0044  1.4763
   59MOL   H44033036   6.540   6.431   3.754  0.0092 -0.2556  0.3347
   59MOL   H44133037   6.514   6.283   3.840 -1.8692  0.2983  2.4425
   59MOL   H44233038   6.511   6.569   3.938  1.5626  0.3568  1.1371
   59MOL   H44333039   6.468   6.429   4.043 -0.5337 -2.0558 -1.0242
   59MOL   H44433040   6.695   6.454   4.101 -3.3696 -0.1840  0.3958
   59MOL   H44533041   6.697   6.332   3.982 -1.0884 -0.6080  0.4944
   59MOL   H44633042   6.799   6.599   3.673  0.1235  1.9290 -1.7550
   59MOL   H44733043   6.895   6.757   3.517  0.9564 -0.4947  0.0723
   59MOL   H44833044   7.171   6.905   3.817  0.2365  0.5968  0.5854
   59MOL   H44933045   7.062   6.744   3.988  1.4810  2.6401  0.0840
   59MOL   O45033046   7.016   6.964   3.453 -0.1645  0.5279  0.5077
   59MOL   C45133047   7.047   7.049   3.345 -0.3153  0.1941  0.2938
   59MOL   C45233048   6.959   7.173   3.332  0.5948 -0.1840  0.2486
   59MOL   C45333049   6.948   7.214   3.183 -0.1233  0.3923  0.8101
   59MOL   C45433050   6.823   7.301   3.157  0.0915 -0.9863  0.1683
   59MOL   O45533051   6.709   7.223   3.169 -0.1371 -0.0937 -0.0195
   59MOL   C45633052   6.594   7.292   3.184  0.1204 -0.3862  0.1030
   59MOL   O45733053   6.591   7.414   3.180 -0.6199 -0.4512 -0.2479
   59MOL   C45833054   6.478   7.203   3.214 -0.2871 -0.2258  0.7649
   59MOL   C45933055   6.349   7.262   3.226  1.2793  0.1990  0.1014
   59MOL   C46033056   6.235   7.177   3.242 -1.0898 -1.0806  0.2775
   59MOL   C46133057   6.240   7.039   3.249  0.0071  0.4043 -0.1111
   59MOL   C46233058   6.117   6.958   3.271  0.0927 -0.0384 -0.1151
   59MOL   O46333059   6.119   6.832   3.261 -0.2314  0.2209 -0.0640
   59MOL   C46433060   6.368   6.980   3.234  0.3922 -0.7764 -0.5935
   59MOL   C46533061   6.489   7.063   3.219  0.0401 -0.0635 -0.4294
   59MOL   H46633062   7.151   7.081   3.352 -0.1311  0.0665 -1.5540
   59MOL   H46733063   7.039   6.990   3.254  1.0024  1.1329 -0.4553
   59MOL   H46833064   6.996   7.252   3.399 -0.6970 -1.1347  2.1334
   59MOL   H46933065   6.859   7.150   3.368  0.4325  0.2856  0.0965
   59MOL   H47033066   7.036   7.268   3.149  0.4881  0.3016  2.2106
   59MOL   H47133067   6.939   7.128   3.118 -3.2460 -0.7657  2.6426
   59MOL   H47233068   6.822   7.385   3.227 -2.2639 -0.9311  0.1131
   59MOL   H47333069   6.838   7.359   3.066 -0.9301 -3.3680 -1.5661
   59MOL   H47433070   6.335   7.369   3.232 -1.0655 -0.0274 -0.5730
   59MOL   H47533071   6.139   7.225   3.242  0.0145  1.1797 -0.2988
   59MOL   H47633072   6.386   6.875   3.253  0.4726 -0.8143 -0.8782
   59MOL   H47733073   6.586   7.016   3.216  0.3095  0.3494  1.5377
   59MOL   O47833074   6.015   7.025   3.302 -0.5790 -0.0795  0.5779
   59MOL   C47933075   5.892   6.955   3.344 -0.3335  0.2246  0.2643
   59MOL   C48033076   5.781   6.971   3.248 -0.7308  0.3516  0.4495
   59MOL   C48133077   5.644   6.909   3.284  0.0480  0.5700  0.8802
   59MOL   C48233078   5.533   6.895   3.175  0.7013  0.9476 -0.1291
   59MOL   O48333079   5.432   6.803   3.222  0.5991  0.2445  0.0960
   59MOL   C48433080   5.369   6.731   3.136  0.4650  0.5041 -0.1084
   59MOL   O48533081   5.361   6.749   3.017 -0.3219  0.1772 -0.5049
   59MOL   C48633082   5.319   6.604   3.200  0.7178 -0.2440  0.4307
   59MOL   C48733083   5.318   6.586   3.337 -0.3545 -0.4601  0.1393
   59MOL   C48833084   5.265   6.461   3.388 -0.6210 -0.2805 -0.0578
   59MOL   C48933085   5.223   6.357   3.300 -0.1104 -0.6953 -0.5203
   59MOL   C49033086   5.170   6.226   3.353 -0.0289  0.5367 -0.0292
   59MOL   O49133087   5.144   6.124   3.290  0.3746  0.3336  0.5155
   59MOL   C49233088   5.223   6.379   3.166 -0.0169  0.7312  0.3373
   59MOL   C49333089   5.275   6.498   3.118  0.4321 -0.1140 -0.0938
   59MOL   H49433090   5.911   6.849   3.360  1.3669 -0.0227 -2.9648
   59MOL   H49533091   5.866   7.003   3.438 -2.1226 -2.5631  1.2596
   59MOL   H49633092   5.821   6.936   3.153  3.3933  0.3338  2.0868
   59MOL   H49733093   5.763   7.078   3.245 -3.0210  0.1220  3.2708
   59MOL   H49833094   5.666   6.807   3.317  0.3781  0.5370  0.5569
   59MOL   H49933095   5.599   6.955   3.372  0.0497  2.1728  0.0547
   59MOL   H50033096   5.486   6.989   3.147  1.5684  1.5655  0.4778
   59MOL   H50133097   5.570   6.861   3.078  1.6669 -1.3344  1.0079
   59MOL   H50233098   5.359   6.659   3.405 -0.9069 -0.7962  0.8410
   59MOL   H50333099   5.264   6.459   3.496  2.2964  4.0749  0.2157
   59MOL   H50433100   5.192   6.302   3.097 -0.5623  2.3634 -1.2888
   59MOL   H50533101   5.283   6.501   3.010  1.9012 -3.2757 -0.1132
   59MOL   O50633102   5.151   6.230   3.483  0.3069  0.4018 -0.0118
   59MOL   C50733103   5.116   6.119   3.559 -0.0700  1.0163 -0.2496
   59MOL   C50833104   5.157   6.154   3.701  0.2937 -0.1876 -0.6298
   59MOL   C50933105   5.309   6.167   3.716 -0.3126 -0.0097  0.3445
   59MOL   C51033106   5.373   6.033   3.748 -0.5409  0.3937 -0.5494
   59MOL   O51133107   5.377   5.940   3.639 -0.0029  0.0417 -0.5331
   59MOL   C51233108   5.417   5.808   3.666 -0.3985 -0.3845  0.0308
   59MOL   O51333109   5.456   5.774   3.778 -0.1838 -0.3065 -0.1678
   59MOL   C51433110   5.407   5.719   3.553 -0.2314  0.2491 -0.0695
   59MOL   C51533111   5.388   5.774   3.422  0.1749 -0.3727 -0.7248
   59MOL   C51633112   5.368   5.676   3.319 -0.4625 -0.7978 -0.1110
   59MOL   C51733113   5.370   5.534   3.338  0.3896  0.0134 -0.2059
   59MOL   C51833114   5.369   5.439   3.226 -0.0120  0.3108 -0.1553
   59MOL   O51933115   5.334   5.479   3.114 -0.4832  0.8567  0.1600
   59MOL   C52033116   5.405   5.483   3.468 -0.0487 -0.0942  0.8463
   59MOL   C52133117   5.426   5.579   3.570  0.2113 -0.2656  0.0823
   59MOL   H52233118   5.008   6.101   3.553  0.3423 -1.0626 -2.1885
   59MOL   H52333119   5.181   6.042   3.519 -0.5156  0.0893  0.7747
   59MOL   H52433120   5.117   6.076   3.765  0.0002  0.7395  0.3378
   59MOL   H52533121   5.108   6.246   3.735  1.0913 -0.9515  2.7827
   59MOL   H52633122   5.367   6.203   3.632 -1.9185 -0.1737 -0.8526
   59MOL   H52733123   5.338   6.226   3.804  0.3171  0.1114  0.0584
   59MOL   H52833124   5.479   6.043   3.773 -0.4258 -1.6834 -0.1345
   59MOL   H52933125   5.326   5.986   3.834  1.2238 -1.1319 -0.3929
   59MOL   H53033126   5.376   5.879   3.398 -2.4169 -0.2399  0.9146
   59MOL   H53133127   5.353   5.710   3.218 -3.3204 -2.5079 -0.3206
   59MOL   H53233128   5.427   5.378   3.479  0.4462 -0.2790 -1.6130
   59MOL   H53333129   5.464   5.556   3.669 -0.7406  0.8738  0.7272
   59MOL   O53433130   5.391   5.304   3.264 -0.2390 -0.0553  0.1468
   59MOL   C53533131   5.390   5.204   3.164 -0.3269  0.5208  0.0962
   59MOL   C53633132   5.345   5.077   3.232 -0.5897  0.0760  0.2996
   59MOL   C53733133   5.455   5.012   3.314 -0.1000  0.7131 -0.1051
   59MOL   C53833134   5.393   4.895   3.397  0.8940  0.0989 -0.0278
   59MOL   O53933135   5.489   4.850   3.489  0.3420  0.6226  0.6256
   59MOL   C54033136   5.497   4.724   3.524 -0.1112 -0.2585  0.3890
   59MOL   O54133137   5.429   4.637   3.465  0.3405 -0.3925 -0.4639
   59MOL   C54233138   5.588   4.700   3.641 -0.0652  0.5938 -0.1293
   59MOL   C54333139   5.652   4.803   3.710 -0.1336 -0.2170  0.0869
   59MOL   C54433140   5.744   4.773   3.815  0.0316 -0.2723  0.2703
   59MOL   C54533141   5.775   4.639   3.851 -0.7516 -0.0645 -1.1415
   59MOL   C54633142   5.881   4.609   3.956  0.3670  0.6803 -0.8805
   59MOL   O54733143   5.920   4.497   3.997  0.1202 -0.0973  0.0884
   59MOL   C54833144   5.708   4.535   3.787  0.2995  0.3002  0.1401
   59MOL   C54933145   5.609   4.568   3.686  0.5050 -0.0993 -0.4476
   59MOL   H55033146   5.331   5.230   3.076 -0.9169  2.1359  0.9419
   59MOL   H55133147   5.495   5.192   3.138 -0.1875  1.3004  0.2755
   59MOL   H55233148   5.314   5.010   3.152 -3.1467  1.9052 -0.3032
   59MOL   H55333149   5.257   5.107   3.289 -1.1895 -1.1151  0.0138
   59MOL   H55433150   5.542   4.982   3.256 -0.6921  1.5183 -1.4330
   59MOL   H55533151   5.489   5.086   3.386  2.1458 -0.1797 -0.2039
   59MOL   H55633152   5.311   4.924   3.462  2.6700 -0.6639  2.6388
   59MOL   H55733153   5.351   4.817   3.334 -0.8819  0.8834  0.1698
   59MOL   H55833154   5.645   4.905   3.677 -0.4361 -0.0428  0.6734
   59MOL   H55933155   5.801   4.854   3.858 -1.2763  1.3708 -0.9892
   59MOL   H56033156   5.727   4.430   3.806 -0.9182 -0.3248 -1.9497
   59MOL   H56133157   5.557   4.489   3.634 -2.9590  0.0502  2.6143
   59MOL   H56233158   5.914   4.703   4.000 -0.3589  1.6178 -2.2881
   60MOL     O133159   2.064   7.211   5.035 -0.0626  0.3818 -0.3316
   60MOL     C233160   1.990   7.112   4.974 -0.0675  0.5607  0.5735
   60MOL     C333161   1.968   7.127   4.826 -0.2100  0.7152 -0.0053
   60MOL     C433162   1.908   6.994   4.765 -0.7546  1.0194  0.2484
   60MOL     C533163   1.881   6.996   4.608 -1.3366  0.2717  0.0446
   60MOL     O633164   2.004   7.021   4.534  1.0927 -0.1269 -1.0021
   60MOL     C733165   2.000   7.019   4.400  1.1199 -0.1847 -0.6411
   60MOL     O833166   1.892   7.006   4.342  0.1767  0.3604  0.0340
   60MOL     C933167   2.131   7.046   4.335 -0.1608  0.0980 -0.8277
   60MOL    C1033168   2.247   7.049   4.424 -0.4621  0.2544 -0.3134
   60MOL    C1133169   2.370   7.090   4.375  0.0639  0.3074 -0.4355
   60MOL    C1233170   2.382   7.133   4.237 -0.2070 -0.1940 -0.8034
   60MOL    C1333171   2.507   7.197   4.185  0.1885  0.3182  0.1179
   60MOL    O1433172   2.527   7.236   4.068 -0.4683  0.5040 -0.3342
   60MOL    C1533173   2.266   7.141   4.153  0.6927  0.0659  0.0644
   60MOL    C1633174   2.140   7.098   4.202 -0.5780 -0.6196 -0.3876
   60MOL    H1733175   2.042   7.017   4.985 -1.5070 -0.2025  1.0296
   60MOL    H1833176   1.897   7.094   5.029  0.4492 -2.6940  0.4719
   60MOL    H1933177   2.066   7.145   4.783 -0.2375  1.9201  0.4158
   60MOL    H2033178   1.910   7.212   4.793 -0.7459  0.1555 -0.5164
   60MOL    H2133179   1.977   6.914   4.791 -0.1344  1.1581 -0.9196
   60MOL    H2233180   1.819   6.967   4.822  0.2123  1.0266  1.7812
   60MOL    H2333181   1.831   6.906   4.574 -1.2230 -0.2540  1.2411
   60MOL    H2433182   1.812   7.077   4.585 -1.9222 -0.1665  0.2379
   60MOL    H2533183   2.234   7.021   4.527 -0.6357  1.5305  0.0239
   60MOL    H2633184   2.456   7.097   4.441 -0.4938 -1.6741  0.5371
   60MOL    H2733185   2.283   7.172   4.052 -0.9199 -1.5953 -0.7483
   60MOL    H2833186   2.050   7.099   4.142 -0.5062 -1.8658 -0.5321
   60MOL    H2933187   2.052   7.204   5.128  0.7223 -2.7033 -0.4310
   60MOL    O3033188   2.601   7.222   4.287 -0.0212 -0.6524 -0.3866
   60MOL    C3133189   2.712   7.303   4.258 -0.1122  0.2518  0.0380
   60MOL    C3233190   2.700   7.439   4.331  0.3999  0.1516 -0.2751
   60MOL    C3333191   2.676   7.422   4.483 -0.4922 -0.1431  0.6265
   60MOL    C3433192   2.682   7.555   4.547 -0.7372 -0.5065 -0.0551
   60MOL    O3533193   2.694   7.539   4.684  0.2477  0.3504 -0.1180
   60MOL    C3633194   2.775   7.611   4.764  0.2847 -0.5017 -1.2085
   60MOL    O3733195   2.854   7.702   4.734  0.3194  0.0923  0.2670
   60MOL    C3833196   2.762   7.555   4.904 -0.5397  0.6025  0.9533
   60MOL    C3933197   2.670   7.446   4.936 -0.7191 -0.6061 -0.1309
   60MOL    C4033198   2.662   7.391   5.064 -0.4605  0.5218 -0.0530
   60MOL    C4133199   2.737   7.448   5.173  0.2555 -0.0669 -0.0064
   60MOL    C4233200   2.717   7.395   5.309 -0.1962  0.0968  0.3250
   60MOL    O4333201   2.649   7.295   5.321 -0.3569  0.6407  0.1363
   60MOL    C4433202   2.820   7.562   5.146  0.2369 -0.1662  0.5192
   60MOL    C4533203   2.837   7.607   5.012 -0.0226  0.0212  0.5495
   60MOL    H4633204   2.795   7.244   4.299  1.4067  1.6754 -0.9167
   60MOL    H4733205   2.719   7.330   4.153 -0.8593  0.4313  0.0362
   60MOL    H4833206   2.637   7.516   4.285  1.5054  0.3860 -1.4191
   60MOL    H4933207   2.800   7.481   4.321  0.8635 -1.1253 -1.1571
   60MOL    H5033208   2.578   7.380   4.501 -0.3553 -0.9485 -0.4491
   60MOL    H5133209   2.742   7.351   4.533 -0.4347 -0.6722 -0.2011
   60MOL    H5233210   2.761   7.616   4.504 -0.7560 -1.0215 -0.8202
   60MOL    H5333211   2.590   7.612   4.532 -0.3005 -0.0135 -0.8653
   60MOL    H5433212   2.611   7.406   4.855  1.4451  0.0739 -2.1009
   60MOL    H5533213   2.600   7.302   5.073 -1.1642  0.9985 -0.1379
   60MOL    H5633214   2.876   7.608   5.226 -0.7981  1.0848  0.5333
   60MOL    H5733215   2.909   7.685   4.990 -0.6970  0.5403  0.1495
   60MOL    O5833216   2.778   7.458   5.402  0.1406 -0.1218 -0.0913
   60MOL    C5933217   2.781   7.405   5.533 -0.9513 -0.2064  0.7541
   60MOL    C6033218   2.676   7.472   5.629  0.3486 -0.5381 -0.1428
   60MOL    C6133219   2.691   7.617   5.652  0.8701  0.3490 -0.3758
   60MOL    C6233220   2.572   7.662   5.747  0.5143  0.2378 -0.3338
   60MOL    O6333221   2.589   7.792   5.792  0.2860  0.0080 -0.1175
   60MOL    C6433222   2.487   7.847   5.866 -0.4562  0.1534 -0.1354
   60MOL    O6533223   2.371   7.800   5.870  0.0624 -0.2279 -0.7570
   60MOL    C6633224   2.524   7.980   5.925  0.1459 -0.2658  0.6078
   60MOL    C6733225   2.657   8.016   5.941  0.1350 -0.1196  0.4374
   60MOL    C6833226   2.696   0.044   5.989  0.7068  0.3414  0.6180
   60MOL    C6933227   2.596   0.132   6.040 -0.0758  0.3134 -0.2519
   60MOL    C7033228   2.633   0.261   6.103  0.3753 -0.7576 -1.1658
   60MOL    O7133229   2.557   0.321   6.178 -0.0709  0.2768  0.4208
   60MOL    C7233230   2.458   0.087   6.051  0.1278 -0.3139 -0.0468
   60MOL    C7333231   2.422   8.066   5.981 -0.5737 -0.0280 -0.3725
   60MOL    H7433232   2.769   7.297   5.532 -0.5483 -0.2728  1.8943
   60MOL    H7533233   2.880   7.417   5.577 -0.6911  0.9921 -0.1260
   60MOL    H7633234   2.691   7.424   5.726 -0.0155 -1.8872 -0.7454
   60MOL    H7733235   2.576   7.444   5.598  0.1369  0.7329 -0.6453
   60MOL    H7833236   2.780   7.631   5.714  1.6154 -2.1681 -0.8272
   60MOL    H7933237   2.694   7.681   5.564  1.0217  0.2812 -0.4199
   60MOL    H8033238   2.484   7.671   5.683 -0.0047  0.5340  0.4127
   60MOL    H8133239   2.553   7.598   5.833  1.2085 -0.8870 -0.9925
   60MOL    H8233240   2.734   7.943   5.917 -1.2881 -1.1079 -1.2528
   60MOL    H8333241   2.802   0.065   5.994  1.1080 -1.3890 -0.2499
   60MOL    H8433242   2.385   0.149   6.101  0.9545  0.3174  0.3982
   60MOL    H8533243   2.318   8.037   5.973 -0.9770  1.3718 -0.3399
   60MOL    O8633244   2.757   0.318   6.060  0.0657 -0.3676 -0.6539
   60MOL    C8733245   2.819   0.406   6.140 -0.8114 -0.5699 -0.3591
   60MOL    C8833246   2.965   0.445   6.090  0.5084 -0.1521  0.4519
   60MOL    C8933247   3.047   0.339   6.028  0.3374  0.2870 -0.2034
   60MOL    C9033248   3.194   0.379   5.997  0.1251 -0.8606 -0.1461
   60MOL    O9133249   3.218   0.495   5.922 -0.3480 -0.2388 -0.4537
   60MOL    C9233250   3.219   0.498   5.786 -0.8011  0.5817 -0.4711
   60MOL    O9333251   3.203   0.397   5.718 -0.0095 -0.6841 -0.1306
   60MOL    C9433252   3.232   0.634   5.725 -0.6141 -0.2993  0.0866
   60MOL    C9533253   3.282   0.747   5.785  0.0496 -0.6302  0.0115
   60MOL    C9633254   3.307   0.862   5.712 -0.6119 -0.4540  0.0358
   60MOL    C9733255   3.266   0.872   5.574 -0.3675 -0.4087  0.2478
   60MOL    C9833256   3.292   0.999   5.497 -0.1938  0.0702  0.0086
   60MOL    O9933257   3.242   1.019   5.384  0.1755 -0.1902 -0.3091
   60MOL   C10033258   3.207   0.758   5.516  0.0864 -0.7715 -0.3107
   60MOL   C10133259   3.188   0.645   5.590  0.4600 -0.2461  0.2925
   60MOL   H10233260   2.766   0.497   6.166  1.7893  0.5889  1.0286
   60MOL   H10333261   2.820   0.350   6.233  0.4698  0.5186  0.2902
   60MOL   H10433262   3.013   0.473   6.184  0.7326  2.2184 -0.3576
   60MOL   H10533263   2.974   0.529   6.022  0.2254  2.0401  3.0211
   60MOL   H10633264   3.046   0.251   6.093  1.8581  1.0301  0.8562
   60MOL   H10733265   3.004   0.303   5.934 -1.6349  1.0558  0.3897
   60MOL   H10833266   3.237   0.399   6.096  1.0527 -0.9886 -0.5146
   60MOL   H10933267   3.259   0.304   5.953 -0.2380  0.7643 -3.6452
   60MOL   H11033268   3.319   0.753   5.886  0.4214  2.5415 -0.2571
   60MOL   H11133269   3.367   0.944   5.749 -0.4802 -0.4240 -0.2446
   60MOL   H11233270   3.175   0.756   5.412 -2.5307 -0.0514  0.4334
   60MOL   H11333271   3.145   0.557   5.544 -0.8239  1.2793 -1.5284
   60MOL   O11433272   3.383   1.073   5.554  0.6557 -0.3504 -0.0458
   60MOL   C11533273   3.427   1.191   5.486 -0.4463 -0.3960  0.6323
   60MOL   C11633274   3.532   1.268   5.569 -0.1272 -0.2579 -0.2185
   60MOL   C11733275   3.654   1.179   5.622  0.8201 -0.5148 -0.4377
   60MOL   C11833276   3.732   1.111   5.519  0.6399  0.6012  0.3052
   60MOL   O11933277   3.654   1.005   5.452 -0.1794 -0.3290 -0.8853
   60MOL   C12033278   3.675   0.871   5.485  0.1465 -0.1635  0.3187
   60MOL   O12133279   3.764   0.837   5.559  0.0557  0.0542 -0.3046
   60MOL   C12233280   3.581   0.783   5.415 -0.4958 -0.6139 -0.1720
   60MOL   C12333281   3.581   0.653   5.458 -0.4256 -0.3350 -0.4352
   60MOL   C12433282   3.499   0.563   5.393  0.2062 -0.3676  0.0228
   60MOL   C12533283   3.406   0.603   5.287 -0.6504  0.3088  0.6662
   60MOL   C12633284   3.325   0.501   5.217 -0.1618 -0.0813 -0.2407
   60MOL   O12733285   3.257   0.533   5.124 -0.2352  0.0306  0.2869
   60MOL   C12833286   3.412   0.738   5.242  0.1430  0.0906 -0.2551
   60MOL   C12933287   3.501   0.826   5.301  0.8918 -0.0891  0.0275
   60MOL   H13033288   3.460   1.149   5.391  1.1486  1.5660  0.2844
   60MOL   H13133289   3.340   1.251   5.462 -1.6447 -0.6687  4.0438
   60MOL   H13233290   3.490   1.309   5.661 -0.4736  0.2309 -0.5905
   60MOL   H13333291   3.562   1.356   5.513  0.2456  0.4216  1.0188
   60MOL   H13433292   3.724   1.249   5.667  1.6222 -0.5722 -1.5770
   60MOL   H13533293   3.615   1.112   5.699  0.2796  0.7387  0.3934
   60MOL   H13633294   3.770   1.169   5.435  1.8768  0.4346  0.7403
   60MOL   H13733295   3.820   1.067   5.566 -0.8824 -2.2142  0.6640
   60MOL   H13833296   3.647   0.620   5.537  0.9045  1.9242 -0.5441
   60MOL   H13933297   3.513   0.462   5.428  0.8973  0.4820  2.2951
   60MOL   H14033298   3.351   0.763   5.157 -1.9223 -0.0634  1.1320
   60MOL   H14133299   3.498   0.931   5.275  0.3130 -0.3333 -0.9157
   60MOL   O14233300   3.331   0.375   5.259 -0.5003 -0.1891  0.0792
   60MOL   C14333301   3.257   0.276   5.186  0.3396  0.2330 -0.0713
   60MOL   C14433302   3.123   0.250   5.264  0.5277 -0.1668 -0.4651
   60MOL   C14533303   3.032   0.378   5.276 -0.5386  0.4479  0.5292
   60MOL   C14633304   2.893   0.342   5.321 -0.0004  0.8260 -0.5456
   60MOL   O14733305   2.799   0.316   5.218  0.4387 -0.7286  0.2397
   60MOL   C14833306   2.673   0.302   5.242  0.0088  0.8695  0.1282
   60MOL   O14933307   2.628   0.298   5.360 -0.1732 -0.0838 -0.3020
   60MOL   C15033308   2.587   0.301   5.122  0.1597 -0.4395 -0.0121
   60MOL   C15133309   2.640   0.331   4.997 -0.3270  0.0317 -0.1333
   60MOL   C15233310   2.566   0.318   4.881  0.1837 -0.4083 -0.0574
   60MOL   C15333311   2.434   0.267   4.889  0.3424 -0.0902  0.4984
   60MOL   C15433312   2.348   0.240   4.767  0.7161  0.4565 -0.3557
   60MOL   O15533313   2.230   0.189   4.780 -0.4544 -0.0488 -0.2364
   60MOL   C15633314   2.376   0.229   5.013  0.6096  0.2120 -0.1289
   60MOL   C15733315   2.454   0.251   5.132  0.1634  0.4201  0.2643
   60MOL   H15833316   3.224   0.307   5.087  1.0273  1.3196  0.0325
   60MOL   H15933317   3.314   0.184   5.169 -2.1655 -0.8628 -3.0737
   60MOL   H16033318   3.148   0.205   5.360  0.4691  0.5069 -0.1283
   60MOL   H16133319   3.067   0.181   5.203  2.5543 -0.7650 -1.7155
   60MOL   H16233320   3.084   0.443   5.347  0.8442 -2.6057  2.4610
   60MOL   H16333321   3.029   0.439   5.186  2.9066 -1.4819 -1.0266
   60MOL   H16433322   2.905   0.262   5.393  4.4006 -0.0302 -2.0574
   60MOL   H16533323   2.857   0.427   5.379 -0.7519 -0.8738  1.5063
   60MOL   H16633324   2.744   0.360   4.999  0.5995 -3.1104  1.4554
   60MOL   H16733325   2.606   0.324   4.781 -1.4945 -2.1327 -0.8603
   60MOL   H16833326   2.286   0.170   5.018  1.6128 -1.3399  0.0241
   60MOL   H16933327   2.405   0.223   5.224  0.2708 -4.1439 -0.9810
   60MOL   O17033328   2.410   0.268   4.646 -0.3930  0.1716  0.7565
   60MOL   C17133329   2.328   0.268   4.528 -1.2387 -0.3681 -0.9482
   60MOL   C17233330   2.408   0.225   4.408  0.6177 -0.3554  0.0259
   60MOL   C17333331   2.370   0.089   4.346  0.0538 -0.1675  0.3316
   60MOL   C17433332   2.474   0.053   4.226  0.3082  0.7188 -0.9846
   60MOL   O17533333   2.448   0.117   4.103  0.6291  0.0562  0.2777
   60MOL   C17633334   2.469   0.251   4.087  0.6304  0.2742 -0.1730
   60MOL   O17733335   2.537   0.317   4.164 -0.5667 -0.2963  0.3815
   60MOL   C17833336   2.398   0.306   3.966 -0.9824  0.7550  0.0364
   60MOL   C17933337   2.322   0.224   3.884  0.0947 -0.4039  0.1610
   60MOL   C18033338   2.268   0.272   3.765  0.4841  0.1935 -0.3642
   60MOL   C18133339   2.295   0.403   3.717  0.5867  0.7466 -0.1893
   60MOL   C18233340   2.240   0.457   3.586  0.6087 -0.1722  0.4264
   60MOL   O18333341   2.188   0.388   3.495 -0.1113  0.2720 -0.2505
   60MOL   C18433342   2.379   0.485   3.799  0.5949  0.1705 -0.1176
   60MOL   C18533343   2.425   0.444   3.925  0.4831  0.5675 -0.1276
   60MOL   H18633344   2.238   0.206   4.537 -2.5984  1.5999 -0.6053
   60MOL   H18733345   2.300   0.372   4.511  1.5770  0.0647 -3.1246
   60MOL   H18833346   2.516   0.233   4.418  0.4470  0.0247  1.6763
   60MOL   H18933347   2.379   0.306   4.340  1.1757  0.1891  0.4283
   60MOL   H19033348   2.384   0.016   4.426 -0.9189 -0.4037  0.2823
   60MOL   H19133349   2.270   0.093   4.305 -0.6435 -1.2538  1.8737
   60MOL   H19233350   2.580   0.069   4.247 -0.3584  0.0599  3.5262
   60MOL   H19333351   2.463   8.044   4.209 -2.0844  0.5864  1.0623
   60MOL   H19433352   2.326   0.118   3.907 -1.3736 -0.1691  1.5588
   60MOL   H19533353   2.200   0.200   3.722 -1.0622  1.6239 -0.3409
   60MOL   H19633354   2.388   0.590   3.774 -1.4823 -0.2372 -2.7559
   60MOL   H19733355   2.487   0.510   3.984 -0.2214 -1.3991  2.9279
   60MOL   O19833356   2.233   0.591   3.583  0.0808 -0.6179  0.0870
   60MOL   C19933357   2.176   0.653   3.466 -0.2630 -0.1305 -0.5265
   60MOL   C20033358   2.024   0.668   3.474 -0.6639  0.2645 -0.0137
   60MOL   C20133359   1.958   0.756   3.364  0.4731  0.0964  0.3173
   60MOL   C20233360   2.016   0.888   3.352 -0.0084  0.4493 -0.5132
   60MOL   O20333361   1.923   0.965   3.275  0.0590 -0.1146  0.2705
   60MOL   C20433362   1.928   1.100   3.266  0.0235  0.3188 -0.3486
   60MOL   O20533363   2.022   1.163   3.313  0.5933 -0.6036 -0.2497
   60MOL   C20633364   1.805   1.152   3.210  1.1826  0.0916  0.0464
   60MOL   C20733365   1.770   1.289   3.214 -0.2602 -0.3770  0.4381
   60MOL   C20833366   1.663   1.345   3.134 -0.0191  0.5762 -0.3201
   60MOL   C20933367   1.573   1.258   3.078  0.6664  0.4490  0.2979
   60MOL   C21033368   1.476   1.318   2.982  0.5417  0.0183 -0.1471
   60MOL   O21133369   1.486   1.435   2.935 -0.0839 -0.7052 -0.1373
   60MOL   C21233370   1.588   1.119   3.104 -0.5598 -0.0407  0.5617
   60MOL   C21333371   1.706   1.063   3.160  0.6367  0.2265 -0.3064
   60MOL   H21433372   2.220   0.751   3.448  0.1311 -0.0965  0.5887
   60MOL   H21533373   2.201   0.598   3.375 -1.8758  0.0955 -1.1305
   60MOL   H21633374   1.993   0.718   3.566 -0.7699  1.9350 -0.9200
   60MOL   H21733375   1.983   0.568   3.472  1.8258 -0.7960 -0.2682
   60MOL   H21833376   1.973   0.711   3.266 -0.9906 -0.0117  0.1248
   60MOL   H21933377   1.850   0.760   3.377  0.3506  0.1547 -0.6770
   60MOL   H22033378   2.030   0.933   3.450  1.6495 -0.9093 -0.1142
   60MOL   H22133379   2.112   0.890   3.300 -0.1812 -1.3931 -0.9442
   60MOL   H22233380   1.846   1.358   3.248  0.2123 -0.7027  0.0592
   60MOL   H22333381   1.656   1.452   3.120 -0.3084  0.7752  1.2121
   60MOL   H22433382   1.515   1.055   3.057  0.5921  0.6627 -2.2857
   60MOL   H22533383   1.714   0.956   3.162  1.3201  0.2762 -0.3929
   60MOL   O22633384   1.378   1.236   2.944  0.1331  0.0805 -0.1642
   60MOL   C22733385   1.277   1.281   2.856  0.2802 -0.4041  0.1948
   60MOL   C22833386   1.175   1.162   2.835 -0.3683 -0.1714 -0.1341
   60MOL   C22933387   1.070   1.218   2.745 -0.4112 -0.5420  0.1208
   60MOL   C23033388   0.936   1.144   2.775  0.1434  0.3786 -0.8127
   60MOL   O23133389   0.824   1.208   2.730 -0.2613 -0.9727  0.2865
   60MOL   C23233390   0.782   1.203   2.601  0.0322  0.0755  0.0804
   60MOL   O23333391   0.844   1.157   2.506 -0.1424 -0.2040  0.5959
   60MOL   C23433392   0.646   1.278   2.586  0.6100  0.3824  0.4568
   60MOL   C23533393   0.583   1.335   2.696  0.1615  0.6230  0.1360
   60MOL   C23633394   0.470   1.411   2.684 -0.0723  0.2487 -0.0111
   60MOL   C23733395   0.423   1.443   2.559 -0.2254  0.3724 -0.5451
   60MOL   C23833396   0.295   1.516   2.540  0.6958  1.2672  0.8281
   60MOL   O23933397   0.219   1.493   2.443 -0.0067 -0.1976  0.2777
   60MOL   C24033398   0.488   1.394   2.445 -0.0860 -0.1570  0.2436
   60MOL   C24133399   0.599   1.310   2.457  0.6399 -0.3349 -0.0803
   60MOL   H24233400   1.233   1.369   2.903 -0.4626 -1.2006  1.0148
   60MOL   H24333401   1.325   1.307   2.761 -1.1150 -0.7846 -0.6202
   60MOL   H24433402   1.133   1.122   2.927  0.7719  1.3909  1.0920
   60MOL   H24533403   1.237   1.089   2.783 -0.2313  0.2263 -0.5312
   60MOL   H24633404   1.069   1.322   2.776  0.8677  0.0236 -1.6639
   60MOL   H24733405   1.105   1.220   2.642 -0.4589  0.7507  0.1230
   60MOL   H24833406   0.952   1.045   2.733 -0.8070 -0.0853 -0.0883
   60MOL   H24933407   0.919   1.130   2.881 -1.4910 -1.1138 -1.2460
   60MOL   H25033408   0.615   1.320   2.798  1.1003 -2.6958 -0.5792
   60MOL   H25133409   0.411   1.444   2.769 -2.9939  1.1510 -2.3064
   60MOL   H25233410   0.446   1.425   2.350  0.0907 -2.1528 -0.5104
   60MOL   H25333411   0.638   1.278   2.362 -0.4931  0.5460 -0.8505
   60MOL   O25433412   0.262   1.601   2.646 -0.2343  0.2523 -0.1998
   60MOL   C25533413   0.141   1.672   2.639  1.1614 -0.4753  0.0742
   60MOL   C25633414   0.028   1.578   2.677 -0.3515  0.3431 -0.0936
   60MOL   C25733415   0.043   1.529   2.825 -0.4967 -0.3412  0.4470
   60MOL   C25833416   8.025   1.442   2.877 -0.5161  0.2647 -0.1996
   60MOL   O25933417   8.047   1.415   3.012  0.4692  0.2655  0.1533
   60MOL   C26033418   7.959   1.458   3.110 -0.2778 -1.0402  0.1136
   60MOL   O26133419   7.858   1.517   3.086  0.1645 -0.5305  0.0958
   60MOL   C26233420   7.996   1.416   3.250 -0.3361 -0.3966  0.4599
   60MOL   C26333421   0.024   1.360   3.282 -0.7264 -0.3927  0.4110
   60MOL   C26433422   0.057   1.335   3.419 -0.4078 -0.1611  0.2669
   60MOL   C26533423   8.063   1.359   3.524  0.8929  0.2285 -0.7275
   60MOL   C26633424   8.088   1.318   3.664  0.7980  0.1727 -0.0228
   60MOL   O26733425   8.008   1.331   3.752 -0.2634 -0.1849  0.1033
   60MOL   C26833426   7.934   1.406   3.487 -0.8331 -0.3349  0.9399
   60MOL   C26933427   7.902   1.447   3.353 -0.2512  0.9563  0.2519
   60MOL   H27033428   0.129   1.756   2.708 -4.4587 -0.8917 -0.1004
   60MOL   H27133429   0.111   1.707   2.540 -1.0012 -1.2691  0.4072
   60MOL   H27233430   0.036   1.490   2.614  0.1003 -0.8753  1.6071
   60MOL   H27333431   8.030   1.625   2.660 -1.4413 -2.2174 -1.2877
   60MOL   H27433432   0.134   1.470   2.839 -2.1689 -3.3337 -0.7853
   60MOL   H27533433   0.065   1.617   2.886 -1.6226 -0.4022  0.9505
   60MOL   H27633434   7.931   1.487   2.846 -0.3481  1.1318  0.5507
   60MOL   H27733435   8.040   1.341   2.837 -0.4359  0.2801 -0.2090
   60MOL   H27833436   0.094   1.358   3.200  0.6838 -0.2759  1.5863
   60MOL   H27933437   0.153   1.289   3.438 -1.1415 -2.1826 -0.7945
   60MOL   H28033438   7.851   1.414   3.554  0.6758 -0.0487  2.8060
   60MOL   H28133439   7.806   1.492   3.329 -0.0643  0.3275 -1.7541
   60MOL   O28233440   0.119   1.283   3.680  0.1096  0.0516  0.1244
   60MOL   C28333441   0.161   1.236   3.809  0.2896 -0.7339 -0.1483
   60MOL   C28433442   0.312   1.214   3.822  0.0757 -0.4869 -0.3347
   60MOL   C28533443   0.361   1.180   3.962  0.6985  0.7305 -0.7296
   60MOL   C28633444   0.348   1.283   4.071 -0.2540 -0.0899  0.0784
   60MOL   O28733445   0.212   1.295   4.107 -0.1513 -0.2368 -0.2830
   60MOL   C28833446   0.181   1.401   4.177  1.0623  0.1742  0.0808
   60MOL   O28933447   0.265   1.493   4.205  0.1848  0.1010 -0.2959
   60MOL   C29033448   0.035   1.394   4.211 -0.2791 -0.0390  0.1112
   60MOL   C29133449   8.060   1.276   4.189 -0.0485 -0.0232  0.4134
   60MOL   C29233450   7.925   1.268   4.218  0.7901  0.3919 -0.3548
   60MOL   C29333451   7.868   1.378   4.284 -0.5694 -0.3777  0.5847
   60MOL   C29433452   7.728   1.368   4.336  0.3165 -0.4613  0.5427
   60MOL   O29533453   7.658   1.267   4.320 -0.4313  0.6613  0.3201
   60MOL   C29633454   7.935   1.499   4.304  0.4893 -0.3339  0.6861
   60MOL   C29733455   8.072   1.511   4.266  0.0571 -0.3607  0.1855
   60MOL   H29833456   0.118   1.295   3.889 -2.3504 -3.0239  0.1830
   60MOL   H29933457   0.112   1.143   3.836  0.0358 -0.5036  0.1797
   60MOL   H30033458   0.351   1.311   3.789  1.8373 -1.1239 -0.1998
   60MOL   H30133459   0.343   1.134   3.756 -0.9912 -0.6235 -0.6739
   60MOL   H30233460   0.302   1.091   3.985 -0.2771  1.5362 -0.0967
   60MOL   H30333461   0.463   1.142   3.961 -0.3136 -2.1536  0.4875
   60MOL   H30433462   0.395   1.240   4.159  0.3372  1.8366  0.7319
   60MOL   H30533463   0.396   1.375   4.037  1.5813 -0.7106  0.9275
   60MOL   H30633464   0.007   1.192   4.139  2.2005  2.0105 -1.0366
   60MOL   H30733465   7.868   1.178   4.202 -2.5501  2.0349  1.9548
   60MOL   H30833466   7.886   1.588   4.341 -0.1815 -0.7870  0.8880
   60MOL   H30933467   0.029   1.597   4.302  0.3343 -1.2673  1.9913
   60MOL   O31033468   7.678   1.478   4.388  0.5111  0.0385 -0.1264
   60MOL   C31133469   7.542   1.482   4.439 -0.6127  0.4936 -0.0900
   60MOL   C31233470   7.512   1.634   4.473 -0.6108  0.3989  0.1811
   60MOL   C31333471   7.528   1.733   4.357  0.7367 -0.8611  0.4280
   60MOL   C31433472   7.520   1.882   4.397  0.7454  0.2147 -0.1998
   60MOL   O31533473   7.400   1.944   4.369  0.3345 -0.1886 -0.2457
   60MOL   C31633474   7.334   2.011   4.468  0.6746 -0.5180 -0.1818
   60MOL   O31733475   7.349   1.992   4.592  0.5273 -0.0212  0.0162
   60MOL   C31833476   7.232   2.096   4.412  0.3372  0.0500  0.1793
   60MOL   C31933477   7.186   2.208   4.485 -0.1116 -0.6880  0.7557
   60MOL   C32033478   7.094   2.297   4.434  0.1144  0.4356  0.1420
   60MOL   C32133479   7.036   2.279   4.306 -1.0316  0.9180  0.3820
   60MOL   C32233480   6.942   2.373   4.251 -0.1170 -0.0141 -0.7346
   60MOL   O32333481   6.889   2.468   4.312  0.5941  0.0292  0.4432
   60MOL   C32433482   7.087   2.170   4.228 -0.3373  0.5331  0.1170
   60MOL   C32533483   7.187   2.081   4.281  1.0874 -0.0076 -0.2167
   60MOL   H32633484   7.477   1.451   4.357  2.4905  0.9681 -2.8218
   60MOL   H32733485   7.520   1.410   4.518 -0.9933  0.7963  0.0856
   60MOL   H32833486   7.560   1.663   4.566  0.0394 -0.6698  0.1817
   60MOL   H32933487   7.406   1.633   4.499 -0.9287 -2.7865 -0.9607
   60MOL   H33033488   7.633   1.722   4.332 -0.0973 -4.1281 -1.9056
   60MOL   H33133489   7.469   1.719   4.266  0.5697  1.4303  0.1400
   60MOL   H33233490   7.551   1.897   4.500  2.4420  1.7868 -0.9134
   60MOL   H33333491   7.602   1.937   4.352  0.8521  0.7719  0.6691
   60MOL   H33433492   7.216   2.226   4.587  0.8046 -1.1065  0.5646
   60MOL   H33533493   7.073   2.378   4.502  3.1968  1.9996 -0.7051
   60MOL   H33633494   7.056   2.153   4.126 -0.0807 -0.3613  0.1839
   60MOL   H33733495   7.235   2.003   4.223  0.5600 -0.1564 -0.4588
   60MOL   O33833496   6.926   2.346   4.120 -0.2119 -0.1276  0.0778
   60MOL   C33933497   6.844   2.426   4.036 -0.0697 -0.3693 -0.0291
   60MOL   C34033498   6.861   2.385   3.889 -0.0236 -0.7748  0.1504
   60MOL   C34133499   6.845   2.500   3.789 -0.0673 -0.0187 -0.3629
   60MOL   C34233500   6.840   2.454   3.644  0.0449  0.3932  0.1565
   60MOL   O34333501   6.722   2.381   3.618 -0.2262  0.5523 -0.0477
   60MOL   C34433502   6.704   2.326   3.501  0.1094  0.3417  0.7250
   60MOL   O34533503   6.789   2.334   3.408  0.6176  0.4004 -0.5166
   60MOL   C34633504   6.567   2.258   3.477  0.4230  0.2795  0.2052
   60MOL   C34733505   6.522   2.242   3.339  0.0812 -0.1488 -0.5039
   60MOL   C34833506   6.397   2.182   3.326 -0.5247  0.8179  0.5850
   60MOL   C34933507   6.317   2.133   3.436  0.4236  0.4200 -0.1887
   60MOL   C35033508   6.187   2.070   3.416 -0.1464 -0.5228 -0.9752
   60MOL   O35133509   6.156   1.978   3.487 -0.3181  0.4119  0.2833
   60MOL   C35233510   6.360   2.154   3.570  0.6404  0.5203  0.1533
   60MOL   C35333511   6.485   2.219   3.591 -0.2855  0.1476  0.4702
   60MOL   H35433512   6.738   2.420   4.059 -0.3907 -1.1826 -1.6636
   60MOL   H35533513   6.879   2.529   4.051  1.9336 -0.7865 -1.5534
   60MOL   H35633514   6.785   2.309   3.874 -0.1414 -0.5041 -0.6537
   60MOL   H35733515   6.961   2.342   3.879 -0.5400 -2.1223  0.7857
   60MOL   H35833516   6.754   2.556   3.812  1.0531  1.9912 -0.6813
   60MOL   H35933517   6.929   2.568   3.800  0.5499 -0.7814 -0.3419
   60MOL   H36033518   6.848   2.536   3.573 -0.6926 -0.3977 -0.8517
   60MOL   H36133519   6.930   2.394   3.628  0.0185  0.4107 -0.0594
   60MOL   H36233520   6.578   2.271   3.251  0.6283  1.4406  0.3461
   60MOL   H36333521   6.335   2.168   3.239 -0.5689  0.4162  0.6823
   60MOL   H36433522   6.308   2.114   3.656  0.8219 -0.1364 -0.0418
   60MOL   H36533523   6.530   2.217   3.689  1.6425  1.0391 -0.3727
   60MOL   O36633524   6.114   2.130   3.331 -0.0245  0.0240 -0.3814
   60MOL   C36733525   5.974   2.106   3.315 -0.8063 -0.5902 -0.0485
   60MOL   C36833526   5.960   1.992   3.216  0.0582  0.5688  0.1904
   60MOL   C36933527   5.816   1.984   3.161  0.3917 -0.0834 -0.2754
   60MOL   C37033528   5.791   1.875   3.057  0.0072 -0.2968 -0.4841
   60MOL   O37133529   5.794   1.742   3.121 -0.3698 -0.2914 -0.4137
   60MOL   C37233530   5.682   1.700   3.189  0.4737  0.0288  0.1581
   60MOL   O37333531   5.571   1.753   3.183  0.3422 -0.9469 -0.4389
   60MOL   C37433532   5.714   1.595   3.292  0.0726  0.4703  0.2491
   60MOL   C37533533   5.831   1.521   3.297  0.6845  0.0090 -0.1159
   60MOL   C37633534   5.852   1.424   3.397  0.6190 -0.1607 -0.7687
   60MOL   C37733535   5.754   1.399   3.498 -0.4712  0.0634  0.1860
   60MOL   C37833536   5.768   1.311   3.615 -0.8959  0.1556  0.0935
   60MOL   O37933537   5.693   1.308   3.710 -0.5452 -0.0174 -0.3377
   60MOL   C38033538   5.633   1.469   3.488  0.0276  0.0972 -0.0085
   60MOL   C38133539   5.623   1.574   3.397 -0.2206  0.1345  0.0512
   60MOL   H38233540   5.935   2.091   3.416  1.5816 -0.2087  0.9630
   60MOL   H38333541   5.933   2.199   3.274  1.9894 -0.3058 -2.3460
   60MOL   H38433542   6.003   1.903   3.262  1.8571  1.2208 -0.2144
   60MOL   H38533543   6.030   2.020   3.138  1.6254  0.6068  1.5773
   60MOL   H38633544   5.742   1.970   3.240 -1.8974 -1.0069 -2.5212
   60MOL   H38733545   5.794   2.079   3.112  1.1076 -0.3119 -1.0621
   60MOL   H38833546   5.690   1.879   3.016 -0.5314 -0.4999  0.7827
   60MOL   H38933547   5.863   1.887   2.977 -0.6059  1.8687 -0.7433
   60MOL   H39033548   5.899   1.535   3.214  0.7550 -2.5024 -0.5065
   60MOL   H39133549   5.944   1.369   3.399  1.8249  1.6687 -3.0790
   60MOL   H39233550   5.558   1.439   3.559 -0.2767 -0.0325 -0.3857
   60MOL   H39333551   5.528   1.626   3.388 -0.2613  0.0744  0.1320
   60MOL   O39433552   5.876   1.230   3.598 -0.0731 -0.0819 -0.3772
   60MOL   C39533553   5.939   1.188   3.715  0.0559  0.6447  0.7681
   60MOL   C39633554   6.037   1.085   3.685  0.4099 -0.4905  0.3034
   60MOL   C39733555   6.179   1.151   3.671 -0.8149  0.2611 -0.0173
   60MOL   C39833556   6.269   1.037   3.644 -0.0191 -0.8767 -0.0573
   60MOL   O39933557   6.401   1.086   3.650  0.3786 -0.3224 -0.2426
   60MOL   C40033558   6.492   0.996   3.650 -0.3324  0.1822 -0.1797
   60MOL   O40133559   6.475   0.886   3.615  0.2412  0.0205 -0.6214
   60MOL   C40233560   6.628   1.042   3.690  0.4184 -0.2643  0.2131
   60MOL   C40333561   6.653   1.177   3.716  0.3646 -0.5775  0.2620
   60MOL   C40433562   6.785   1.216   3.747 -0.5331  0.6107 -0.3082
   60MOL   C40533563   6.887   1.116   3.752  0.1648  0.2281  0.7062
   60MOL   C40633564   7.025   1.155   3.785  0.2309  0.0101  0.6335
   60MOL   O40733565   7.121   1.075   3.787 -0.1853 -0.3804 -0.3177
   60MOL   C40833566   6.862   0.983   3.717 -0.5581 -0.2820  0.5180
   60MOL   C40933567   6.732   0.953   3.679 -0.0899 -0.2331  0.2415
   60MOL   H41033568   5.975   1.270   3.776 -0.7613  1.6477 -0.0677
   60MOL   H41133569   5.867   1.129   3.772  0.3712  0.2748  0.7875
   60MOL   H41233570   6.018   1.023   3.597 -1.2675 -1.3526  1.2436
   60MOL   H41333571   6.036   1.012   3.766  4.1068 -1.5583 -0.5030
   60MOL   H41433572   6.188   1.225   3.592  1.4623 -0.7826 -0.7528
   60MOL   H41533573   6.198   1.209   3.761 -3.1928  1.4636 -0.2331
   60MOL   H41633574   6.258   0.960   3.720 -0.1564 -0.9624 -0.1645
   60MOL   H41733575   6.245   0.991   3.548  1.0442 -0.7855 -0.3796
   60MOL   H41833576   6.576   1.254   3.712  0.4285 -0.3712  2.1625
   60MOL   H41933577   6.800   1.313   3.792  0.4798 -0.8081  2.5709
   60MOL   H42033578   6.941   0.910   3.709 -0.3161  0.0557 -0.1791
   60MOL   H42133579   6.708   0.849   3.665 -0.3431  0.1218 -2.0988
   60MOL   O42233580   7.048   1.290   3.803  0.6260 -0.2906  0.3770
   60MOL   C42333581   7.180   1.322   3.845 -0.5140 -0.4610 -0.3700
   60MOL   C42433582   7.159   1.472   3.879 -0.5432  0.4891  0.1417
   60MOL   C42533583   7.176   1.583   3.763  0.9681  0.5376 -0.1046
   60MOL   C42633584   7.221   1.717   3.814 -0.3344  0.1932 -0.5580
   60MOL   O42733585   7.241   1.810   3.706 -0.4113 -0.1701  0.3726
   60MOL   C42833586   7.311   1.920   3.734  0.3665 -0.3677  0.1939
   60MOL   O42933587   7.325   1.959   3.850  0.5471 -0.7263  0.5100
   60MOL   C43033588   7.360   2.002   3.615  0.0192  0.2217 -0.1403
   60MOL   C43133589   7.421   2.120   3.639  0.2472 -0.2601  0.2393
   60MOL   C43233590   7.469   2.206   3.541  0.3904  0.1291 -0.0213
   60MOL   C43333591   7.455   2.175   3.407  0.2706  0.4901  0.0737
   60MOL   C43433592   7.489   2.276   3.298  0.3313 -0.2066 -0.0616
   60MOL   O43533593   7.527   2.385   3.322 -0.1393 -0.4800 -0.5023
   60MOL   C43633594   7.409   2.048   3.379  0.6984  0.0742 -0.2565
   60MOL   C43733595   7.356   1.965   3.482  0.7738 -0.3243  0.2437
   60MOL   H43833596   7.197   1.262   3.935  0.8255 -2.7355 -2.1108
   60MOL   H43933597   7.253   1.296   3.769 -1.5485  0.4800 -1.7053
   60MOL   H44033598   7.236   1.492   3.954 -0.8159 -3.2832  1.5520
   60MOL   H44133599   7.062   1.487   3.926 -1.0195 -0.2691 -0.5751
   60MOL   H44233600   7.227   1.542   3.676  2.7042  1.3793  0.4858
   60MOL   H44333601   7.074   1.595   3.728  0.9752  2.7203  0.4981
   60MOL   H44433602   7.147   1.762   3.880 -0.9316 -1.6888  0.0769
   60MOL   H44533603   7.312   1.719   3.875  1.2478 -0.8601 -2.8120
   60MOL   H44633604   7.412   2.162   3.738 -2.3080 -0.1061 -0.0311
   60MOL   H44733605   7.503   2.303   3.571  1.9625 -0.7545  1.1470
   60MOL   H44833606   7.403   2.026   3.273  2.3327 -0.3077 -0.2834
   60MOL   H44933607   7.315   1.869   3.455  0.0561 -0.6859  2.5360
   60MOL   O45033608   7.479   2.222   3.179  0.0472  0.1855  0.8754
   60MOL   C45133609   7.494   2.312   3.065 -0.1916 -0.6149  0.1971
   60MOL   C45233610   7.487   2.238   2.928  0.2128  0.4900 -0.0639
   60MOL   C45333611   7.352   2.176   2.921  0.1039  0.7079 -0.6555
   60MOL   C45433612   7.310   2.132   2.776  0.0123 -0.2181  0.1941
   60MOL   O45533613   7.427   2.066   2.728 -0.1019  0.2430 -0.0163
   60MOL   C45633614   7.444   2.048   2.595  0.2079  0.5094  0.3768
   60MOL   O45733615   7.357   2.056   2.514 -0.5410 -0.1121  0.0030
   60MOL   C45833616   7.578   2.001   2.560 -0.1359 -0.3784  0.4391
   60MOL   C45933617   7.694   2.072   2.604 -0.6198  1.1279 -0.0268
   60MOL   C46033618   7.828   2.031   2.576 -0.4425  0.1846 -0.0407
   60MOL   C46133619   7.847   1.910   2.493  0.5894 -0.1872 -0.1987
   60MOL   C46233620   7.976   1.878   2.444  0.0868 -0.0028 -0.4378
   60MOL   O46333621   8.076   1.932   2.494 -0.3575 -0.3833  0.2860
   60MOL   C46433622   7.733   1.843   2.447 -0.0365  0.2024  0.5607
   60MOL   C46533623   7.601   1.888   2.485  0.6013  0.7232  0.1859
   60MOL   H46633624   7.425   2.396   3.076  0.1352 -0.2027 -0.8401
   60MOL   H46733625   7.590   2.361   3.073 -1.1734  1.5281 -0.7380
   60MOL   H46833626   7.567   2.164   2.928 -1.0132 -0.8752  0.8298
   60MOL   H46933627   7.504   2.308   2.846  3.8958 -1.5607 -1.1771
   60MOL   H47033628   7.357   2.081   2.975  0.0367  0.5790 -0.8723
   60MOL   H47133629   7.282   2.250   2.961 -0.8765 -2.0348  3.0455
   60MOL   H47233630   7.213   2.083   2.783 -0.3745  0.5059  0.0176
   60MOL   H47333631   7.313   2.214   2.704  1.4140 -0.9075 -0.5504
   60MOL   H47433632   7.682   2.163   2.660 -2.2934 -0.8571  2.9450
   60MOL   H47533633   7.919   2.076   2.611  1.3067 -3.2110 -0.0267
   60MOL   H47633634   7.746   1.762   2.376 -0.4660 -2.4504  3.3884
   60MOL   H47733635   7.517   1.842   2.436 -0.7784  1.4024  1.8238
   60MOL   O47833636   7.973   1.787   2.349 -0.8169  0.2587 -0.5596
   60MOL   C47933637   8.091   1.736   2.290 -0.0854 -0.2191 -0.1639
   60MOL   C48033638   8.093   1.770   2.137  0.4462 -0.9037 -0.2043
   60MOL   C48133639   0.121   1.734   2.053  0.4725  0.1974 -0.1676
   60MOL   C48233640   0.100   1.773   1.905 -0.0327 -0.0020 -0.5337
   60MOL   O48333641   0.183   1.707   1.819 -0.5005  0.2035 -0.3758
   60MOL   C48433642   0.158   1.580   1.778  0.1257  0.2092 -0.0187
   60MOL   O48533643   0.091   1.503   1.851 -0.4106 -0.1026  0.4178
   60MOL   C48633644   0.202   1.547   1.638  0.4808 -0.6287 -0.8449
   60MOL   C48733645   0.272   1.649   1.560 -0.2598  0.0291 -0.5122
   60MOL   C48833646   0.312   1.626   1.430 -0.6052 -0.2344  0.6655
   60MOL   C48933647   0.291   1.498   1.374 -0.1184 -0.1389  0.0076
   60MOL   C49033648   0.335   1.463   1.242 -0.5314  0.3350 -0.1084
   60MOL   O49133649   0.330   1.350   1.194 -0.3102  0.5123  0.7058
   60MOL   C49233650   0.227   1.397   1.452  0.2518  0.0889  0.3947
   60MOL   C49333651   0.181   1.421   1.578 -0.4359  0.0355 -0.8013
   60MOL   H49433652   0.081   1.775   2.340  0.7950  0.8845 -2.5071
   60MOL   H49533653   8.090   1.628   2.307  0.1015 -0.6983 -2.9742
   60MOL   H49633654   8.084   1.879   2.129  1.3158 -0.7267  1.0634
   60MOL   H49733655   7.998   1.741   2.092 -0.3551  1.3220 -0.0391
   60MOL   H49833656   0.208   1.790   2.089 -1.4595  1.6270  2.4274
   60MOL   H49933657   0.132   1.625   2.057 -1.8110 -0.0288  0.5875
   60MOL   H50033658   8.095   1.758   1.872  0.0219  2.9500 -2.2029
   60MOL   H50133659   0.107   1.881   1.899 -1.4437  0.2857  2.3068
   60MOL   H50233660   0.287   1.748   1.602 -1.0842 -0.5115  1.1232
   60MOL   H50333661   0.350   1.713   1.379 -1.5441  0.0877  0.5110
   60MOL   H50433662   0.211   1.300   1.408 -0.7452  0.4919 -0.1421
   60MOL   H50533663   0.134   1.340   1.632  1.4129  0.0790  0.9395
   60MOL   O50633664   0.366   1.577   1.172 -0.3205 -0.4318  0.2992
   60MOL   C50733665   0.407   1.557   1.038 -0.1205  0.3685 -0.0293
   60MOL   C50833666   0.389   1.681   0.954  0.4549  0.0846 -0.1623
   60MOL   C50933667   0.410   1.653   0.806 -0.1646 -0.2271  0.6158
   60MOL   C51033668   0.435   1.770   0.712 -0.4314 -0.1760 -0.0274
   60MOL   O51133669   0.572   1.819   0.714 -0.1605  0.3284 -0.1455
   60MOL   C51233670   0.613   1.917   0.796  1.1301  0.5726 -0.5850
   60MOL   O51333671   0.534   1.975   0.870  0.0934 -0.0284  0.0907
   60MOL   C51433672   0.752   1.961   0.775  0.3842  0.7363 -0.2828
   60MOL   C51533673   0.804   2.075   0.840 -0.8678 -0.1268  0.3475
   60MOL   C51633674   0.945   2.103   0.845  0.0097 -0.5150 -0.1894
   60MOL   C51733675   1.027   2.016   0.768  0.1800  0.5380  0.4332
   60MOL   C51833676   1.172   2.039   0.771 -0.2815  0.3854  0.4841
   60MOL   O51933677   1.221   2.114   0.852  0.0872 -0.1479  0.6395
   60MOL   C52033678   0.971   1.912   0.694  0.1821  0.7549 -0.5235
   60MOL   C52133679   0.840   1.885   0.694  0.2187 -0.9800 -0.4731
   60MOL   H52233680   0.499   1.502   1.054 -0.1044 -0.3567 -2.4497
   60MOL   H52333681   0.333   1.498   0.985  1.5234  0.7173 -2.7759
   60MOL   H52433682   0.441   1.767   0.997 -0.9741  1.2311 -0.7102
   60MOL   H52533683   0.284   1.707   0.964  0.2764 -0.2671 -1.0284
   60MOL   H52633684   0.486   1.578   0.783  0.1843  0.0907  0.7217
   60MOL   H52733685   0.327   1.592   0.772  0.1362  1.0763 -2.6156
   60MOL   H52833686   0.410   1.743   0.610  0.4737  0.2297 -0.3651
   60MOL   H52933687   0.359   1.842   0.740 -0.9600  0.4981 -3.0457
   60MOL   H53033688   0.742   2.133   0.907 -1.9200 -0.0388 -0.6891
   60MOL   H53133689   0.984   2.194   0.886  1.0913 -0.7421 -0.7056
   60MOL   H53233690   1.038   1.858   0.629  0.4950  0.7116 -0.1685
   60MOL   H53333691   0.796   1.806   0.635 -3.2923 -0.2589  1.0599
   60MOL   O53433692   1.241   1.965   0.678 -0.2112 -0.3827 -0.1410
   60MOL   C53533693   1.378   1.989   0.665  0.4842  0.3348  0.0679
   60MOL   C53633694   1.434   1.900   0.553  0.0387 -0.3043 -1.0629
   60MOL   C53733695   1.590   1.922   0.544  0.1895  0.2190  0.4533
   60MOL   C53833696   1.639   1.858   0.415  0.0204  0.3775 -0.0450
   60MOL   O53933697   1.653   1.724   0.435  0.3018 -0.6625  0.2568
   60MOL   C54033698   1.597   1.631   0.364 -0.6292 -0.4291 -0.6068
   60MOL   O54133699   1.552   1.640   0.247 -0.6144 -0.2463 -0.0378
   60MOL   C54233700   1.610   1.497   0.433 -0.1259  0.2983  0.0425
   60MOL   C54333701   1.675   1.480   0.561  0.1908 -0.1621  0.3389
   60MOL   C54433702   1.674   1.354   0.625 -0.1699 -0.2005 -0.2420
   60MOL   C54533703   1.622   1.245   0.559  0.1664 -0.6747  0.4958
   60MOL   C54633704   1.618   1.116   0.636  0.3806 -0.0964  0.2047
   60MOL   O54733705   1.537   1.025   0.615 -0.2602 -0.9149 -0.2611
   60MOL   C54833706   1.567   1.257   0.427 -0.1944  0.4679 -0.0220
   60MOL   C54933707   1.559   1.381   0.367  0.2682  0.8667  0.4720
   60MOL   H55033708   1.395   2.092   0.633 -1.0358  0.6205  0.1440
   60MOL   H55133709   1.434   1.978   0.758  1.8756 -0.2378 -0.8181
   60MOL   H55233710   1.388   1.926   0.458 -1.1521 -1.5280 -0.8356
   60MOL   H55333711   1.414   1.797   0.586  0.3605 -0.0879 -0.1723
   60MOL   H55433712   1.599   2.031   0.547  1.9854  0.0402  2.6298
   60MOL   H55533713   1.642   1.894   0.635  1.1560  0.4237 -0.0363
   60MOL   H55633714   1.576   1.882   0.329 -1.1975 -3.6325 -0.3887
   60MOL   H55733715   1.739   1.890   0.387  1.1048 -1.8143  1.1908
   60MOL   H55833716   1.718   1.563   0.616 -0.6063  0.5139 -0.0506
   60MOL   H55933717   1.723   1.343   0.721  0.2480  1.3089 -0.2705
   60MOL   H56033718   1.529   1.171   0.375  0.9599  0.4163 -0.8116
   60MOL   H56133719   1.501   1.392   0.277 -0.8884  2.1164  1.3312
   60MOL   H56233720   1.689   1.115   0.718  0.6809 -0.4055 -0.0592
   61MOL     O133721   6.707   0.755   6.727  0.1460 -0.6946 -0.4979
   61MOL     C233722   6.726   0.624   6.679  0.3712 -0.0818  0.3436
   61MOL     C333723   6.698   0.518   6.782 -0.0238 -0.3697  0.2417
   61MOL     C433724   6.764   0.389   6.751  0.1767 -1.1318 -0.1746
   61MOL     C533725   6.698   0.269   6.831 -0.0989  0.2945 -0.0527
   61MOL     O633726   6.797   0.172   6.850  0.3581 -0.2287 -0.7352
   61MOL     C733727   6.795   0.092   6.956  0.1128  0.2590  0.9082
   61MOL     O833728   6.704   0.093   7.040 -0.2635 -0.0010  0.3040
   61MOL     C933729   6.915   0.009   6.972 -0.5252  0.3231  0.3026
   61MOL    C1033730   6.923   8.007   7.072 -0.0808  0.3325 -0.2166
   61MOL    C1133731   7.039   7.929   7.089 -0.5281  0.2021 -0.5451
   61MOL    C1233732   7.153   7.954   7.006  0.1273 -0.1078 -0.0611
   61MOL    C1333733   7.272   7.875   7.016 -0.2357  0.3290  0.6405
   61MOL    O1433734   7.377   7.886   6.957 -0.2430  0.2411 -0.3638
   61MOL    C1533735   7.150   8.062   6.911  0.1828  0.4526  0.1572
   61MOL    C1633736   7.029   0.039   6.891 -0.2616  0.9237 -0.0536
   61MOL    H1733737   6.677   0.620   6.581  2.0308 -1.5110 -0.4579
   61MOL    H1833738   6.832   0.617   6.657  0.7024  0.1993  1.8336
   61MOL    H1933739   6.591   0.508   6.803  0.0551 -2.1320 -0.1137
   61MOL    H2033740   6.740   0.562   6.873  1.6515 -0.0560 -0.6617
   61MOL    H2133741   6.751   0.369   6.644  0.1784 -0.9339 -0.2117
   61MOL    H2233742   6.872   0.395   6.767  0.5596 -1.6472 -2.3935
   61MOL    H2333743   6.666   0.297   6.931 -0.2123  0.7903 -0.2248
   61MOL    H2433744   6.623   0.216   6.773 -0.2661  0.5628 -0.0825
   61MOL    H2533745   6.840   7.990   7.139  1.2074  1.6220  1.7440
   61MOL    H2633746   7.054   7.862   7.172 -0.8440  1.8590  0.8866
   61MOL    H2733747   7.236   8.078   6.848 -0.1257  1.8673  0.0708
   61MOL    H2833748   7.017   0.120   6.822  0.5226  0.8542 -0.2686
   61MOL    H2933749   6.622   0.786   6.702 -0.7679 -1.1852  1.8361
   61MOL    O3033750   7.258   7.790   7.115  0.3286 -0.0356 -0.5404
   61MOL    C3133751   7.364   7.695   7.140 -0.6956  0.1137  0.6508
   61MOL    C3233752   7.309   7.563   7.189  1.0068 -0.1333  0.0983
   61MOL    C3333753   7.214   7.492   7.087  0.2964 -0.6760 -0.0584
   61MOL    C3433754   7.145   7.373   7.145 -0.2235  0.8359 -0.7070
   61MOL    O3533755   7.238   7.283   7.212 -0.2125  0.4888 -0.0766
   61MOL    C3633756   7.280   7.175   7.145 -0.0861 -0.1874 -0.3191
   61MOL    O3733757   7.253   7.158   7.031 -0.0964  0.0914  0.3693
   61MOL    C3833758   7.352   7.075   7.228  0.1856 -1.0338  0.4145
   61MOL    C3933759   7.349   6.945   7.187  0.0596  0.4614  0.7809
   61MOL    C4033760   7.402   6.846   7.278 -0.3916  0.3476  0.4243
   61MOL    C4133761   7.453   6.876   7.401  0.1947  0.2788  0.6479
   61MOL    C4233762   7.493   6.763   7.486  0.1951 -1.4621  0.2708
   61MOL    O4333763   7.454   6.649   7.469  0.0542 -0.2403 -0.3157
   61MOL    C4433764   7.475   7.014   7.435 -0.0840  0.6183  0.1652
   61MOL    C4533765   7.424   7.112   7.347  0.1427 -0.2570 -0.5551
   61MOL    H4633766   7.430   7.687   7.054 -0.3196  0.2433  0.9262
   61MOL    H4733767   7.439   7.719   7.215  0.3329  0.6939 -0.5363
   61MOL    H4833768   7.243   7.584   7.274  0.5347 -0.5444 -0.1609
   61MOL    H4933769   7.391   7.502   7.227  0.8375 -0.4680 -0.0728
   61MOL    H5033770   7.135   7.562   7.060  0.3530 -1.1983 -1.6782
   61MOL    H5133771   7.260   7.458   6.994  1.9842  1.2391  0.0545
   61MOL    H5233772   7.070   7.404   7.219  2.8700  3.0871  1.6188
   61MOL    H5333773   7.081   7.341   7.063 -1.7025 -0.2866  0.8494
   61MOL    H5433774   7.304   6.905   7.097 -0.6095  0.2151  1.2110
   61MOL    H5533775   7.398   6.743   7.244  0.4529  1.2548 -2.5224
   61MOL    H5633776   7.514   7.031   7.534  0.1862  1.2099 -0.0441
   61MOL    H5733777   7.445   7.215   7.370  1.9030 -0.6027 -0.5477
   61MOL    O5833778   7.599   6.797   7.575 -0.2528  0.0132 -0.1872
   61MOL    C5933779   7.666   6.695   7.649  0.4330 -0.0148 -0.0524
   61MOL    C6033780   7.697   6.736   7.797  0.7318  0.1107 -0.6027
   61MOL    C6133781   7.800   6.845   7.810 -0.0633  0.3459  0.7077
   61MOL    C6233782   7.768   6.957   7.903 -0.0793  0.0040 -0.0187
   61MOL    O6333783   7.745   6.915   8.035  0.5776 -0.4885 -0.3305
   61MOL    C6433784   7.843   6.888   0.019 -0.8520 -0.0373 -0.2291
   61MOL    O6533785   7.962   6.910   8.097 -0.4815 -0.8019 -0.4617
   61MOL    C6633786   7.810   6.803   0.138 -0.2469 -0.7399 -0.2820
   61MOL    C6733787   7.904   6.725   0.201 -0.3765 -0.2595 -0.1287
   61MOL    C6833788   7.873   6.666   0.319  0.5764  0.0398  0.2275
   61MOL    C6933789   7.740   6.665   0.373  0.3906  0.3191  1.1484
   61MOL    C7033790   7.723   6.590   0.500  0.4711 -0.3873 -0.2086
   61MOL    O7133791   7.817   6.552   0.575 -0.3417 -0.1912 -0.3584
   61MOL    C7233792   7.639   6.738   0.300  0.2637 -0.6146 -0.9193
   61MOL    C7333793   7.678   6.808   0.185 -0.1345  0.0668 -0.6247
   61MOL    H7433794   7.595   6.612   7.655 -0.1899  0.4735 -0.5828
   61MOL    H7533795   7.751   6.644   7.602 -0.3472 -0.2671 -1.2232
   61MOL    H7633796   7.716   6.647   7.857 -0.6535 -1.0643 -1.8664
   61MOL    H7733797   7.606   6.780   7.838  1.0233  0.6890 -0.5841
   61MOL    H7833798   7.894   6.800   7.843 -0.9718 -2.0741  0.0926
   61MOL    H7933799   7.819   6.892   7.714 -0.0878  1.0460  1.0472
   61MOL    H8033800   7.844   7.035   7.894 -0.1956  0.1223  0.0297
   61MOL    H8133801   7.676   7.008   7.875 -0.6429 -2.0477 -2.0403
   61MOL    H8233802   8.009   6.725   0.176 -0.6481  0.0644 -1.3045
   61MOL    H8333803   7.953   6.616   0.372  0.1356  0.5053  1.3456
   61MOL    H8433804   7.536   6.724   0.330  0.3033 -0.1109 -0.5329
   61MOL    H8533805   7.619   6.885   0.138 -0.9929 -0.2197 -0.0290
   61MOL    O8633806   7.597   6.561   0.523  0.6694  0.0179  0.0623
   61MOL    C8733807   7.563   6.504   0.648 -0.5288 -0.5547  0.1024
   61MOL    C8833808   7.417   6.463   0.645 -0.8005  0.0315  0.5201
   61MOL    C8933809   7.360   6.403   0.776 -0.1312  0.2123  0.4046
   61MOL    C9033810   7.220   6.339   0.769 -0.3897 -0.5920 -0.0561
   61MOL    O9133811   7.126   6.446   0.756 -0.4247  0.1507  0.3040
   61MOL    C9233812   7.053   6.469   0.649  0.3653 -0.3432  0.2052
   61MOL    O9333813   7.065   6.416   0.541 -0.4337 -0.3455 -0.2343
   61MOL    C9433814   6.938   6.560   0.675 -0.5707  0.3487 -0.7740
   61MOL    C9533815   6.841   6.569   0.577  0.2365  0.2412 -0.0995
   61MOL    C9633816   6.732   6.657   0.598  0.1711  0.2747  0.2467
   61MOL    C9733817   6.714   6.733   0.716  0.3133  0.5303 -0.7287
   61MOL    C9833818   6.592   6.811   0.742  0.1792 -0.1447  0.0083
   61MOL    O9933819   6.502   6.838   0.656  0.4703 -0.0606  0.0560
   61MOL   C10033820   6.812   6.720   0.820  0.2917  0.0613 -0.2714
   61MOL   C10133821   6.928   6.638   0.796 -0.1092  0.7788  0.3969
   61MOL   H10233822   7.629   6.420   0.668 -0.3887 -0.4759 -0.0230
   61MOL   H10333823   7.581   6.589   0.714  0.8710 -1.2518  0.6365
   61MOL   H10433824   7.418   6.385   0.569  0.4987  0.8629 -0.3360
   61MOL   H10533825   7.349   6.543   0.613 -0.4858 -0.7225 -2.1753
   61MOL   H10633826   7.427   6.323   0.809 -0.8011 -0.4421  0.1847
   61MOL   H10733827   7.350   6.469   0.862 -2.1042 -2.3513  2.2206
   61MOL   H10833828   7.209   6.264   0.690 -0.9539 -1.1592  0.5557
   61MOL   H10933829   7.206   6.270   0.852  0.8904 -1.8001 -0.8023
   61MOL   H11033830   6.856   6.520   0.482 -1.6744  1.2116 -0.9373
   61MOL   H11133831   6.660   6.666   0.518  0.9643  0.2552 -0.4835
   61MOL   H11233832   6.810   6.772   0.914 -3.3768  0.2560 -0.3887
   61MOL   H11333833   7.000   6.631   0.876 -0.2937 -0.4413  0.4541
   61MOL   O11433834   6.585   6.864   0.866 -0.0492  0.5913  0.1071
   61MOL   C11533835   6.459   6.905   0.915 -0.0684  0.2942  0.6360
   61MOL   C11633836   6.461   6.933   1.061  0.3394 -0.3171 -0.1793
   61MOL   C11733837   6.494   6.799   1.133 -0.3592  0.0518 -0.1683
   61MOL   C11833838   6.377   6.701   1.151  0.0111  0.3839 -0.0883
   61MOL   O11933839   6.363   6.612   1.042 -0.0371  0.6415 -0.5189
   61MOL   C12033840   6.323   6.488   1.064 -1.2692 -0.1408 -0.4080
   61MOL   O12133841   6.310   6.440   1.173  0.0117 -0.3160 -0.1223
   61MOL   C12233842   6.294   6.411   0.943  0.1643 -0.5750  0.5326
   61MOL   C12333843   6.239   6.281   0.960  0.1476 -0.3546 -0.9496
   61MOL   C12433844   6.213   6.199   0.845 -0.2090  0.0101 -0.7899
   61MOL   C12533845   6.231   6.253   0.718  0.6321 -0.5551  0.3794
   61MOL   C12633846   6.173   6.183   0.599 -0.7394  0.3164 -0.1582
   61MOL   O12733847   6.140   6.062   0.605 -0.0490 -0.1517  0.1019
   61MOL   C12833848   6.288   6.382   0.702  0.5214 -0.6801 -0.1641
   61MOL   C12933849   6.324   6.463   0.813  0.0550 -0.5006  0.3090
   61MOL   H13033850   6.427   6.992   0.857  2.8666  0.6315 -0.5304
   61MOL   H13133851   6.393   6.821   0.893 -1.2089  1.1899  0.5563
   61MOL   H13233852   6.360   6.955   1.094  0.1907 -0.5823 -0.4546
   61MOL   H13333853   6.525   7.019   1.083  0.7021 -0.9674  1.3434
   61MOL   H13433854   6.585   6.752   1.097 -0.5826  0.5884 -1.4650
   61MOL   H13533855   6.524   6.837   1.230  0.8557 -1.0530 -0.1047
   61MOL   H13633856   6.387   6.653   1.249  0.9611 -0.2262 -0.4727
   61MOL   H13733857   6.287   6.762   1.155  0.6378  1.6443 -3.2328
   61MOL   H13833858   6.218   6.239   1.057  0.2325 -0.1433 -0.8407
   61MOL   H13933859   6.173   6.100   0.861 -0.1056 -0.0225 -0.7359
   61MOL   H14033860   6.288   6.429   0.605  1.9900  0.3027  0.2945
   61MOL   H14133861   6.372   6.560   0.810 -0.7780 -0.0994 -0.1578
   61MOL   O14233862   6.159   6.256   0.487 -0.2252 -0.3203  0.3567
   61MOL   C14333863   6.109   6.192   0.369 -0.0940  0.5182 -0.4723
   61MOL   C14433864   6.062   6.301   0.261  0.4137 -0.1812  0.0532
   61MOL   C14533865   5.980   6.233   0.142  0.2816  0.1745 -0.0766
   61MOL   C14633866   5.869   6.324   0.097  0.1264 -0.0645 -0.8909
   61MOL   O14733867   5.927   6.449   0.055 -0.3249 -0.4580 -0.3576
   61MOL   C14833868   5.877   6.566   0.108  0.4418 -0.4220 -0.1845
   61MOL   O14933869   5.769   6.575   0.173 -0.4840 -0.4093 -0.0598
   61MOL   C15033870   5.963   6.682   0.072  0.5550 -0.3961 -0.2179
   61MOL   C15133871   5.912   6.814   0.071  0.2345  0.6280 -0.1518
   61MOL   C15233872   5.989   6.923   0.027 -0.1392 -0.3699 -0.6227
   61MOL   C15333873   6.118   6.901   8.084 -0.2871 -0.3782  0.7881
   61MOL   C15433874   6.196   7.015   8.027 -0.1692  0.2089 -0.0167
   61MOL   O15533875   6.183   7.129   8.066  0.1770  0.3624 -0.3884
   61MOL   C15633876   6.171   6.772   8.092 -0.1065 -0.1290  1.1293
   61MOL   C15733877   6.094   6.664   0.028  0.0162  0.4294 -0.1439
   61MOL   H15833878   6.176   6.118   0.327 -0.4746  0.2381 -0.5931
   61MOL   H15933879   6.019   6.136   0.395  0.3344  0.5264  1.0773
   61MOL   H16033880   6.146   6.359   0.223  1.5073 -1.6442  0.1635
   61MOL   H16133881   5.995   6.371   0.311  0.1681 -0.4301  0.0769
   61MOL   H16233882   6.044   6.204   0.058  0.1157 -1.8647  0.4681
   61MOL   H16333883   5.936   6.142   0.183 -0.5066 -0.7329 -2.8356
   61MOL   H16433884   5.821   6.279   0.010 -2.6108 -0.5132  0.7894
   61MOL   H16533885   5.784   6.334   0.165 -1.1775  0.3878 -2.5522
   61MOL   H16633886   5.810   6.834   0.101 -0.4828 -0.5867 -1.7191
   61MOL   H16733887   5.951   7.022   0.047 -1.2532 -1.5702  3.6268
   61MOL   H16833888   6.276   6.756   8.073 -0.5866 -4.0771  1.2973
   61MOL   H16933889   6.133   6.563   0.023 -1.9788 -0.4372  1.2570
   61MOL   O17033890   6.276   6.970   7.925 -0.5805  0.0538  0.1175
   61MOL   C17133891   6.359   7.062   7.851 -0.1760 -0.4293 -0.2585
   61MOL   C17233892   6.428   6.982   7.734  0.2576 -0.1461 -0.1492
   61MOL   C17333893   6.508   6.858   7.784 -0.0725  0.6704 -0.2064
   61MOL   C17433894   6.601   6.786   7.686 -0.1379  0.3643 -0.5710
   61MOL   O17533895   6.694   6.705   7.752 -0.2691 -0.0101  0.5156
   61MOL   C17633896   6.744   6.588   7.694 -0.2817 -0.8924 -0.6353
   61MOL   O17733897   6.722   6.556   7.580  0.2388 -0.0513  0.2054
   61MOL   C17833898   6.846   6.516   7.776 -0.0858 -0.2715 -0.9413
   61MOL   C17933899   6.891   6.559   7.909 -0.2209  0.1741  0.1580
   61MOL   C18033900   6.978   6.483   7.985 -1.0533  0.6385 -0.1372
   61MOL   C18133901   7.029   6.365   7.930 -0.0397  0.6170 -0.1622
   61MOL   C18233902   7.134   6.295   8.002 -0.0057  0.2570  0.7446
   61MOL   O18333903   7.201   6.213   7.940  0.2637 -0.3986 -0.1353
   61MOL   C18433904   6.990   6.322   7.795  0.5628  0.0574  0.1354
   61MOL   C18533905   6.899   6.393   7.724 -0.1094  0.0702 -0.0910
   61MOL   H18633906   6.283   7.132   7.816 -3.3246 -2.8508  1.4777
   61MOL   H18733907   6.423   7.106   7.928 -2.0147  0.6007  0.7297
   61MOL   H18833908   6.493   7.049   7.677 -0.1715 -0.1786 -0.6794
   61MOL   H18933909   6.351   6.956   7.661 -0.2647  2.8485 -0.7226
   61MOL   H19033910   6.578   6.891   7.860  1.6902 -2.3126 -0.4675
   61MOL   H19133911   6.438   6.792   7.835  1.5267 -0.2262  0.8690
   61MOL   H19233912   6.557   6.733   7.602 -0.1334  0.3250 -0.5479
   61MOL   H19333913   6.660   6.859   7.630 -0.1574  2.1541  1.6712
   61MOL   H19433914   6.843   6.644   7.956 -0.8975 -1.4483  2.4909
   61MOL   H19533915   7.012   6.508   8.084  0.4193 -1.0200 -0.2071
   61MOL   H19633916   7.038   6.235   7.752 -0.1545 -0.4686  0.3946
   61MOL   H19733917   6.874   6.358   7.625  2.1438 -1.0988 -0.2793
   61MOL   O19833918   7.155   6.321   0.036  0.3807 -0.0675  0.3349
   61MOL   C19933919   7.247   6.243   0.106 -0.6107  0.4077 -0.1452
   61MOL   C20033920   7.357   6.330   0.165  0.5330  0.2858 -0.1520
   61MOL   C20133921   7.306   6.392   0.294  0.4906 -0.0466 -0.8435
   61MOL   C20233922   7.197   6.501   0.283 -0.0569 -0.3173  0.3105
   61MOL   O20333923   7.240   6.616   0.213  0.6996  0.5196  0.2455
   61MOL   C20433924   7.144   6.699   0.152  0.8908 -0.6664  0.1918
   61MOL   O20533925   7.023   6.693   0.180  0.0378  0.1811  0.4307
   61MOL   C20633926   7.199   6.793   0.053 -0.5768  0.1875 -0.2315
   61MOL   C20733927   7.337   6.816   0.036  0.0951 -0.1833  0.7869
   61MOL   C20833928   7.369   6.914   8.040 -0.1481  0.0406  0.2547
   61MOL   C20933929   7.271   6.969   7.952 -0.5031  0.1076 -0.2649
   61MOL   C21033930   7.315   7.062   7.839 -0.4738  0.2535 -0.0726
   61MOL   O21133931   7.435   7.098   7.812  0.5140  0.1450  0.2155
   61MOL   C21233932   7.134   6.943   7.978  0.6158  0.1728 -0.2091
   61MOL   C21333933   7.100   6.868   8.088  0.4604  0.9379  0.0142
   61MOL   H21433934   7.202   6.194   0.192 -0.6150 -0.6950 -0.7671
   61MOL   H21533935   7.294   6.170   0.041 -0.7122  1.0372 -0.9489
   61MOL   H21633936   7.371   6.415   0.099 -0.9135  1.2677  0.7506
   61MOL   H21733937   7.454   6.284   0.178 -0.1318 -0.7644  1.2761
   61MOL   H21833938   7.262   6.313   0.353 -0.9131  1.4815  0.1876
   61MOL   H21933939   7.386   6.440   0.350 -0.6890  2.8024 -1.4899
   61MOL   H22033940   7.096   6.475   0.253 -1.3210  1.0904  3.1184
   61MOL   H22133941   7.175   6.533   0.385 -0.7489  0.4303 -0.0655
   61MOL   H22233942   7.405   6.770   0.106 -1.3658 -0.6263  1.9420
   61MOL   H22333943   7.472   6.938   8.017  0.1130 -2.8411 -1.9398
   61MOL   H22433944   7.056   6.975   7.911  1.1409 -1.7710 -1.8103
   61MOL   H22533945   6.993   6.861   0.006  0.3663  1.6390 -0.2954
   61MOL   O22633946   7.221   7.085   7.748 -0.3177  0.4287 -0.2524
   61MOL   C22733947   7.240   7.175   7.635  0.4646  1.0320 -0.0767
   61MOL   C22833948   7.267   7.323   7.676  0.2830  0.0906  0.4780
   61MOL   C22933949   7.270   7.418   7.547  0.1495 -0.4309 -0.0477
   61MOL   C23033950   7.276   7.567   7.581  0.1384  0.5171 -0.3769
   61MOL   O23133951   7.170   7.587   7.666 -0.5482  0.0196 -0.4686
   61MOL   C23233952   7.049   7.629   7.621  0.4661  0.4482 -0.5110
   61MOL   O23333953   7.022   7.642   7.503 -0.4152 -0.0374 -0.1349
   61MOL   C23433954   6.951   7.640   7.736 -0.5611 -0.6558  0.1494
   61MOL   C23533955   6.835   7.706   7.718 -0.1398  0.1652 -0.5843
   61MOL   C23633956   6.732   7.719   7.813  0.3443 -0.0732  0.3278
   61MOL   C23733957   6.751   7.655   7.936 -0.1521  0.3917  0.0750
   61MOL   C23833958   6.634   7.653   8.031 -0.6253  0.8981 -0.2618
   61MOL   O23933959   6.637   7.602   0.049 -0.5594 -0.1284 -0.0510
   61MOL   C24033960   6.877   7.596   7.963 -0.3034 -0.2155  0.4175
   61MOL   C24133961   6.972   7.585   7.865 -0.5929 -0.2927  1.4857
   61MOL   H24233962   7.317   7.129   7.574  0.4828 -0.8908  1.3654
   61MOL   H24333963   7.154   7.175   7.568  0.9087  2.4772 -0.6769
   61MOL   H24433964   7.353   7.321   7.743  1.7186 -1.0285 -1.3223
   61MOL   H24533965   7.184   7.361   7.735  1.6236  1.8490  1.2729
   61MOL   H24633966   7.355   7.411   7.479  1.8142  3.8259  1.4241
   61MOL   H24733967   7.183   7.399   7.483  0.1226  0.9804 -0.4519
   61MOL   H24833968   7.358   7.598   7.646 -0.6543 -0.1072  0.9313
   61MOL   H24933969   7.267   7.631   7.493 -0.4458  0.1380 -0.5901
   61MOL   H25033970   6.815   7.750   7.621  1.8433  0.3025 -0.9548
   61MOL   H25133971   6.642   7.776   7.791 -2.6440 -3.8033  2.3320
   61MOL   H25233972   6.895   7.545   8.057 -2.6948 -0.5079  0.7366
   61MOL   H25333973   7.057   7.520   7.881 -0.1990 -0.6348 -1.7067
   61MOL   O25433974   6.521   7.701   7.986 -0.2042 -0.4424  0.3746
   61MOL   C25533975   6.392   7.679   8.040 -0.1790  0.1348  0.4640
   61MOL   C25633976   6.332   7.561   7.966 -0.2282  0.0623 -0.4742
   61MOL   C25733977   6.193   7.516   8.013  0.0131  0.0728 -0.0156
   61MOL   C25833978   6.127   7.418   7.915 -0.0105 -0.4215 -0.8940
   61MOL   O25933979   6.002   7.366   7.963 -0.6985  0.0515 -0.1076
   61MOL   C26033980   5.924   7.295   7.883  0.8657  0.1361 -0.1139
   61MOL   O26133981   5.950   7.272   7.763  0.0078 -0.0815  0.0558
   61MOL   C26233982   5.804   7.247   7.946 -0.1561  0.4394  0.3370
   61MOL   C26333983   5.712   7.182   7.863 -0.0854 -0.4600 -0.2400
   61MOL   C26433984   5.602   7.118   7.928 -0.5543  0.1078  0.2352
   61MOL   C26533985   5.570   7.131   8.068  0.4086 -0.4479  0.6329
   61MOL   C26633986   5.452   7.069   0.036  0.1944 -0.4481  0.0340
   61MOL   O26733987   5.418   7.092   0.153  0.3460 -0.0384  0.3515
   61MOL   C26833988   5.657   7.216   0.044  0.1625 -0.3078  0.0777
   61MOL   C26933989   5.772   7.275   8.084 -0.0359  0.1446 -0.3750
   61MOL   H27033990   6.385   7.651   0.047  0.6141  0.4552  0.6070
   61MOL   H27133991   6.332   7.769   8.024 -0.9043 -0.5771 -0.9153
   61MOL   H27233992   6.403   7.479   7.964  0.6064  0.7240  0.8516
   61MOL   H27333993   6.334   7.585   7.860  2.7826  0.7448 -0.3115
   61MOL   H27433994   6.199   7.470   0.014 -0.4881 -0.8365 -0.3966
   61MOL   H27533995   6.127   7.602   8.026 -0.6377 -0.7651  2.6301
   61MOL   H27633996   6.135   7.452   7.812 -1.1516 -2.5566 -1.7376
   61MOL   H27733997   6.189   7.328   7.911 -1.2928 -1.3903  0.2607
   61MOL   H27833998   5.741   7.165   7.760 -0.3758  1.5711 -0.6700
   61MOL   H27933999   5.543   7.055   7.862  0.6083  0.4087 -1.1038
   61MOL   H28034000   5.636   7.233   0.149 -1.1901 -1.2859 -0.0287
   61MOL   H28134001   5.837   7.333   0.049  0.3667 -0.4375 -0.2543
   61MOL   O28234002   5.383   6.989   8.042  0.4154  0.3370  0.3515
   61MOL   C28334003   5.267   6.932   8.098  0.1769  0.6463  0.5007
   61MOL   C28434004   5.197   6.868   7.978 -0.0136  0.1400 -0.2841
   61MOL   C28534005   5.060   6.807   8.011 -0.5518 -0.1695 -0.5674
   61MOL   C28634006   4.994   6.731   7.890 -0.4672  0.9803 -0.0108
   61MOL   O28734007   5.029   6.804   7.776 -0.4912 -0.4847 -0.5781
   61MOL   C28834008   5.023   6.763   7.645 -0.7822  0.3921 -0.3022
   61MOL   O28934009   5.000   6.648   7.616 -0.4791 -0.2792  0.0197
   61MOL   C29034010   5.049   6.882   7.553  0.4773 -0.4669  0.4594
   61MOL   C29134011   5.044   6.870   7.412 -0.2075 -0.5636 -0.3382
   61MOL   C29234012   5.061   6.984   7.330 -0.3208  0.1329 -0.8425
   61MOL   C29334013   5.099   7.110   7.392  0.6080  0.1971  0.0553
   61MOL   C29434014   5.109   7.241   7.313 -0.1550 -0.0696  0.2509
   61MOL   O29534015   5.154   7.349   7.365  0.1737  0.9530 -0.4064
   61MOL   C29634016   5.116   7.119   7.533  0.2975  0.3286  0.7234
   61MOL   C29734017   5.084   7.009   7.611 -0.4607  0.7030  0.2564
   61MOL   H29834018   5.299   6.861   0.076  0.8410 -0.5071 -0.8003
   61MOL   H29934019   5.197   7.005   0.037  1.6079  1.9442  0.7010
   61MOL   H30034020   5.271   6.801   7.935 -0.6782 -0.8801  0.1458
   61MOL   H30134021   5.187   6.949   7.906  0.3590  0.9767  0.5859
   61MOL   H30234022   5.053   6.737   8.095  1.2992 -0.9205 -1.0188
   61MOL   H30334023   4.993   6.887   8.040 -0.0569  0.2339 -0.5262
   61MOL   H30434024   5.027   6.627   7.880 -1.7631  0.2503  2.7295
   61MOL   H30534025   4.887   6.739   7.910 -0.5606  0.5036 -0.2914
   61MOL   H30634026   5.016   6.782   7.357 -0.1035  0.1384 -1.5361
   61MOL   H30734027   5.040   6.979   7.225 -1.3548  0.4944 -0.6563
   61MOL   H30834028   5.139   7.214   7.580 -0.3439 -0.5647  2.8945
   61MOL   H30934029   5.092   7.021   7.718 -0.2619  0.2436  0.2923
   61MOL   O31034030   5.060   7.231   7.191 -0.0600  0.5185 -0.4810
   61MOL   C31134031   5.085   7.343   7.098  0.5045 -0.1209  0.7898
   61MOL   C31234032   5.161   7.287   6.979 -0.5371  0.2978 -0.0336
   61MOL   C31334033   5.175   7.383   6.861 -0.4041  0.5821  0.0718
   61MOL   C31434034   5.283   7.338   6.760  0.5111 -0.4267 -0.5491
   61MOL   O31534035   5.302   7.445   6.660 -0.2513 -0.0099  0.7148
   61MOL   C31634036   5.329   7.416   6.536 -0.3135  0.1559  0.3409
   61MOL   O31734037   5.325   7.301   6.492 -0.1814 -0.3761 -0.1968
   61MOL   C31834038   5.381   7.531   6.462  0.5479  0.1939 -0.0757
   61MOL   C31934039   5.420   7.514   6.328 -0.4350 -0.3388  0.0501
   61MOL   C32034040   5.480   7.624   6.265  0.0638 -0.0961  0.7952
   61MOL   C32134041   5.479   7.750   6.324  0.0308 -0.4954  0.1365
   61MOL   C32234042   5.518   7.860   6.234  0.3977  0.8905  0.2579
   61MOL   O32334043   5.542   7.837   6.113  0.3319 -0.4847  0.4701
   61MOL   C32434044   5.427   7.772   6.450 -0.5316 -0.1131 -0.5145
   61MOL   C32534045   5.380   7.662   6.524 -0.1651 -0.6909  0.2253
   61MOL   H32634046   4.992   7.382   7.056 -0.4203  0.9029  3.6290
   61MOL   H32734047   5.137   7.435   7.120  1.2190  0.0942 -1.6585
   61MOL   H32834048   5.109   7.197   6.944 -0.6204  1.0294 -1.8435
   61MOL   H32934049   5.263   7.271   7.013  0.5819  1.8496 -2.5144
   61MOL   H33034050   5.076   7.383   6.817 -0.8400 -1.3244  1.0235
   61MOL   H33134051   5.189   7.487   6.891  1.7175  0.0814  0.9486
   61MOL   H33234052   5.375   7.334   6.819 -0.1741 -1.2280  0.4807
   61MOL   H33334053   5.265   7.242   6.713  1.2225  0.0066 -1.7360
   61MOL   H33434054   5.409   7.418   6.279  0.4735 -0.1198 -0.5947
   61MOL   H33534055   5.515   7.611   6.164 -0.7905 -1.3358  0.6505
   61MOL   H33634056   5.426   7.874   6.484 -0.5285 -0.1600 -0.3772
   61MOL   H33734057   5.343   7.680   6.624  1.9806  0.4826  0.8333
   61MOL   O33834058   5.535   7.978   6.293  0.4107  0.0175  0.4493
   61MOL   C33934059   5.588   8.088   6.217  0.0896 -0.5222  0.3467
   61MOL   C34034060   5.589   0.121   6.284 -0.1210 -0.2955  0.2077
   61MOL   C34134061   5.687   0.144   6.400 -0.2480 -0.4518 -0.1834
   61MOL   C34234062   5.655   0.073   6.537  0.1192 -0.1311 -0.1865
   61MOL   O34334063   5.765   0.104   6.620 -0.4205  0.0348 -0.2226
   61MOL   C34434064   5.784   0.057   6.746  0.3597 -0.2841 -0.3430
   61MOL   O34534065   5.707   8.089   6.810 -0.0988  0.1166 -0.0276
   61MOL   C34634066   5.917   0.111   6.796 -0.5249  0.5433 -0.0619
   61MOL   C34734067   5.930   0.152   6.929 -0.1667 -0.6321  0.2992
   61MOL   C34834068   6.061   0.193   6.973 -0.2462  0.9604  0.0835
   61MOL   C34934069   6.173   0.196   6.890 -0.0602 -0.3980 -0.2300
   61MOL   C35034070   6.303   0.236   6.937  0.8127  0.0782  1.1138
   61MOL   O35134071   6.392   0.273   6.854 -0.5110  0.1517  0.0248
   61MOL   C35234072   6.151   0.160   6.754 -0.0379 -0.4055 -0.1907
   61MOL   C35334073   6.025   0.122   6.710  0.7985 -0.5402  0.4849
   61MOL   H35434074   5.690   8.069   6.184  1.2397  1.3275  2.7056
   61MOL   H35534075   5.529   0.002   6.126 -0.5917  0.2189  0.8797
   61MOL   H35634076   5.484   0.136   6.307 -0.3244  0.0600 -0.9260
   61MOL   H35734077   5.615   0.204   6.218  1.0277 -1.3224 -0.6748
   61MOL   H35834078   5.788   0.137   6.362  0.7058  1.2783  1.9329
   61MOL   H35934079   5.682   0.251   6.421 -0.9215 -0.2289 -1.4277
   61MOL   H36034080   5.564   0.111   6.583  0.4304  0.8786 -0.4026
   61MOL   H36134081   5.654   8.065   6.514  1.4424 -0.3191  0.6020
   61MOL   H36234082   5.845   0.143   6.996  1.5785  1.5113  2.9124
   61MOL   H36334083   6.067   0.227   7.075 -2.4466  2.7038 -0.3108
   61MOL   H36434084   6.235   0.161   6.686 -0.3235  1.2612 -0.5545
   61MOL   H36534085   6.002   0.104   6.606 -0.1505  0.8758  0.4342
   61MOL   O36634086   6.313   0.234   7.070  0.1447  0.2351  0.1666
   61MOL   C36734087   6.431   0.291   7.132  0.1126 -0.5151  0.0934
   61MOL   C36834088   6.426   0.446   7.137 -0.6582  0.1111 -0.0035
   61MOL   C36934089   6.438   0.495   7.281 -0.0388  0.2218  0.2240
   61MOL   C37034090   6.305   0.509   7.355 -0.0235 -0.3128  0.6444
   61MOL   O37134091   6.209   0.404   7.329  0.7038  0.0810 -0.4623
   61MOL   C37234092   6.204   0.299   7.412  0.1507  0.0623  0.1947
   61MOL   O37334093   6.296   0.265   7.488 -0.0035  0.0517  0.1952
   61MOL   C37434094   6.068   0.234   7.408  0.4746 -0.8916 -0.7240
   61MOL   C37534095   5.968   0.264   7.319  0.1945 -0.1291  0.3208
   61MOL   C37634096   5.839   0.200   7.331  0.0756 -0.3489 -0.5755
   61MOL   C37734097   5.809   0.115   7.443  0.1681 -0.8097 -0.3491
   61MOL   C37834098   5.673   0.057   7.472 -0.8780  0.1912 -0.2459
   61MOL   O37934099   5.569   0.082   7.402  0.4819  0.1757 -0.2651
   61MOL   C38034100   5.908   0.096   7.540  0.0472  0.8781  0.1167
   61MOL   C38134101   6.038   0.151   7.517 -0.0337 -0.2867  0.2865
   61MOL   H38234102   6.455   0.250   7.230 -2.2652 -1.7953  0.1680
   61MOL   H38334103   6.522   0.271   7.076  1.0315  0.9529  1.0468
   61MOL   H38434104   6.334   0.475   7.086 -0.7747 -1.7481 -0.8812
   61MOL   H38534105   6.509   0.489   7.080 -0.4915  1.2372  1.0672
   61MOL   H38634106   6.495   0.431   7.348  0.4754 -0.1575 -0.5680
   61MOL   H38734107   6.507   0.579   7.290 -3.2611  3.6241 -4.3254
   61MOL   H38834108   6.332   0.506   7.461  0.0897  1.0964  0.6571
   61MOL   H38934109   6.253   0.601   7.330 -0.7204 -0.5331  1.2416
   61MOL   H39034110   5.981   0.337   7.241 -0.1514 -1.5226 -1.0642
   61MOL   H39134111   5.766   0.236   7.260  0.1399  1.2135  0.1225
   61MOL   H39234112   5.900   0.037   7.630 -2.6657  2.8490  1.2276
   61MOL   H39334113   6.118   0.134   7.588 -0.3619  1.2935  1.0644
   61MOL   O39434114   5.667   8.078   7.581  0.3776 -0.2343  0.7004
   61MOL   C39534115   5.549   8.006   7.622  0.0558  0.0203  0.6131
   61MOL   C39634116   5.534   8.022   7.774 -0.4346 -0.0010 -0.8351
   61MOL   C39734117   5.659   7.981   7.845 -0.4711 -0.3551  0.3175
   61MOL   C39834118   5.614   7.986   7.987 -0.3692 -0.7299 -0.4283
   61MOL   O39934119   5.716   7.994   8.081  0.2762  0.4296 -0.2162
   61MOL   C40034120   5.680   7.981   0.113  0.2756  0.7914 -0.6713
   61MOL   O40134121   5.565   7.955   0.145 -0.0046 -0.0383  0.1895
   61MOL   C40234122   5.788   8.000   0.213 -0.0947  0.1905  0.2172
   61MOL   C40334123   5.924   8.032   0.177  0.3717 -0.1547 -0.7614
   61MOL   C40434124   6.025   8.051   0.271  0.4712 -0.0438  0.0980
   61MOL   C40534125   5.988   8.054   0.407 -0.1474 -0.1377  0.5028
   61MOL   C40634126   6.096   8.088   0.505 -0.4140 -0.0865  1.0269
   61MOL   O40734127   6.085   8.053   0.622 -0.2625 -0.1879  0.1941
   61MOL   C40834128   5.861   8.016   0.450 -0.6498  0.2265 -0.1372
   61MOL   C40934129   5.761   7.986   0.354  0.0965  0.4675 -0.3318
   61MOL   H41034130   5.457   8.039   7.572  0.3356  0.5465  0.4375
   61MOL   H41134131   5.567   7.903   7.594 -0.5437  0.2525 -0.6720
   61MOL   H41234132   5.445   7.971   7.810 -0.6049  0.1958 -0.9737
   61MOL   H41334133   5.517   0.030   7.790  0.3644  0.1897 -1.2229
   61MOL   H41434134   5.684   7.879   7.816  0.3111  0.4357 -1.9431
   61MOL   H41534135   5.743   8.047   7.825 -0.7586 -0.3046 -0.7865
   61MOL   H41634136   5.543   8.065   8.011  0.8946  0.2914 -0.0267
   61MOL   H41734137   5.559   7.893   8.001 -3.7829  0.9341 -2.2108
   61MOL   H41834138   5.946   8.045   0.072 -0.5206  1.4093 -0.7669
   61MOL   H41934139   6.123   8.083   0.238  0.3461  0.2920  0.0512
   61MOL   H42034140   5.841   8.024   0.556 -0.3987  1.3084 -0.1694
   61MOL   H42134141   5.665   7.956   0.391 -0.1775  0.7184 -0.8278
   61MOL   O42234142   6.196   0.059   0.465 -0.3293  0.5868 -0.5605
   61MOL   C42334143   6.280   0.120   0.568 -0.1848 -0.4583  0.8912
   61MOL   C42434144   6.418   0.128   0.509 -0.3396  0.1383  0.3842
   61MOL   C42534145   6.516   0.202   0.606 -0.3957  0.3117  0.6857
   61MOL   C42634146   6.665   0.190   0.557  0.5320  0.2822  0.0722
   61MOL   O42734147   6.669   0.218   0.417 -0.2821  0.2096  0.2602
   61MOL   C42834148   6.778   0.209   0.338  0.2762 -0.3737  0.2812
   61MOL   O42934149   6.896   0.194   0.372  0.0664  0.2579 -0.1030
   61MOL   C43034150   6.734   0.222   0.192  0.1223  0.0374 -0.1817
   61MOL   C43134151   6.601   0.246   0.149 -0.2106  0.5674  0.0317
   61MOL   C43234152   6.578   0.259   0.011  0.7268 -0.6026 -0.0416
   61MOL   C43334153   6.677   0.244   8.011 -0.6368 -0.0814 -0.4404
   61MOL   C43434154   6.630   0.246   7.868  0.6504 -0.3741  0.1897
   61MOL   O43534155   6.531   0.309   7.829 -0.1832 -0.0871  0.4203
   61MOL   C43634156   6.809   0.223   8.054 -0.4222 -0.2696  1.0113
   61MOL   C43734157   6.839   0.203   0.094  0.6821  0.5345 -0.2894
   61MOL   H43834158   6.232   0.210   0.604  0.7989  0.2515  0.4576
   61MOL   H43934159   6.292   0.053   0.653  0.9425 -2.2050 -0.5726
   61MOL   H44034160   6.417   0.188   0.418  0.9025 -0.6053 -0.1413
   61MOL   H44134161   6.444   0.024   0.488  1.4747  0.3503  1.4478
   61MOL   H44234162   6.486   0.305   0.626 -0.0893 -0.0894  3.3622
   61MOL   H44334163   6.516   0.158   0.705 -0.9662 -0.7864  0.2045
   61MOL   H44434164   6.734   0.244   0.622  0.6824 -0.2271  0.3333
   61MOL   H44534165   6.707   0.090   0.564 -0.0576  0.0040 -0.3096
   61MOL   H44634166   6.510   0.261   0.206  0.3454  0.0448  1.0847
   61MOL   H44734167   6.474   0.270   8.082  0.3387  1.4855  2.1271
   61MOL   H44834168   6.886   0.214   7.979 -0.6741  0.7964  0.6181
   61MOL   H44934169   6.940   0.185   0.129  0.0913 -1.6713  0.3977
   61MOL   O45034170   6.701   0.164   7.794 -0.0115  0.5897  0.3722
   61MOL   C45134171   6.662   0.144   7.658 -0.0230 -0.4764 -0.3283
   61MOL   C45234172   6.759   0.226   7.569  0.5645 -0.0748 -0.0813
   61MOL   C45334173   6.753   0.183   7.419  0.4647 -0.1062  0.4105
   61MOL   C45434174   6.843   0.272   7.316  0.4448 -0.1464  0.7407
   61MOL   O45534175   6.787   0.401   7.323  0.2007  0.3298  0.5018
   61MOL   C45634176   6.814   0.482   7.221  1.0084 -0.5651  0.1168
   61MOL   O45734177   6.870   0.453   7.114  0.2534  0.0287 -0.0570
   61MOL   C45834178   6.773   0.625   7.247 -0.3156  0.7655 -0.0039
   61MOL   C45934179   6.744   0.667   7.378  0.6746 -0.8131 -0.0884
   61MOL   C46034180   6.721   0.800   7.414  0.0097  0.2092 -0.3095
   61MOL   C46134181   6.746   0.901   7.320  0.5441 -0.1466  0.8274
   61MOL   C46234182   6.753   1.042   7.359 -0.4100  0.1575 -0.5030
   61MOL   O46334183   6.720   1.082   7.465 -0.2486 -0.5258  0.6986
   61MOL   C46434184   6.778   0.861   7.187 -0.0692 -0.3885 -0.4756
   61MOL   C46534185   6.787   0.727   7.153  0.0511  0.6544  0.4273
   61MOL   H46634186   6.686   0.040   7.636  1.2393 -0.3748  0.5310
   61MOL   H46734187   6.556   0.167   7.645  0.4644  1.5314 -0.9247
   61MOL   H46834188   6.858   0.213   7.612  0.3371  1.8590  1.0820
   61MOL   H46934189   6.751   0.334   7.583  1.3682  0.0544 -0.5560
   61MOL   H47034190   6.775   0.077   7.405  1.5734  0.2732 -0.8097
   61MOL   H47134191   6.649   0.186   7.388  0.1246  2.8818  1.6472
   61MOL   H47234192   6.944   0.276   7.355  0.2366 -2.5832  1.6124
   61MOL   H47334193   6.836   0.228   7.216  2.4481  0.0291  0.5021
   61MOL   H47434194   6.760   0.602   7.463  1.3841  2.8424  2.7227
   61MOL   H47534195   6.697   0.824   7.516  1.1355 -3.8302  0.9864
   61MOL   H47634196   6.808   0.924   7.104  0.9724  1.7180  1.4446
   61MOL   H47734197   6.813   0.701   7.051  1.4963 -0.7230  1.1161
   61MOL   O47834198   6.826   1.108   7.270  0.0008 -0.0931 -0.5376
   61MOL   C47934199   6.870   1.239   7.306  0.8863 -0.4356  0.3457
   61MOL   C48034200   6.929   1.301   7.173  0.0569  0.1421  0.2599
   61MOL   C48134201   7.043   1.210   7.116  0.7027 -0.0698 -0.2403
   61MOL   C48234202   7.163   1.214   7.213 -0.6497 -0.3489 -0.4858
   61MOL   O48334203   7.143   1.117   7.316 -0.4390  0.2778 -0.1286
   61MOL   C48434204   7.163   0.985   7.292  0.2385  0.1139 -0.3739
   61MOL   O48534205   7.199   0.937   7.184 -0.0534 -0.3113 -0.0511
   61MOL   C48634206   7.126   0.895   7.400  0.0900  0.5069 -0.7513
   61MOL   C48734207   7.064   0.945   7.519 -0.1760  0.3220  0.1772
   61MOL   C48834208   7.026   0.852   7.622  0.0870  0.4050  0.5524
   61MOL   C48934209   7.031   0.718   7.601  0.4288  0.5907 -0.4268
   61MOL   C49034210   6.975   0.624   7.702 -0.0003 -0.0439  0.4891
   61MOL   O49134211   6.990   0.503   7.704  0.1455  0.5679 -0.1689
   61MOL   C49234212   7.092   0.668   7.485 -0.4191 -0.3585 -0.0782
   61MOL   C49334213   7.141   0.758   7.384  0.1418 -0.0548  0.0976
   61MOL   H49434214   6.796   1.299   7.359  0.1529  1.0051 -2.1996
   61MOL   H49534215   6.953   1.244   7.376  0.1799  3.3181  0.9995
   61MOL   H49634216   6.958   1.406   7.185 -0.3311  0.2726  0.0711
   61MOL   H49734217   6.850   1.307   7.099 -0.7158  0.6782  1.1113
   61MOL   H49834218   7.010   1.109   7.092 -1.2045  0.2885  0.7715
   61MOL   H49934219   7.082   1.249   7.022 -0.9086 -1.6145 -1.5671
   61MOL   H50034220   7.256   1.188   7.161  0.3536 -1.3738  1.7337
   61MOL   H50134221   7.182   1.306   7.269 -2.6614 -0.2384  0.0424
   61MOL   H50234222   7.053   1.051   7.540  4.5388  0.4978  2.3788
   61MOL   H50334223   6.987   0.897   7.712 -2.1584  0.7289 -0.5335
   61MOL   H50434224   7.103   0.566   7.452 -1.2623 -0.8963  1.2990
   61MOL   H50534225   7.191   0.717   7.297 -0.1867 -0.6006  0.1642
   61MOL   O50634226   6.903   0.692   7.791  0.3209 -0.5023  0.2001
   61MOL   C50734227   6.830   0.621   7.892 -0.2573  0.6075  0.0811
   61MOL   C50834228   6.679   0.651   7.891  0.5636 -0.0603  0.1034
   61MOL   C50934229   6.626   0.613   7.752 -0.2143  0.7598 -0.0884
   61MOL   C51034230   6.465   0.608   7.749 -0.3919  0.2698  0.1590
   61MOL   O51134231   6.410   0.737   7.768 -0.5388  0.0161 -0.5605
   61MOL   C51234232   6.390   0.813   7.658 -0.0118 -0.5557  0.0326
   61MOL   O51334233   6.411   0.769   7.548 -0.3870  0.5318 -0.1150
   61MOL   C51434234   6.341   0.955   7.687 -0.1846 -0.5971 -0.0777
   61MOL   C51534235   6.272   0.976   7.806  0.3520 -0.3984 -0.5942
   61MOL   C51634236   6.214   1.099   7.832  0.7043 -0.6626 -1.1089
   61MOL   C51734237   6.215   1.198   7.725 -0.3443  0.3520 -0.6223
   61MOL   C51834238   6.164   1.336   7.751 -0.5165  0.8279 -0.4938
   61MOL   O51934239   6.169   1.424   7.669  0.5090 -0.1391  0.0633
   61MOL   C52034240   6.285   1.179   7.602 -0.0747 -0.0832  0.1701
   61MOL   C52134241   6.347   1.054   7.588  0.1323  0.2289  0.1396
   61MOL   H52234242   6.855   0.515   7.890  2.5316  1.1823  1.5964
   61MOL   H52334243   6.876   0.658   7.984 -2.1079  0.9951  0.8755
   61MOL   H52434244   6.660   0.749   7.933  2.3226  0.7583 -0.9202
   61MOL   H52534245   6.639   0.574   7.957 -2.9704  1.4605 -0.1733
   61MOL   H52634246   6.664   0.680   7.674 -0.8443 -1.8717 -2.7254
   61MOL   H52734247   6.667   0.514   7.730 -0.5932  0.9843 -1.9261
   61MOL   H52834248   6.419   0.549   7.670 -0.3963  1.0366 -0.4194
   61MOL   H52934249   6.436   0.548   7.836  0.7063 -1.8560 -0.9127
   61MOL   H53034250   6.265   0.906   7.888 -0.5193  1.9177  1.3751
   61MOL   H53134251   6.188   1.129   7.933  1.2903  0.6619 -1.3493
   61MOL   H53234252   6.286   1.256   7.527  0.9649  2.1029  2.3742
   61MOL   H53334253   6.394   1.029   7.494 -0.7218  0.1931 -0.2818
   61MOL   O53434254   6.103   1.350   7.879  0.2138 -0.0843 -0.2649
   61MOL   C53534255   6.035   1.469   7.917 -0.2562  0.1762  0.2693
   61MOL   C53634256   5.899   1.474   7.860  0.2566  0.5356 -0.3712
   61MOL   C53734257   5.810   1.347   7.895  0.7899  0.4786 -0.0017
   61MOL   C53834258   5.814   1.242   7.786 -0.5827  0.6270  0.0821
   61MOL   O53934259   5.755   1.299   7.671 -0.0241 -0.0815 -0.0252
   61MOL   C54034260   5.807   1.273   7.550 -0.3908  0.5252 -0.2625
   61MOL   O54134261   5.910   1.201   7.545  0.1419 -0.2036 -0.1167
   61MOL   C54234262   5.746   1.341   7.436 -0.2613 -0.6498  0.4696
   61MOL   C54334263   5.787   1.337   7.304  0.3242  0.6580  0.0434
   61MOL   C54434264   5.726   1.409   7.198  0.5236 -0.4491 -1.1105
   61MOL   C54534265   5.612   1.488   7.231  0.1938  0.6133  0.1723
   61MOL   C54634266   5.532   1.563   7.137  0.3332 -0.3550  0.7267
   61MOL   O54734267   5.463   1.662   7.156  0.5867  0.9296  0.5134
   61MOL   C54834268   5.576   1.502   7.369  0.8257 -0.1230 -0.2222
   61MOL   C54934269   5.646   1.434   7.465 -0.6915 -0.1909 -0.3121
   61MOL   H55034270   6.033   1.480   8.026 -0.6069 -1.4071  0.4354
   61MOL   H55134271   6.088   1.557   7.882 -2.1364  2.5914  3.2394
   61MOL   H55234272   5.914   1.500   7.755  3.1388 -0.3060 -0.2017
   61MOL   H55334273   5.853   1.565   7.899 -1.0937  0.7378 -2.3441
   61MOL   H55434274   5.853   1.298   7.983 -3.5887 -1.7812  0.9955
   61MOL   H55534275   5.703   1.369   7.896  0.6363 -0.1513  2.8434
   61MOL   H55634276   5.919   1.212   7.779  0.0464  2.4915  1.2717
   61MOL   H55734277   5.745   1.162   7.813 -0.2166  0.1430 -0.3884
   61MOL   H55834278   5.868   1.272   7.275  0.0416  0.9831 -1.5529
   61MOL   H55934279   5.765   1.415   7.098  0.9126 -1.0063 -0.9957
   61MOL   H56034280   5.497   1.572   7.392 -0.8040 -1.7433 -0.6721
   61MOL   H56134281   5.612   1.449   7.567  3.7972  0.5614  1.1715
   61MOL   H56234282   5.537   1.515   7.039 -1.1094 -1.1663  1.0399
   62MOL     O134283   6.148   4.951   4.329 -0.0498 -0.6173 -0.5279
   62MOL     C234284   6.110   4.817   4.373  0.2074  0.0360  0.4749
   62MOL     C334285   6.210   4.716   4.313  0.3780 -0.2627 -0.3729
   62MOL     C434286   6.162   4.578   4.367  0.5664 -0.4002 -0.4946
   62MOL     C534287   6.251   4.459   4.327 -0.5768  0.5258 -0.3540
   62MOL     O634288   6.246   4.419   4.194 -0.4382 -0.5127 -0.2884
   62MOL     C734289   6.274   4.291   4.160  0.2043  0.0572 -0.3346
   62MOL     O834290   6.328   4.209   4.236  0.0233  0.0174  0.2359
   62MOL     C934291   6.234   4.251   4.019  0.2592 -0.1554 -0.4376
   62MOL    C1034292   6.181   4.344   3.928  0.8285 -0.0744  0.7832
   62MOL    C1134293   6.149   4.299   3.800  0.5322 -0.3401  0.0572
   62MOL    C1234294   6.179   4.169   3.756  0.4404 -0.7971  0.2048
   62MOL    C1334295   6.148   4.122   3.615  0.4079 -0.2459 -0.1547
   62MOL    O1434296   6.085   4.189   3.533 -0.2471  0.4283 -0.6130
   62MOL    C1534297   6.237   4.083   3.852  0.9942 -0.5770  0.3933
   62MOL    C1634298   6.252   4.116   3.983 -0.5586  0.0729  0.1430
   62MOL    H1734299   6.102   4.816   4.481 -0.7957 -0.9217  0.4007
   62MOL    H1834300   6.013   4.793   4.329  0.3395  0.3836 -0.0156
   62MOL    H1934301   6.310   4.731   4.356  0.5167 -2.2239  0.0335
   62MOL    H2034302   6.221   4.716   4.205  0.8123  0.8400 -0.3300
   62MOL    H2134303   6.159   4.576   4.476  1.9933 -1.9910 -0.4737
   62MOL    H2234304   6.061   4.545   4.342  0.1067 -0.8223  1.7907
   62MOL    H2334305   6.357   4.472   4.349 -0.7603  0.0358  0.8304
   62MOL    H2434306   6.234   4.369   4.386 -0.9114  0.9854  0.2409
   62MOL    H2534307   6.171   4.450   3.947 -1.3558 -0.1198 -0.0509
   62MOL    H2634308   6.095   4.368   3.735  0.0388 -0.9275 -0.1606
   62MOL    H2734309   6.263   3.982   3.823  0.6659 -0.4320 -0.4104
   62MOL    H2834310   6.269   4.034   4.052  0.1043 -0.9420 -1.1998
   62MOL    H2934311   6.238   4.955   4.302  1.1679  1.6230  3.4099
   62MOL    O3034312   6.194   3.998   3.593  0.1855 -0.1118  0.3547
   62MOL    C3134313   6.178   3.926   3.473  0.9490  0.2351 -0.1730
   62MOL    C3234314   6.033   3.877   3.445  0.4279 -0.1630  0.3742
   62MOL    C3334315   5.977   3.763   3.543 -0.8716 -0.7284  0.3885
   62MOL    C3434316   5.838   3.706   3.510 -0.1875  0.2497 -0.7169
   62MOL    O3534317   5.838   3.646   3.383  0.7411  0.2697  0.2361
   62MOL    C3634318   5.754   3.554   3.346  0.0674 -0.0816 -0.3041
   62MOL    O3734319   5.677   3.504   3.424  0.8960 -0.4823  0.5214
   62MOL    C3834320   5.762   3.519   3.202 -0.3729  0.0635  0.2898
   62MOL    C3934321   5.685   3.409   3.154 -0.0731  0.6955  0.6830
   62MOL    C4034322   5.692   3.373   3.017  0.0620  0.0897  0.7776
   62MOL    C4134323   5.781   3.434   2.932 -0.5007 -0.2296  0.0961
   62MOL    C4234324   5.788   3.392   2.792 -0.4063 -0.0503 -0.0723
   62MOL    O4334325   5.720   3.299   2.751  0.2640 -0.9272  0.5215
   62MOL    C4434326   5.846   3.546   2.981  0.0258 -0.1049  0.8416
   62MOL    C4534327   5.848   3.587   3.114  0.0431  0.1185 -0.0586
   62MOL    H4634328   6.206   3.996   3.395 -2.7045 -0.1324 -1.9096
   62MOL    H4734329   6.246   3.843   3.492 -0.0352 -0.1374  1.9369
   62MOL    H4834330   6.026   3.841   3.343 -0.3106 -1.2611  0.7921
   62MOL    H4934331   5.960   3.958   3.451  1.7064  0.9959  0.2641
   62MOL    H5034332   6.056   3.687   3.548 -1.8246 -1.6462  1.8056
   62MOL    H5134333   5.984   3.795   3.647 -1.2129 -0.5224  0.3475
   62MOL    H5234334   5.815   3.629   3.584 -0.7254  0.4542 -0.6668
   62MOL    H5334335   5.760   3.782   3.513 -0.5362 -0.1766  1.4687
   62MOL    H5434336   5.605   3.357   3.204 -1.0092  1.1063 -0.3365
   62MOL    H5534337   5.615   3.302   2.990  1.3388 -1.7163  1.8187
   62MOL    H5634338   5.916   3.596   2.915  0.8509 -1.4067  0.7207
   62MOL    H5734339   5.906   3.670   3.149 -1.7300  1.1026  0.6171
   62MOL    O5834340   5.864   3.456   2.723 -0.6797  0.3673  0.2721
   62MOL    C5934341   5.886   3.421   2.587 -0.2095 -0.2127 -0.8276
   62MOL    C6034342   6.027   3.447   2.537  0.1017 -0.0348 -0.4494
   62MOL    C6134343   6.065   3.593   2.569 -0.7110  0.1706 -0.8039
   62MOL    C6234344   6.000   3.706   2.493 -0.5475 -0.3470 -0.5568
   62MOL    O6334345   5.890   3.740   2.576  0.3776 -0.1485 -0.2458
   62MOL    C6434346   5.792   3.821   2.533  0.0711 -0.5745  0.1567
   62MOL    O6534347   5.791   3.872   2.418  0.1569 -0.4284  0.7962
   62MOL    C6634348   5.690   3.848   2.632  0.0506  0.2117 -0.5918
   62MOL    C6734349   5.592   3.947   2.603  1.0725  0.1206  0.3760
   62MOL    C6834350   5.496   3.988   2.699  0.5642  0.6690 -0.0407
   62MOL    C6934351   5.498   3.922   2.830  0.1824  0.5068 -0.4292
   62MOL    C7034352   5.392   3.950   2.931  0.2352  0.2009 -0.5511
   62MOL    O7134353   5.351   3.862   3.006  0.0698  0.3412  0.3274
   62MOL    C7234354   5.586   3.818   2.846 -0.0938 -0.3697  0.2513
   62MOL    C7334355   5.681   3.783   2.753  0.0592  0.1240 -0.2351
   62MOL    H7434356   5.867   3.313   2.579  0.0180 -0.6707  3.3011
   62MOL    H7534357   5.813   3.461   2.517 -2.3928  0.5918  1.8330
   62MOL    H7634358   6.036   3.421   2.432  1.5672  0.4618 -0.4625
   62MOL    H7734359   6.100   3.386   2.590  0.9210  0.9862 -0.3873
   62MOL    H7834360   6.064   3.610   2.676 -1.8872 -0.9203 -0.6301
   62MOL    H7934361   6.172   3.606   2.552 -0.5900  1.5707  0.9792
   62MOL    H8034362   6.070   3.788   2.480  0.4210 -0.6927  2.1180
   62MOL    H8134363   5.972   3.681   2.391  1.2738  0.0284 -1.1734
   62MOL    H8234364   5.586   4.007   2.514  0.0788 -2.2787 -1.2309
   62MOL    H8334365   5.424   4.067   2.683  0.1230 -0.1157 -2.0519
   62MOL    H8434366   5.572   3.767   2.940  0.4268 -2.1424 -0.6211
   62MOL    H8534367   5.747   3.701   2.779 -1.8895 -1.5770 -0.5697
   62MOL    O8634368   5.353   4.073   2.927 -0.0736 -0.2384 -0.2504
   62MOL    C8734369   5.250   4.106   3.017  0.0502 -0.1357 -0.1410
   62MOL    C8834370   5.279   4.252   3.067 -0.1183  0.3178 -0.4732
   62MOL    C8934371   5.405   4.266   3.149  0.4799 -0.0456 -0.0333
   62MOL    C9034372   5.428   4.413   3.212  0.1657  0.0112 -0.3776
   62MOL    O9134373   5.430   4.514   3.105  0.5349  0.0026 -0.1022
   62MOL    C9234374   5.528   4.598   3.093  0.1440 -0.6021 -0.5918
   62MOL    O9334375   5.640   4.581   3.137 -0.3624 -0.0483 -0.3339
   62MOL    C9434376   5.481   4.717   3.014 -0.6211 -0.2046  0.4117
   62MOL    C9534377   5.568   4.821   2.981  0.1395 -0.2704 -0.0727
   62MOL    C9634378   5.531   4.930   2.903 -0.1266 -0.2192  0.0120
   62MOL    C9734379   5.403   4.928   2.838  0.9092 -0.0527 -0.1682
   62MOL    C9834380   5.368   5.046   2.752  0.2824 -0.5048 -0.0203
   62MOL    O9934381   5.416   5.156   2.772 -0.9178  0.3838 -0.1329
   62MOL   C10034382   5.313   4.827   2.870  0.3069 -0.1598 -0.4249
   62MOL   C10134383   5.350   4.728   2.959  0.3068  0.7839  0.0730
   62MOL   H10234384   5.152   4.107   2.969  0.1015 -3.3012 -0.4087
   62MOL   H10334385   5.233   4.033   3.096 -1.0938 -0.0400 -0.2996
   62MOL   H10434386   5.191   4.282   3.123  1.2617  1.0823  1.3480
   62MOL   H10534387   5.305   4.326   2.990  1.6967 -0.7859 -0.9590
   62MOL   H10634388   5.405   4.194   3.231  0.9323 -0.3639 -0.3140
   62MOL   H10734389   5.496   4.245   3.093  1.3071  1.8655  0.5681
   62MOL   H10834390   5.341   4.447   3.269  0.8828  0.6592  0.3390
   62MOL   H10934391   5.515   4.407   3.278  0.5240 -0.1537 -0.8639
   62MOL   H11034392   5.661   4.820   3.035 -0.3481 -2.4495  0.7367
   62MOL   H11134393   5.594   5.016   2.882 -2.3761  1.0987 -1.5507
   62MOL   H11234394   5.213   4.826   2.831 -0.6757  0.5770  1.9575
   62MOL   H11334395   5.269   4.657   2.964  0.4812  0.3910 -2.2549
   62MOL   O11434396   5.265   5.022   2.664 -0.5417  0.3107 -0.0067
   62MOL   C11534397   5.258   5.105   2.548  0.2797  0.6386  0.0189
   62MOL   C11634398   5.175   5.029   2.441  0.3444 -0.0085  0.7835
   62MOL   C11734399   5.035   4.991   2.494 -0.0378 -0.0664 -0.6155
   62MOL   C11834400   4.951   5.120   2.501 -0.0526 -0.4641 -0.3082
   62MOL   O11934401   4.811   5.088   2.509  0.4294 -0.6012  0.0994
   62MOL   C12034402   4.726   5.160   2.589 -0.6024  0.2503  0.1759
   62MOL   O12134403   4.764   5.259   2.655 -0.1460  0.1290 -0.4841
   62MOL   C12234404   4.581   5.112   2.579 -0.3681 -0.4135 -0.5567
   62MOL   C12334405   4.488   5.158   2.677 -0.8043 -0.0474  0.7989
   62MOL   C12434406   4.357   5.117   2.675 -0.1595  0.2739 -0.7755
   62MOL   C12534407   4.314   5.022   2.584 -0.6564 -0.4094 -0.2884
   62MOL   C12634408   4.169   4.975   2.576 -0.1172  0.1285  0.4373
   62MOL   O12734409   4.133   4.886   2.500 -0.3671  0.1847 -0.4546
   62MOL   C12834410   4.400   4.974   2.484  0.6092 -0.5003 -0.8136
   62MOL   C12934411   4.534   5.021   2.488 -0.0103 -0.4744 -0.0066
   62MOL   H13034412   5.209   5.199   2.573 -0.2581 -0.2944  2.6695
   62MOL   H13134413   5.352   5.133   2.502  1.3058 -2.4239  0.1465
   62MOL   H13234414   5.230   4.937   2.421 -1.2435 -0.9227  0.5114
   62MOL   H13334415   5.155   5.080   2.347 -1.6789  0.7596  1.6019
   62MOL   H13434416   4.992   4.920   2.423  0.9760 -1.0334 -0.2696
   62MOL   H13534417   5.035   4.950   2.594 -0.2986 -0.2062 -0.6740
   62MOL   H13634418   4.982   5.185   2.583  3.5822 -2.2596 -0.1668
   62MOL   H13734419   4.962   5.182   2.411 -0.2215  0.5814  0.3893
   62MOL   H13834420   4.523   5.219   2.760 -1.8684  0.5761  0.7923
   62MOL   H13934421   4.288   5.156   2.749 -0.4045 -1.7041  0.0870
   62MOL   H14034422   4.364   4.913   2.402  0.0236 -0.0550 -0.8884
   62MOL   H14134423   4.599   4.998   2.405  0.0077 -0.6525  0.0574
   62MOL   O14234424   4.088   5.044   2.661  0.6981 -0.0995 -0.1707
   62MOL   C14334425   3.948   5.022   2.675 -0.6543  0.6224 -0.1872
   62MOL   C14434426   3.884   5.137   2.758  0.2028  0.3126 -0.0555
   62MOL   C14534427   3.875   5.264   2.676  0.3738  0.1043  0.0326
   62MOL   C14634428   3.807   5.374   2.747 -0.1866  0.8404  0.0253
   62MOL   O14734429   3.844   5.379   2.883 -0.8551  0.2374 -0.1060
   62MOL   C14834430   3.947   5.455   2.917 -0.2680  0.2988 -0.4057
   62MOL   O14934431   4.015   5.524   2.842 -0.1488  0.4266  0.7854
   62MOL   C15034432   3.983   5.438   3.057  0.3107 -0.3919  0.2425
   62MOL   C15134433   4.071   5.534   3.115  0.2049 -0.1032  0.0083
   62MOL   C15234434   4.123   5.520   3.247  0.5276 -0.5695 -0.0759
   62MOL   C15334435   4.075   5.409   3.325 -0.8105  0.5964  0.0003
   62MOL   C15434436   4.133   5.388   3.463 -0.0539 -0.3787 -0.9147
   62MOL   O15534437   4.195   5.467   3.528  0.0139  0.2576 -0.8071
   62MOL   C15634438   3.988   5.310   3.262 -0.8129  0.0159 -0.2293
   62MOL   C15734439   3.942   5.326   3.131 -0.2434  0.5884 -0.1355
   62MOL   H15834440   3.905   5.027   2.575 -1.9399 -0.3640  0.3050
   62MOL   H15934441   3.921   4.922   2.708  0.1624  0.2058 -0.7623
   62MOL   H16034442   3.938   5.147   2.852  1.1539 -1.1239 -0.4261
   62MOL   H16134443   3.787   5.104   2.796 -0.7989  2.5117 -0.6288
   62MOL   H16234444   3.970   5.306   2.643 -0.1802  0.0818 -1.6662
   62MOL   H16334445   3.821   5.247   2.583 -1.7365  1.2189  1.0144
   62MOL   H16434446   3.811   5.470   2.695  0.1173  1.4802  1.2065
   62MOL   H16534447   3.699   5.358   2.746 -0.1787  0.8113 -0.4946
   62MOL   H16634448   4.104   5.618   3.056  2.9553 -2.2844 -1.6410
   62MOL   H16734449   4.196   5.593   3.278  1.8577 -1.2014 -1.6451
   62MOL   H16834450   3.955   5.227   3.323  1.0879 -0.8031 -0.2836
   62MOL   H16934451   3.882   5.251   3.082  0.4410  0.1944 -0.3686
   62MOL   O17034452   4.111   5.258   3.507  0.1080 -1.1780 -0.1430
   62MOL   C17134453   4.149   5.211   3.633 -0.2009  0.1629 -0.1166
   62MOL   C17234454   4.161   5.055   3.639 -0.1589  0.0055 -0.5522
   62MOL   C17334455   4.285   5.000   3.570  0.3929  0.0515  0.6202
   62MOL   C17434456   4.281   4.846   3.575  0.2905 -0.3014 -0.1114
   62MOL   O17534457   4.363   4.783   3.475 -0.8454 -0.2831  0.0546
   62MOL   C17634458   4.500   4.790   3.474  0.5248 -0.1076  0.1244
   62MOL   O17734459   4.568   4.837   3.564  0.2418  0.3821  0.6073
   62MOL   C17834460   4.557   4.748   3.343 -0.2552 -0.9116 -0.4172
   62MOL   C17934461   4.698   4.750   3.325 -0.4656  1.2503  0.2079
   62MOL   C18034462   4.756   4.663   3.226  0.4773 -0.5317 -0.2951
   62MOL   C18134463   4.677   4.607   3.123 -0.5186 -0.7159  0.3870
   62MOL   C18234464   4.734   4.518   3.013 -0.0841  0.5327 -0.3487
   62MOL   O18334465   4.665   4.493   2.917  0.3168  0.0675  0.4280
   62MOL   C18434466   4.537   4.622   3.130 -0.0971  0.4100  0.1040
   62MOL   C18534467   4.476   4.686   3.238 -0.5044  0.8161  0.3160
   62MOL   H18634468   4.241   5.250   3.676  0.8131  0.5445 -2.5687
   62MOL   H18734469   4.076   5.250   3.704 -1.6038  0.4251 -1.6817
   62MOL   H18834470   4.069   5.011   3.602  0.4878 -2.2863  0.4648
   62MOL   H18934471   4.165   5.026   3.744  1.4888 -1.5386 -1.0136
   62MOL   H19034472   4.268   5.035   3.468 -1.6801  2.2420  1.6628
   62MOL   H19134473   4.378   5.040   3.610 -0.6820  0.5615  2.6703
   62MOL   H19234474   4.306   4.805   3.673  0.7747  0.4560  0.0897
   62MOL   H19334475   4.180   4.807   3.566  0.0641 -0.4017  2.5034
   62MOL   H19434476   4.753   4.791   3.408 -1.3775 -0.2128  1.5592
   62MOL   H19534477   4.862   4.643   3.226 -0.0551 -3.6212 -1.6436
   62MOL   H19634478   4.479   4.580   3.049 -1.4765 -0.0189  1.2894
   62MOL   H19734479   4.368   4.692   3.233 -0.4930  0.2368 -0.7701
   62MOL   O19834480   4.853   4.463   3.044 -0.1426  0.3544 -0.4133
   62MOL   C19934481   4.933   4.383   2.958  0.0650 -0.8825 -0.1809
   62MOL   C20034482   5.038   4.450   2.870 -0.5710  0.4510 -0.5740
   62MOL   C20134483   4.984   4.540   2.754 -0.2212  0.4495  0.5339
   62MOL   C20234484   4.959   4.472   2.619  0.4070 -0.3291 -0.2179
   62MOL   O20334485   4.854   4.387   2.630 -0.3763  0.1147  0.7713
   62MOL   C20434486   4.821   4.304   2.525  0.0571 -0.3658 -0.3191
   62MOL   O20534487   4.888   4.295   2.422  0.0529  0.4828 -0.0867
   62MOL   C20634488   4.700   4.226   2.560  0.1586  0.3585  0.1433
   62MOL   C20734489   4.674   4.108   2.487 -0.8113 -0.6990 -0.1764
   62MOL   C20834490   4.552   4.040   2.505 -0.5340 -0.1826 -0.0038
   62MOL   C20934491   4.460   4.088   2.608  0.6805  0.2987  0.0992
   62MOL   C21034492   4.341   4.004   2.646  0.1593 -0.6424 -0.1022
   62MOL   O21134493   4.327   3.883   2.622 -0.2014  0.1640 -0.2238
   62MOL   C21234494   4.492   4.203   2.680  0.6682 -0.3714  0.0742
   62MOL   C21334495   4.611   4.273   2.660  0.4239  0.0051  0.5314
   62MOL   H21434496   4.993   4.315   3.018  0.1774  0.6716  1.4697
   62MOL   H21534497   4.865   4.321   2.898  0.4134  1.8118 -3.4917
   62MOL   H21634498   5.098   4.372   2.825  1.9916  1.3073  1.2518
   62MOL   H21734499   5.102   4.498   2.944  0.7102 -1.0894 -0.6490
   62MOL   H21834500   4.895   4.598   2.780 -1.0159 -0.7413  0.5375
   62MOL   H21934501   5.058   4.616   2.734  0.8376 -1.1951 -2.1347
   62MOL   H22034502   4.936   4.548   2.544  1.1553  0.9895  0.8543
   62MOL   H22134503   5.051   4.430   2.580 -0.3572 -1.0094 -1.3009
   62MOL   H22234504   4.748   4.079   2.414  0.9107 -0.6515  1.4802
   62MOL   H22334505   4.517   3.952   2.454  0.1258 -1.7620  2.2109
   62MOL   H22434506   4.421   4.254   2.744  2.1655  1.5380  0.2743
   62MOL   H22534507   4.631   4.365   2.713 -0.9742  0.8516 -0.3901
   62MOL   O22634508   4.244   4.078   2.710  0.1501  0.4771  0.1549
   62MOL   C22734509   4.133   4.012   2.756 -0.5085 -0.5272 -0.1658
   62MOL   C22834510   4.045   4.137   2.801  0.4796 -0.0404  0.0604
   62MOL   C22934511   3.990   4.225   2.684  0.0534  0.1038 -0.2116
   62MOL   C23034512   3.898   4.335   2.719 -0.1582 -0.4605  0.0923
   62MOL   O23134513   3.949   4.462   2.781 -0.0876  0.3713 -0.4261
   62MOL   C23234514   3.962   4.464   2.918  0.5331  0.8469 -0.2776
   62MOL   O23334515   3.925   4.374   2.994  0.3323  0.0866  0.1102
   62MOL   C23434516   4.013   4.594   2.973 -0.9510  0.6637  0.2248
   62MOL   C23534517   4.019   4.606   3.111  0.6997 -0.4100  0.8566
   62MOL   C23634518   4.073   4.715   3.175  0.6031  0.2798 -0.0242
   62MOL   C23734519   4.105   4.825   3.095 -0.4124 -0.3979  0.2003
   62MOL   C23834520   4.170   4.947   3.151  0.0450  0.0751 -0.0880
   62MOL   O23934521   4.202   4.966   3.265  0.4716 -0.1317  0.2628
   62MOL   C24034522   4.094   4.820   2.956 -0.0413 -0.2963 -0.4848
   62MOL   C24134523   4.063   4.700   2.894 -0.3284  0.7089 -0.0907
   62MOL   H24234524   4.092   3.944   2.681  2.9832 -0.6906 -2.0232
   62MOL   H24334525   4.149   3.942   2.837 -1.8203 -0.1882  0.3961
   62MOL   H24434526   4.090   4.198   2.879  0.1553  1.1271 -0.6659
   62MOL   H24534527   3.953   4.089   2.836  0.4358 -1.0480 -1.3844
   62MOL   H24634528   4.068   4.272   2.623  0.5345  0.2415  0.5003
   62MOL   H24734529   3.943   4.148   2.623  1.3045 -0.9910  0.1848
   62MOL   H24834530   3.854   4.377   2.628  0.4884 -1.8489 -0.8745
   62MOL   H24934531   3.821   4.288   2.780 -1.1388  1.6419  0.5311
   62MOL   H25034532   3.995   4.522   3.174 -1.6819  1.3503  2.4224
   62MOL   H25134533   4.092   4.726   3.281 -0.5135 -0.8723  0.3155
   62MOL   H25234534   4.118   4.904   2.892 -1.2498  0.1705 -0.3409
   62MOL   H25334535   4.065   4.709   2.786  1.0334 -0.7510 -0.2046
   62MOL   O25434536   4.184   5.050   3.057 -0.0983  0.7979  0.4643
   62MOL   C25534537   4.268   5.169   3.079 -0.8883 -0.1954  0.6743
   62MOL   C25634538   4.418   5.152   3.036  0.0075  0.2268 -0.2064
   62MOL   C25734539   4.506   5.084   3.137 -0.4519 -0.1211  0.4087
   62MOL   C25834540   4.631   5.021   3.073 -0.4696  0.1212  0.2468
   62MOL   O25934541   4.604   4.941   2.963 -0.4044  0.1525  0.0287
   62MOL   C26034542   4.699   4.897   2.877 -0.2641  0.4071  0.1062
   62MOL   O26134543   4.818   4.917   2.883 -0.4735  0.1714  0.3804
   62MOL   C26234544   4.639   4.808   2.767  0.0436 -0.0401  0.0498
   62MOL   C26334545   4.714   4.773   2.657 -0.4453  0.0472 -0.4968
   62MOL   C26434546   4.659   4.692   2.555 -0.2784 -0.9250 -0.0946
   62MOL   C26534547   4.521   4.650   2.560 -0.6323  0.6577 -0.0266
   62MOL   C26634548   4.471   4.556   2.451 -0.8243  0.2290  0.1412
   62MOL   O26734549   4.539   4.505   2.364  0.5061 -0.4039 -0.4162
   62MOL   C26834550   4.443   4.698   2.670  0.6516  0.3920  0.4900
   62MOL   C26934551   4.500   4.781   2.766  0.1676  0.2961 -0.2634
   62MOL   H27034552   4.226   5.252   3.021  0.0167  0.8986  1.5750
   62MOL   H27134553   4.268   5.216   3.177 -0.4497 -0.6617  0.8977
   62MOL   H27234554   4.467   5.245   3.007  0.2706 -0.9904 -3.8702
   62MOL   H27334555   4.413   5.095   2.944  3.4870 -0.4208 -0.0497
   62MOL   H27434556   4.538   5.140   3.225 -0.7764 -0.3723  0.6833
   62MOL   H27534557   4.453   5.001   3.182 -0.8634 -2.0304 -3.4062
   62MOL   H27634558   4.695   5.106   3.051  1.3183 -1.6700 -1.7764
   62MOL   H27734559   4.678   4.952   3.143  1.0919 -1.1095 -1.9147
   62MOL   H27834560   4.818   4.799   2.653 -0.7809  1.7770  1.2356
   62MOL   H27934561   4.719   4.655   2.473 -0.7559  0.1530 -0.9557
   62MOL   H28034562   4.339   4.672   2.676  0.1533  1.5625 -2.1709
   62MOL   H28134563   4.435   4.811   2.847  1.2043  1.7791  0.0263
   62MOL   O28234564   4.343   4.539   2.470  0.6248  0.3468  0.5400
   62MOL   C28334565   4.260   4.466   2.376  0.1313  0.7979 -0.2428
   62MOL   C28434566   4.186   4.555   2.277 -0.2628 -1.2267  0.0042
   62MOL   C28534567   4.093   4.476   2.182  0.0821 -0.1060 -0.6895
   62MOL   C28634568   3.966   4.407   2.247 -0.1416 -0.4187 -0.6297
   62MOL   O28734569   3.885   4.509   2.308 -0.1848 -0.9516  0.6575
   62MOL   C28834570   3.811   4.588   2.236  0.1909  0.5013  0.1331
   62MOL   O28934571   3.797   4.577   2.112 -0.0954  0.4273 -0.0512
   62MOL   C29034572   3.743   4.697   2.310  0.2110  0.2485 -0.6908
   62MOL   C29134573   3.650   4.780   2.245 -0.1408  0.2667  0.1766
   62MOL   C29234574   3.591   4.879   2.319 -0.0858 -0.0943 -0.8825
   62MOL   C29334575   3.613   4.899   2.459 -0.1686 -0.9073 -0.6342
   62MOL   C29434576   3.536   5.000   2.532 -0.2373 -0.0293 -0.0893
   62MOL   O29534577   3.587   5.061   2.630  0.2722  0.1125  0.3030
   62MOL   C29634578   3.714   4.823   2.514 -0.0633 -0.1713 -0.2629
   62MOL   C29734579   3.781   4.729   2.441 -0.1722 -0.1715 -0.3749
   62MOL   H29834580   4.315   4.382   2.333 -1.5837  0.3137 -1.5521
   62MOL   H29934581   4.181   4.420   2.435  2.4755 -1.8530  0.9328
   62MOL   H30034582   4.268   4.600   2.221 -1.0083  0.9859  0.6247
   62MOL   H30134583   4.142   4.639   2.330 -0.9616 -0.8938 -1.0892
   62MOL   H30234584   4.050   4.544   2.108  0.0488  3.9064  2.8225
   62MOL   H30334585   4.146   4.399   2.126 -0.2643 -0.0763 -1.0616
   62MOL   H30434586   3.905   4.350   2.177  2.0918 -1.6572 -1.5945
   62MOL   H30534587   3.996   4.333   2.321  2.1632  0.6547 -0.4663
   62MOL   H30634588   3.634   4.770   2.139  1.7184  1.6691 -0.2491
   62MOL   H30734589   3.532   4.951   2.265  1.9957  0.8265 -2.0004
   62MOL   H30834590   3.732   4.841   2.619  0.1968  1.1200 -0.5287
   62MOL   H30934591   3.860   4.678   2.495  0.1429  0.1528 -0.5326
   62MOL   O31034592   3.413   5.019   2.487 -0.0503  0.4563  0.1921
   62MOL   C31134593   3.322   5.103   2.558 -0.0945 -0.3995 -0.1579
   62MOL   C31234594   3.175   5.080   2.512  0.4956  0.3927 -0.5582
   62MOL   C31334595   3.058   5.152   2.576  0.0225  0.3522  0.7807
   62MOL   C31434596   3.057   5.154   2.725  0.0838  0.2801 -0.4126
   62MOL   O31534597   3.147   5.258   2.768  0.2430 -0.0330 -0.0164
   62MOL   C31634598   3.169   5.287   2.899 -0.2136  0.3605  0.2623
   62MOL   O31734599   3.096   5.237   2.986  0.0347 -0.3233  0.3769
   62MOL   C31834600   3.286   5.382   2.927 -1.0062 -0.4924 -0.6208
   62MOL   C31934601   3.305   5.430   3.058  0.5393  0.3595 -0.5545
   62MOL   C32034602   3.422   5.504   3.083  0.5615 -0.7822 -0.0414
   62MOL   C32134603   3.513   5.537   2.982  0.0521  0.1621  0.4773
   62MOL   C32234604   3.624   5.629   3.017  0.4892  0.7042  0.6167
   62MOL   O32334605   3.642   5.668   3.135 -0.2934  0.1584  0.0789
   62MOL   C32434606   3.491   5.501   2.851  0.2270 -0.0264 -0.2769
   62MOL   C32534607   3.371   5.426   2.820 -0.4440 -0.2945  0.4298
   62MOL   H32634608   3.324   5.078   2.665 -1.1183  1.1717  0.2462
   62MOL   H32734609   3.358   5.206   2.561  2.1894 -1.1806  1.0476
   62MOL   H32834610   3.157   4.973   2.523 -1.4429  0.9597  2.5024
   62MOL   H32934611   3.171   5.102   2.406 -1.2955 -0.3093 -0.6568
   62MOL   H33034612   3.064   5.257   2.548 -1.9672 -0.1920 -1.8775
   62MOL   H33134613   2.966   5.109   2.537 -1.3544  4.7534 -1.1367
   62MOL   H33234614   2.959   5.181   2.766  0.1836  0.9774 -0.6208
   62MOL   H33334615   3.092   5.056   2.757  0.5441 -0.4411 -3.0939
   62MOL   H33434616   3.234   5.402   3.135  0.9581 -1.0199 -0.6491
   62MOL   H33534617   3.431   5.549   3.180 -3.2777 -1.5686  0.7622
   62MOL   H33634618   3.549   5.534   2.766 -0.3929 -0.1895 -0.7761
   62MOL   H33734619   3.335   5.406   2.720 -0.8258  1.9191  0.1108
   62MOL   O33834620   3.690   5.683   2.917  0.2234  0.2311  0.2658
   62MOL   C33934621   3.780   5.794   2.938  0.7638 -0.5501 -0.3663
   62MOL   C34034622   3.795   5.867   2.802 -0.2566 -0.1068 -0.5925
   62MOL   C34134623   3.902   5.976   2.826  0.4798  0.0316 -0.5476
   62MOL   C34234624   3.840   6.113   2.852 -1.2795  0.0869  0.1747
   62MOL   O34334625   3.768   6.103   2.964 -0.5956  0.5181  0.3202
   62MOL   C34434626   3.822   6.160   3.072  0.0517 -0.0812 -0.1161
   62MOL   O34534627   3.933   6.214   3.073 -0.2403 -0.3704  0.3359
   62MOL   C34634628   3.736   6.142   3.191 -0.4305  0.5331  0.2479
   62MOL   C34734629   3.619   6.070   3.182 -0.5337 -0.0315 -0.1214
   62MOL   C34834630   3.545   6.048   3.297 -0.2353 -0.0539  0.0376
   62MOL   C34934631   3.583   6.100   3.422 -0.1444 -0.0866 -0.7311
   62MOL   C35034632   3.495   6.071   3.543  0.6945 -0.0559 -0.1216
   62MOL   O35134633   3.495   6.149   3.640  0.2892  0.7116 -0.2457
   62MOL   C35234634   3.701   6.175   3.430  0.3805 -0.1444 -0.6790
   62MOL   C35334635   3.781   6.197   3.316 -0.2891 -0.0200  0.7294
   62MOL   H35434636   3.732   5.869   3.001 -0.8182 -1.0599 -0.9658
   62MOL   H35534637   3.869   5.759   2.991  1.9564 -1.1894 -2.6782
   62MOL   H35634638   3.705   5.915   2.765  0.2055 -0.3261 -2.0395
   62MOL   H35734639   3.825   5.798   2.724  0.6940  0.3407 -0.6430
   62MOL   H35834640   3.979   5.958   2.901 -1.9631  0.6117  2.1599
   62MOL   H35934641   3.957   5.994   2.733  1.9980 -1.4481  0.0382
   62MOL   H36034642   3.918   6.189   2.847 -1.1578 -0.0110  0.5789
   62MOL   H36134643   3.769   6.139   2.773  0.2324 -0.5906 -1.4531
   62MOL   H36234644   3.582   6.040   3.086 -1.7505  0.6285  0.1366
   62MOL   H36334645   3.461   5.982   3.279 -0.5051  0.2711  0.0972
   62MOL   H36434646   3.725   6.214   3.528  0.5493 -2.6107  0.2807
   62MOL   H36534647   3.876   6.247   3.317 -1.4267  2.2504 -0.9983
   62MOL   O36634648   3.408   5.964   3.518 -0.6567 -0.0537 -0.0881
   62MOL   C36734649   3.309   5.938   3.609 -0.1323  0.4348 -0.3299
   62MOL   C36834650   3.214   5.827   3.562  0.6237 -0.2696 -0.2370
   62MOL   C36934651   3.275   5.703   3.505 -0.0488 -0.3388  0.4873
   62MOL   C37034652   3.356   5.621   3.610  0.5975  0.3003 -0.4124
   62MOL   O37134653   3.412   5.513   3.538 -0.2490  0.1676 -0.7681
   62MOL   C37234654   3.507   5.446   3.599  0.7104 -0.6213 -0.7878
   62MOL   O37334655   3.545   5.472   3.715 -0.3246 -0.3542 -0.0302
   62MOL   C37434656   3.565   5.343   3.510 -0.9451 -0.2816  0.1819
   62MOL   C37534657   3.532   5.323   3.373 -0.9083  0.3204 -0.1792
   62MOL   C37634658   3.599   5.225   3.293  0.2300  0.5506 -0.3416
   62MOL   C37734659   3.690   5.137   3.358  1.1151  0.8271 -0.8184
   62MOL   C37834660   3.759   5.032   3.279  0.2700  0.1168  0.2255
   62MOL   O37934661   3.830   4.943   3.328  0.4475 -0.7880 -0.2185
   62MOL   C38034662   3.717   5.151   3.493  0.3111  0.1117  0.7507
   62MOL   C38134663   3.650   5.250   3.566  0.1263 -0.2817 -0.6844
   62MOL   H38234664   3.354   5.915   3.706 -1.8513 -0.0793  0.3682
   62MOL   H38334665   3.255   6.030   3.631 -0.9664 -0.0008 -0.5170
   62MOL   H38434666   3.144   5.865   3.487  0.0535 -2.7623 -0.9990
   62MOL   H38534667   3.146   5.806   3.645 -0.6514 -1.9283 -1.6630
   62MOL   H38634668   3.199   5.646   3.452 -1.5357  0.8658  1.2798
   62MOL   H38734669   3.349   5.739   3.434 -0.3534 -2.9089 -1.1927
   62MOL   H38834670   3.434   5.678   3.660 -0.3365 -0.3477  1.8422
   62MOL   H38934671   3.281   5.588   3.681  1.1195 -0.5905 -0.2759
   62MOL   H39034672   3.459   5.397   3.343 -0.1014  1.2517  0.1147
   62MOL   H39134673   3.579   5.215   3.188  3.2540  1.0777 -1.0122
   62MOL   H39234674   3.782   5.081   3.544  1.7228  1.0218  0.2098
   62MOL   H39334675   3.698   5.266   3.661 -1.0156 -1.1132  0.0472
   62MOL   O39434676   3.736   5.049   3.146 -0.0342 -0.1936  0.4063
   62MOL   C39534677   3.780   4.947   3.057  0.6325 -0.4775 -0.0126
   62MOL   C39634678   3.649   4.871   3.018 -0.4221  0.3881 -0.5362
   62MOL   C39734679   3.534   4.953   2.968  0.1455  0.6855 -0.5036
   62MOL   C39834680   3.402   4.875   2.960  0.1621  0.4945 -0.1582
   62MOL   O39934681   3.398   4.804   2.840 -0.6242  0.3671 -0.4166
   62MOL   C40034682   3.280   4.778   2.777 -0.3286  0.6677 -0.5435
   62MOL   O40134683   3.172   4.822   2.800  0.1970 -0.3852  0.0663
   62MOL   C40234684   3.313   4.691   2.656  0.2457 -0.1354  0.0514
   62MOL   C40334685   3.229   4.691   2.540  0.3678  0.5158 -0.2829
   62MOL   C40434686   3.262   4.615   2.430  0.3259  0.0841 -0.1250
   62MOL   C40534687   3.383   4.549   2.418 -0.2357 -0.1490 -0.0633
   62MOL   C40634688   3.437   4.482   2.297 -0.1714  0.2784 -0.7988
   62MOL   O40734689   3.540   4.414   2.296 -0.0130  0.0447  0.4974
   62MOL   C40834690   3.467   4.549   2.529 -0.3218 -0.1753  0.0866
   62MOL   C40934691   3.424   4.617   2.654 -0.4178  1.3549  0.7091
   62MOL   H41034692   3.834   4.987   2.971 -1.4878  1.5995 -0.4403
   62MOL   H41134693   3.851   4.875   3.096  1.0888 -0.1084 -0.1650
   62MOL   H41234694   3.617   4.809   3.102  1.1326  2.0149  1.2807
   62MOL   H41334695   3.679   4.809   2.934  1.4805 -1.6890  1.6196
   62MOL   H41434696   3.524   5.046   3.025 -0.6650 -0.3740  1.0923
   62MOL   H41534697   3.552   5.008   2.875 -0.9959  0.5581 -0.8149
   62MOL   H41634698   3.382   4.822   3.053  1.8700 -1.6069 -0.9368
   62MOL   H41734699   3.330   4.955   2.945  1.4169  1.7921  0.6083
   62MOL   H41834700   3.136   4.747   2.546 -1.2528 -2.1298 -0.0935
   62MOL   H41934701   3.206   4.611   2.338 -0.1191  0.0817  0.1460
   62MOL   H42034702   3.559   4.492   2.534 -1.0526 -1.3900 -0.0578
   62MOL   H42134703   3.498   4.603   2.732 -0.2780 -0.4979  0.2530
   62MOL   O42234704   3.358   4.507   2.184  0.0207  0.2499 -0.3395
   62MOL   C42334705   3.403   4.459   2.060  0.1055  0.0717  0.9716
   62MOL   C42434706   3.348   4.544   1.940  0.0743  0.1497 -0.0003
   62MOL   C42534707   3.381   4.699   1.937  0.0241 -0.0302  0.3159
   62MOL   C42634708   3.355   4.776   2.063  0.0047 -0.2970 -0.0430
   62MOL   O42734709   3.228   4.754   2.124 -0.3551 -0.5144  0.1637
   62MOL   C42834710   3.153   4.852   2.171 -0.1479  0.1081  0.1720
   62MOL   O42934711   3.188   4.967   2.181  0.1427  0.3940  0.1057
   62MOL   C43034712   3.015   4.808   2.209 -0.9960  0.1222  0.4132
   62MOL   C43134713   2.925   4.907   2.268  0.3450  0.0051  0.1024
   62MOL   C43234714   2.789   4.877   2.282  0.0697  0.3277 -0.6784
   62MOL   C43334715   2.739   4.751   2.246 -0.0971  0.1370  0.2558
   62MOL   C43434716   2.598   4.713   2.259 -0.0477 -1.0178 -0.8428
   62MOL   O43534717   2.567   4.592   2.270 -0.2200 -0.3611 -0.1588
   62MOL   C43634718   2.831   4.654   2.199 -0.5633  0.1530 -0.1134
   62MOL   C43734719   2.968   4.681   2.174 -0.6551 -0.2916 -0.1852
   62MOL   H43834720   3.512   4.461   2.058  0.0863  0.4844 -0.5182
   62MOL   H43934721   3.360   4.360   2.050 -1.7598  0.9753 -0.4211
   62MOL   H44034722   3.240   4.546   1.956 -0.0037  2.2135 -0.6000
   62MOL   H44134723   3.370   4.495   1.845 -5.6586  0.5048 -1.6759
   62MOL   H44234724   3.488   4.712   1.927  0.3112 -1.6509  1.1069
   62MOL   H44334725   3.331   4.737   1.848 -1.4385  0.6347  1.3937
   62MOL   H44434726   3.428   4.749   2.140 -0.2395  2.1238  1.0905
   62MOL   H44534727   3.375   4.882   2.044 -2.3591  0.1457 -0.1479
   62MOL   H44634728   2.961   5.002   2.305  2.0451 -0.6598  0.2234
   62MOL   H44734729   2.725   4.946   2.335  1.8227  0.7353  0.9284
   62MOL   H44834730   2.798   4.555   2.170 -1.7555 -0.2499  2.4949
   62MOL   H44934731   3.035   4.603   2.141 -1.8214 -0.4948 -2.1311
   62MOL   O45034732   2.515   4.816   2.252 -0.0548  0.2030 -0.2162
   62MOL   C45134733   2.373   4.788   2.243  0.8024  0.1302 -0.0460
   62MOL   C45234734   2.307   4.905   2.163 -0.1541  0.5400 -0.2727
   62MOL   C45334735   2.155   4.873   2.143 -0.4061 -0.3522  0.3262
   62MOL   C45434736   2.099   4.992   2.066  0.3419 -0.8971  0.3525
   62MOL   O45534737   1.954   4.997   2.056  0.1970  0.0737 -0.1298
   62MOL   C45634738   1.887   5.070   1.956 -1.1214  0.2523 -0.2334
   62MOL   O45734739   1.938   5.121   1.861  0.4332  0.5353  0.5557
   62MOL   C45834740   1.745   5.091   1.985  1.0698  0.4850  0.2104
   62MOL   C45934741   1.677   5.030   2.096 -0.0877  0.2927 -0.5658
   62MOL   C46034742   1.543   5.057   2.119 -0.5866 -0.6772  0.5849
   62MOL   C46134743   1.472   5.158   2.050  0.2773 -0.0765  0.1660
   62MOL   C46234744   1.330   5.182   2.088 -0.5727 -0.3910  0.8367
   62MOL   O46334745   1.267   5.126   2.176  0.1675  0.3831 -0.1094
   62MOL   C46434746   1.541   5.228   1.951 -0.5563  0.2268  0.4630
   62MOL   C46534747   1.671   5.190   1.913  0.0616  1.0749 -0.3141
   62MOL   H46634748   2.349   4.702   2.181 -1.1875 -0.5862  1.6269
   62MOL   H46734749   2.319   4.787   2.338 -0.8675  0.2634 -0.9572
   62MOL   H46834750   2.359   4.913   2.067  0.2708  0.4682 -0.0522
   62MOL   H46934751   2.340   5.004   2.195  0.0341  1.4793 -3.2114
   62MOL   H47034752   2.138   4.772   2.106  0.2857 -1.2839  2.4879
   62MOL   H47134753   2.112   4.869   2.243 -2.3591 -0.1188 -0.4744
   62MOL   H47234754   2.131   5.082   2.117 -1.1300  0.5244 -1.1997
   62MOL   H47334755   2.146   4.997   1.967  0.1804  1.4041  0.3880
   62MOL   H47434756   1.728   4.960   2.161 -0.8322  1.0989  0.9265
   62MOL   H47534757   1.493   4.994   2.192  1.3058 -1.2612  1.4327
   62MOL   H47634758   1.494   5.297   1.883 -0.6672  0.0021  0.3090
   62MOL   H47734759   1.719   5.241   1.831  0.9042  1.2321  0.2764
   62MOL   O47834760   1.266   5.247   1.983  0.2991 -0.1512  0.0829
   62MOL   C47934761   1.122   5.262   1.973  0.2456  0.1511  0.0794
   62MOL   C48034762   1.089   5.286   1.830 -0.0377 -0.1629  0.4091
   62MOL   C48134763   0.935   5.258   1.797  0.6785  0.4409  0.1567
   62MOL   C48234764   0.881   5.297   1.656  0.0195  0.4011  0.0984
   62MOL   O48334765   0.915   5.212   1.544 -0.0721 -0.1460 -0.2399
   62MOL   C48434766   1.037   5.219   1.491 -0.7074  0.1641 -0.0085
   62MOL   O48534767   1.118   5.302   1.532 -0.4914  0.7985  0.2748
   62MOL   C48634768   1.049   5.125   1.372 -0.4656  0.2633 -0.4819
   62MOL   C48734769   1.179   5.105   1.314 -0.7514  0.7097  0.1071
   62MOL   C48834770   1.197   5.026   1.195  0.5307  0.6477 -0.4731
   62MOL   C48934771   1.087   4.956   1.137 -0.4241 -0.9348  0.6260
   62MOL   C49034772   1.115   4.876   1.016 -0.1474 -0.1244  0.0098
   62MOL   O49134773   1.227   4.839   0.980  0.1788  0.0769 -0.7073
   62MOL   C49234774   0.955   4.972   1.202 -0.7192  0.1363 -0.2148
   62MOL   C49334775   0.939   5.062   1.310  0.2472 -0.3839  0.1295
   62MOL   H49434776   1.073   5.173   2.013  1.7487  0.4239  2.6453
   62MOL   H49534777   1.083   5.341   2.036 -2.4974 -1.5531  0.5799
   62MOL   H49634778   1.149   5.222   1.764  2.6524  1.1437  1.5279
   62MOL   H49734779   1.120   5.389   1.814 -1.5847  0.5829  2.0548
   62MOL   H49834780   0.929   5.149   1.800 -1.0999  0.3435 -3.9807
   62MOL   H49934781   0.879   5.304   1.878 -0.6331  0.0008 -0.4986
   62MOL   H50034782   0.774   5.282   1.661  0.0273  0.6850  1.2183
   62MOL   H50134783   0.906   5.402   1.638  1.2271  0.2334  0.6843
   62MOL   H50234784   1.260   5.160   1.360  0.5272 -1.8374  0.9807
   62MOL   H50334785   1.292   5.004   1.149 -0.1388 -2.2343 -0.5838
   62MOL   H50434786   0.876   4.911   1.161  0.0108 -1.1341  0.2454
   62MOL   H50534787   0.843   5.070   1.358 -1.0757 -1.3160 -2.2757
   62MOL   O50634788   1.002   4.846   0.948 -0.1265  0.1962  0.0272
   62MOL   C50734789   1.009   4.769   0.829 -0.0025  0.5807 -0.8653
   62MOL   C50834790   0.860   4.749   0.782  0.1125  0.0785 -0.8390
   62MOL   C50934791   0.772   4.671   0.883  0.1002 -0.7748  0.1953
   62MOL   C51034792   0.796   4.523   0.885 -0.8441  0.6292  0.2123
   62MOL   O51134793   0.921   4.493   0.951  0.2010  0.2433  0.5480
   62MOL   C51234794   0.988   4.373   0.938 -0.0113  0.3729 -0.0800
   62MOL   O51334795   0.949   4.273   0.875 -0.2400 -0.1060  0.0781
   62MOL   C51434796   1.121   4.388   1.003 -0.0148  0.4762  0.4482
   62MOL   C51534797   1.147   4.472   1.114  0.3624 -1.0181  0.4617
   62MOL   C51634798   1.280   4.489   1.163  0.1686 -0.4337  0.4368
   62MOL   C51734799   1.384   4.408   1.108  0.2208  0.3829 -0.6036
   62MOL   C51834800   1.526   4.417   1.157  0.0678  0.2875 -0.0292
   62MOL   O51934801   1.625   4.366   1.101  0.5304 -0.5101 -0.2931
   62MOL   C52034802   1.358   4.318   1.004  0.3676  0.3748 -0.1303
   62MOL   C52134803   1.231   4.315   0.952  0.1221  0.0604 -0.1211
   62MOL   H52234804   1.055   4.828   0.750 -0.0933  1.5741 -0.1856
   62MOL   H52334805   1.066   4.677   0.842 -0.5861  0.6342  2.5021
   62MOL   H52434806   0.863   4.703   0.683  1.4561 -0.5299 -0.5267
   62MOL   H52534807   0.814   4.845   0.760 -1.7883 -0.6459 -0.0814
   62MOL   H52634808   0.784   4.709   0.984  4.2104 -2.9734  0.5936
   62MOL   H52734809   0.666   4.689   0.864  0.7598  3.6389  0.0758
   62MOL   H52834810   0.711   4.478   0.935 -0.6435  0.3482  0.2957
   62MOL   H52934811   0.791   4.498   0.779 -1.2877  0.1760  0.3392
   62MOL   H53034812   1.061   4.530   1.144  0.6032 -0.4147 -0.0177
   62MOL   H53134813   1.303   4.550   1.249  0.1404 -2.1596  1.6785
   62MOL   H53234814   1.433   4.257   0.956 -1.0199 -1.7851  0.3990
   62MOL   H53334815   1.217   4.258   0.862  2.2467  0.9680 -1.0707
   62MOL   O53434816   1.541   4.497   1.257  0.0809  0.4216  0.1733
   62MOL   C53534817   1.667   4.533   1.302 -0.0739  0.0652  0.2542
   62MOL   C53634818   1.642   4.665   1.372 -0.3027 -0.4849 -0.1719
   62MOL   C53734819   1.594   4.772   1.274 -0.1961  0.0942  0.2967
   62MOL   C53834820   1.577   4.913   1.324 -0.1331  0.6339 -1.0670
   62MOL   O53934821   1.482   4.937   1.432 -0.0905 -0.3930 -0.0886
   62MOL   C54034822   1.520   4.959   1.560 -0.4933  0.2540  0.0764
   62MOL   O54134823   1.635   4.975   1.596  0.1624  0.0223  0.1809
   62MOL   C54234824   1.405   4.948   1.659 -1.0021 -0.2427  0.2548
   62MOL   C54334825   1.435   4.906   1.790 -0.6868  0.4264  0.1729
   62MOL   C54434826   1.330   4.889   1.884  0.3081 -0.3905 -0.6764
   62MOL   C54534827   1.196   4.916   1.853  0.5572 -0.2352  0.3831
   62MOL   C54634828   1.094   4.905   1.959 -0.4505  0.3822  0.3169
   62MOL   O54734829   0.980   4.932   1.932  0.1319  0.0253 -0.1742
   62MOL   C54834830   1.163   4.941   1.714 -0.3272 -0.3970 -0.1523
   62MOL   C54934831   1.269   4.969   1.626 -0.3281  0.2107 -0.7632
   62MOL   H55034832   1.718   4.460   1.365 -0.5444 -0.4274  0.0706
   62MOL   H55134833   1.734   4.547   1.217  2.9231 -2.3347  2.1108
   62MOL   H55234834   1.734   4.706   1.414  0.9756 -3.6094  0.1963
   62MOL   H55334835   1.564   4.670   1.449 -1.5606 -0.5080 -1.4252
   62MOL   H55434836   1.660   4.777   1.187  1.7003  0.3284  1.7099
   62MOL   H55534837   1.499   4.736   1.234 -0.5688 -0.4674  1.6434
   62MOL   H55634838   1.673   4.960   1.344 -0.1265  0.0103  0.4345
   62MOL   H55734839   1.536   4.963   1.236  1.0710  3.1545 -0.2469
   62MOL   H55834840   1.535   4.878   1.819 -0.4487  1.5393  0.4461
   62MOL   H55934841   1.354   4.854   1.983  1.7812  1.8227 -0.2168
   62MOL   H56034842   1.067   4.973   1.675  0.8198  0.9160 -1.9616
   62MOL   H56134843   1.237   4.984   1.524  0.0555  0.7224 -0.8093
   62MOL   H56234844   1.127   4.860   2.052 -1.6855  1.9634  1.5539
   63MOL     O134845   1.394   6.755   3.623  0.1090  0.4748  0.2127
   63MOL     C234846   1.387   6.614   3.584 -0.5890 -0.5958  0.3256
   63MOL     C334847   1.397   6.521   3.709  0.3222 -0.3123  0.1346
   63MOL     C434848   1.372   6.381   3.672  0.3350 -0.1746 -0.8142
   63MOL     C534849   1.379   6.296   3.803 -0.0993 -0.4047  0.1114
   63MOL     O634850   1.331   6.164   3.766 -0.1294  0.2800  0.3841
   63MOL     C734851   1.322   6.079   3.869  0.0956  0.1373  0.4243
   63MOL     O834852   1.362   6.102   3.982  0.4631  0.8352  0.0991
   63MOL     C934853   1.269   5.943   3.828  0.8070  0.0462 -0.4452
   63MOL    C1034854   1.209   5.915   3.702  0.3649  0.7017  0.6131
   63MOL    C1134855   1.155   5.786   3.670 -0.0625 -0.2333 -0.4108
   63MOL    C1234856   1.161   5.681   3.759 -0.0597  0.1127 -0.3059
   63MOL    C1334857   1.102   5.546   3.723  0.5118 -0.1229 -0.1964
   63MOL    O1434858   1.077   5.450   3.804 -0.3458 -0.4406  0.6443
   63MOL    C1534859   1.213   5.710   3.886 -0.0882  0.2216  0.6872
   63MOL    C1634860   1.268   5.836   3.920 -0.1347 -0.0585 -0.2578
   63MOL    H1734861   1.295   6.592   3.529  0.7712 -1.7373 -1.5646
   63MOL    H1834862   1.464   6.581   3.515 -0.6027  0.3005 -0.1136
   63MOL    H1934863   1.315   6.559   3.769  0.5749 -1.7243  1.4092
   63MOL    H2034864   1.492   6.536   3.762  0.4275 -1.9054  0.4136
   63MOL    H2134865   1.275   6.378   3.621 -0.2951 -0.3453  0.3920
   63MOL    H2234866   1.453   6.347   3.608  1.7914 -0.0771  0.9636
   63MOL    H2334867   1.482   6.304   3.836 -0.5067  0.9102  1.0838
   63MOL    H2434868   1.324   6.350   3.879  1.4360 -1.0442  1.7127
   63MOL    H2534869   1.195   5.994   3.630  0.8981 -1.8914 -2.4379
   63MOL    H2634870   1.118   5.764   3.571  2.4511  1.8937 -1.8906
   63MOL    H2734871   1.201   5.630   3.957  0.4378 -0.4312  0.0500
   63MOL    H2834872   1.313   5.858   4.015  1.9293  2.1093 -1.6599
   63MOL    H2934873   1.307   6.777   3.655  0.5726  3.3503 -0.3493
   63MOL    O3034874   1.067   5.545   3.594  0.1786 -0.3302  0.7033
   63MOL    C3134875   1.005   5.428   3.535 -0.0292 -0.4363 -0.0707
   63MOL    C3234876   0.869   5.401   3.599  0.1013 -0.1292  0.0126
   63MOL    C3334877   0.774   5.523   3.603 -0.9714  0.0532  0.9879
   63MOL    C3434878   0.637   5.483   3.652  0.1647  0.3143  0.0389
   63MOL    O3534879   0.643   5.395   3.764  0.3223 -1.0543  0.1208
   63MOL    C3634880   0.604   5.263   3.750 -0.2958 -0.1621 -0.0752
   63MOL    O3734881   0.592   5.209   3.638 -0.7867  0.1827 -0.1668
   63MOL    C3834882   0.580   5.206   3.880  0.5139 -0.1121  0.3170
   63MOL    C3934883   0.580   5.278   4.004 -0.4123  0.3058  0.1239
   63MOL    C4034884   0.574   5.204   4.124  0.0070  0.3393 -0.5450
   63MOL    C4134885   0.562   5.064   4.120 -0.2082 -0.5579 -0.1891
   63MOL    C4234886   0.555   4.993   4.250  0.2213 -0.2014  0.3516
   63MOL    O4334887   0.554   5.051   4.357 -0.3419 -0.9861  0.1922
   63MOL    C4434888   0.561   4.996   3.998 -0.2531 -0.4004  0.2306
   63MOL    C4534889   0.565   5.064   3.876 -0.6478  0.0187 -0.9352
   63MOL    H4634890   0.994   5.441   3.427  1.5383 -1.6257 -0.3951
   63MOL    H4734891   1.068   5.340   3.535 -0.7513 -0.9884 -1.8473
   63MOL    H4834892   0.876   5.359   3.699  1.1957  1.1435  0.4882
   63MOL    H4934893   0.816   5.325   3.542  1.1074 -0.4901 -0.4434
   63MOL    H5034894   0.808   5.602   3.670  1.6369 -1.4531  1.5002
   63MOL    H5134895   0.762   5.582   3.511 -0.7093 -1.2776  0.0879
   63MOL    H5234896   0.589   5.577   3.677 -2.0001 -0.5521 -0.7065
   63MOL    H5334897   0.576   5.443   3.571 -0.2057  0.6214  0.1680
   63MOL    H5434898   0.581   5.386   4.006 -0.1500  0.2944  0.6516
   63MOL    H5534899   0.581   5.251   4.222 -1.8456 -0.3228 -0.0700
   63MOL    H5634900   0.548   4.889   3.991 -1.4864 -0.3025  0.9055
   63MOL    H5734901   0.560   5.004   3.787 -3.0504 -0.5606 -0.4468
   63MOL    O5834902   0.555   4.851   4.233 -0.4245  0.2065  0.3376
   63MOL    C5934903   0.531   4.767   4.338  0.0040 -0.0819  0.0005
   63MOL    C6034904   0.545   4.618   4.292  0.3389  0.1728 -0.7643
   63MOL    C6134905   0.435   4.576   4.198  0.4847 -0.2924 -0.1920
   63MOL    C6234906   0.437   4.429   4.159 -0.0900  0.3650  0.2570
   63MOL    O6334907   0.527   4.412   4.057  0.0348 -0.2120 -0.0290
   63MOL    C6434908   0.627   4.327   4.061  0.2771 -0.3317  0.3311
   63MOL    O6534909   0.677   4.284   4.159 -0.1300  0.1647 -0.2382
   63MOL    C6634910   0.675   4.299   3.922 -0.2730 -0.6012 -0.2611
   63MOL    C6734911   0.599   4.346   3.810 -0.0852 -0.0568  1.0693
   63MOL    C6834912   0.646   4.308   3.686  0.2802  0.2928  0.0480
   63MOL    C6934913   0.768   4.229   3.660 -0.1056  0.1357  0.4805
   63MOL    C7034914   0.813   4.174   3.527  0.4892 -0.3977  1.0183
   63MOL    O7134915   0.910   4.099   3.507 -0.0792  0.5648 -0.5260
   63MOL    C7234916   0.845   4.200   3.773 -0.6455 -0.1317  1.2583
   63MOL    C7334917   0.801   4.233   3.907 -0.1381  1.2561 -0.1882
   63MOL    H7434918   0.607   4.787   4.413  0.4282 -2.2577  0.1713
   63MOL    H7534919   0.434   4.794   4.379 -0.0329  0.4831 -0.4348
   63MOL    H7634920   0.538   4.559   4.383  2.9777  0.6366 -0.2443
   63MOL    H7734921   0.645   4.602   4.253  0.3405 -0.5284 -0.4753
   63MOL    H7834922   0.341   4.600   4.248  1.0564 -2.5510  2.0686
   63MOL    H7934923   0.425   4.633   4.106 -2.1567  0.3243  0.4296
   63MOL    H8034924   0.450   4.366   4.246 -1.3071  0.6094  0.6253
   63MOL    H8134925   0.343   4.396   4.115  0.6521 -0.6589 -0.5594
   63MOL    H8234926   0.508   4.403   3.825 -0.9438 -0.6249 -1.7765
   63MOL    H8334927   0.602   4.341   3.593  0.7349  0.0014 -0.2755
   63MOL    H8434928   0.941   4.150   3.765 -0.2785  0.8228 -0.4409
   63MOL    H8534929   0.859   4.201   3.993 -1.1104  1.3942  0.5191
   63MOL    O8634930   0.729   4.211   3.427  0.4858 -0.8258 -0.1428
   63MOL    C8734931   0.748   4.162   3.299  0.2447 -0.0870 -0.5785
   63MOL    C8834932   0.640   4.067   3.267 -0.1922 -0.0729 -0.4114
   63MOL    C8934933   0.517   4.132   3.209  0.2919 -0.1082 -0.1273
   63MOL    C9034934   0.408   4.022   3.174 -0.6272 -0.3369 -0.1468
   63MOL    O9134935   0.289   4.075   3.128  0.0177 -0.1921  0.3548
   63MOL    C9234936   0.276   4.142   3.015  0.7031 -0.0530 -0.2637
   63MOL    O9334937   0.375   4.162   2.943 -0.2669  0.5396  0.3640
   63MOL    C9434938   0.138   4.172   2.974  0.0220  0.6855  0.4137
   63MOL    C9534939   0.026   4.153   3.054 -0.4072 -0.6805 -0.2889
   63MOL    C9634940   8.001   4.154   3.002  0.5004  0.2171  0.0671
   63MOL    C9734941   7.975   4.206   2.876  0.2227 -0.9802 -0.1178
   63MOL    C9834942   7.842   4.191   2.813  0.1551 -0.2057 -0.3052
   63MOL    O9934943   7.737   4.159   2.863 -0.0997 -0.8750  0.2205
   63MOL   C10034944   8.082   4.250   2.799 -0.9528 -0.3443  0.0316
   63MOL   C10134945   0.116   4.225   2.841 -0.0837 -0.0844 -0.9008
   63MOL   H10234946   0.746   4.237   3.221 -1.4018 -0.6566 -1.1127
   63MOL   H10334947   0.842   4.113   3.274 -0.2377 -0.0689 -2.4634
   63MOL   H10434948   0.598   4.020   3.356 -0.7059  0.6265 -0.2782
   63MOL   H10534949   0.665   3.992   3.192 -2.4038 -1.0892 -0.1593
   63MOL   H10634950   0.479   4.209   3.275  0.1144  0.6503 -1.1037
   63MOL   H10734951   0.553   4.189   3.123  0.8522 -1.0315 -0.5213
   63MOL   H10834952   0.455   3.960   3.099 -1.7523 -0.8124 -0.4644
   63MOL   H10934953   0.389   3.957   3.259  0.7773 -3.1534 -1.9387
   63MOL   H11034954   0.036   4.118   3.156 -0.4111 -0.2718 -0.1496
   63MOL   H11134955   7.913   4.124   3.057  0.9713  2.5596  2.1481
   63MOL   H11234956   8.073   4.283   2.697 -0.5195 -0.5440 -0.0750
   63MOL   H11334957   0.194   4.259   2.774 -1.3551  2.9575 -0.9219
   63MOL   O11434958   7.853   4.191   2.679 -0.5600 -0.1081  0.1346
   63MOL   C11534959   7.746   4.152   2.604 -0.4885  0.6430 -0.1775
   63MOL   C11634960   7.799   4.140   2.459  0.2226 -0.1125  0.3646
   63MOL   C11734961   7.890   4.019   2.455 -0.3489 -0.1147  0.9297
   63MOL   C11834962   7.918   3.975   2.318 -0.4570  0.1489 -0.2117
   63MOL   O11934963   7.998   3.863   2.312  0.0946 -0.6337 -0.4600
   63MOL   C12034964   8.020   3.803   2.194 -0.3097  0.3041  0.9226
   63MOL   O12134965   7.976   3.839   2.085  0.1730 -0.5234  0.1911
   63MOL   C12234966   0.023   3.695   2.208 -0.1436  0.3838  0.2122
   63MOL   C12334967   0.118   3.681   2.314 -0.0996  0.5671  0.0134
   63MOL   C12434968   0.218   3.578   2.310  0.1232 -0.1941 -0.0927
   63MOL   C12534969   0.223   3.477   2.210 -0.3071 -0.0171 -0.3377
   63MOL   C12634970   0.301   3.353   2.232  0.0464  0.6183  0.4588
   63MOL   O12734971   0.384   3.341   2.322 -0.4485 -0.1873 -0.7517
   63MOL   C12834972   0.122   3.491   2.108 -0.1891  0.1866  0.6464
   63MOL   C12934973   0.027   3.594   2.106 -0.0850  0.1584 -0.1585
   63MOL   H13034974   7.709   4.056   2.639  3.2282 -1.8679 -2.8194
   63MOL   H13134975   7.670   4.230   2.601 -2.2706 -1.0651 -0.8442
   63MOL   H13234976   7.837   4.231   2.413 -1.0726 -0.0740 -0.6682
   63MOL   H13334977   7.705   4.119   2.408  1.2436 -1.7861 -0.8369
   63MOL   H13434978   7.983   4.061   2.496  1.3111 -2.9138  0.1564
   63MOL   H13534979   7.860   3.940   2.523  1.1540 -1.7452 -0.2551
   63MOL   H13634980   7.819   3.943   2.285 -0.7785  0.8692  0.0401
   63MOL   H13734981   7.955   4.042   2.241  0.2489  0.0963  0.0836
   63MOL   H13834982   0.116   3.745   2.401  0.6677  1.0285 -0.3124
   63MOL   H13934983   0.292   3.569   2.388 -2.1579 -1.4798  1.9776
   63MOL   H14034984   0.114   3.420   2.027 -2.0755 -0.4071  1.3085
   63MOL   H14134985   8.056   3.607   2.024 -0.3394 -2.0266 -0.3083
   63MOL   O14234986   0.284   3.258   2.141 -0.0926  0.0991  0.1348
   63MOL   C14334987   0.352   3.134   2.157  0.8547  0.3763  0.2775
   63MOL   C14434988   0.246   3.030   2.138 -0.4772  0.0414  0.1145
   63MOL   C14534989   0.151   3.011   2.257 -0.5427 -0.2486  0.4119
   63MOL   C14634990   0.009   2.961   2.223  0.6967 -0.6675 -0.6295
   63MOL   O14734991   8.048   3.055   2.132 -0.2210 -0.2576 -0.1884
   63MOL   C14834992   7.945   3.016   2.052  0.4670 -0.0441  0.2958
   63MOL   O14934993   7.901   2.898   2.053 -0.4131  0.0740  0.3812
   63MOL   C15034994   7.879   3.126   1.971 -0.3264 -0.6661 -0.0351
   63MOL   C15134995   7.791   3.095   1.867  0.0461 -0.3563 -0.4009
   63MOL   C15234996   7.743   3.199   1.782  0.8751 -0.0931 -0.8740
   63MOL   C15334997   7.781   3.331   1.803 -0.8015 -0.6255 -0.5521
   63MOL   C15434998   7.721   3.439   1.717  0.6765  0.1019  0.3530
   63MOL   O15534999   7.685   3.411   1.601 -0.2564 -0.0466 -0.7444
   63MOL   C15635000   7.872   3.363   1.905 -0.8334 -0.4877 -0.6133
   63MOL   C15735001   7.916   3.262   1.991 -0.2976  0.1749 -0.7107
   63MOL   H15835002   0.416   3.118   2.070  0.5088 -0.4821  0.1719
   63MOL   H15935003   0.401   3.120   2.254  0.4212  1.2655  0.6342
   63MOL   H16035004   0.290   2.931   2.123 -0.1799  0.1462  0.2876
   63MOL   H16135005   0.192   3.047   2.045 -0.2924 -0.4158 -0.0798
   63MOL   H16235006   0.180   2.940   2.335 -0.3043 -1.5268 -0.8346
   63MOL   H16335007   0.137   3.108   2.305  1.5827 -0.2859  1.1477
   63MOL   H16435008   0.013   2.863   2.177 -3.9732 -0.9198 -0.7284
   63MOL   H16535009   8.058   2.942   2.319  2.1005 -2.2956 -0.2056
   63MOL   H16635010   7.768   2.991   1.851  1.9488 -1.3174  2.6893
   63MOL   H16735011   7.671   3.173   1.706 -0.6772  1.2702  0.1104
   63MOL   H16835012   7.908   3.462   1.928 -0.9091 -0.7469  0.6886
   63MOL   H16935013   7.987   3.289   2.068  1.3917 -0.3664 -2.0440
   63MOL   O17035014   7.704   3.555   1.780  0.5611  0.2088  0.1943
   63MOL   C17135015   7.649   3.668   1.716 -0.1709 -0.1139  0.2878
   63MOL   C17235016   7.759   3.761   1.662  0.3816  0.3655 -0.8529
   63MOL   C17335017   7.857   3.812   1.766  0.2052  0.1699 -0.3715
   63MOL   C17435018   7.970   3.893   1.706 -0.0832 -0.1943  0.1313
   63MOL   O17535019   8.032   3.964   1.813 -0.0719 -0.2632 -0.0190
   63MOL   C17635020   0.041   4.038   1.785 -0.0064  0.1139 -0.2420
   63MOL   O17735021   0.086   4.048   1.669  0.1171 -0.5140 -0.2343
   63MOL   C17835022   0.107   4.107   1.902 -0.5941 -0.0425  0.5929
   63MOL   C17935023   0.038   4.128   2.020  0.1800 -0.5118 -0.6251
   63MOL   C18035024   0.107   4.183   2.132  0.5447 -0.3182 -0.9557
   63MOL   C18135025   0.235   4.238   2.115  0.2790  0.7132 -0.2570
   63MOL   C18235026   0.310   4.293   2.226  0.0037  0.5642  1.0722
   63MOL   O18335027   0.430   4.313   2.224 -0.4327 -0.2826  0.4928
   63MOL   C18435028   0.292   4.234   1.989 -0.2889 -0.8015 -0.1859
   63MOL   C18535029   0.233   4.166   1.884 -0.4064 -0.6845 -0.2317
   63MOL   H18635030   7.576   3.634   1.642 -0.5002 -0.1633  0.6342
   63MOL   H18735031   7.591   3.731   1.783 -0.0396  0.7145 -0.3667
   63MOL   H18835032   7.698   3.842   1.623 -2.0244 -0.7665  0.4323
   63MOL   H18935033   7.813   3.704   1.586  0.9179 -1.6271  0.9490
   63MOL   H19035034   7.799   3.882   1.827 -2.5206 -1.0531 -1.4374
   63MOL   H19135035   7.890   3.734   1.834 -0.3531  0.7007  0.5183
   63MOL   H19235036   8.031   3.826   1.646 -0.5512 -1.3171  0.8823
   63MOL   H19335037   7.914   3.970   1.654 -1.4910 -1.7776 -0.7271
   63MOL   H19435038   8.040   4.082   2.035 -0.3437  0.1296 -1.9955
   63MOL   H19535039   0.063   4.183   2.230 -1.2948 -0.8885 -1.7673
   63MOL   H19635040   0.391   4.271   1.968 -0.6928  1.6520  1.9215
   63MOL   H19735041   0.289   4.151   1.793  1.9198 -1.2740  1.2364
   63MOL   O19835042   0.230   4.310   2.329 -0.2836  0.5317  0.0431
   63MOL   C19935043   0.272   4.372   2.452 -0.4141 -0.0183 -0.6474
   63MOL   C20035044   0.362   4.283   2.549 -0.2669 -0.6571  0.0530
   63MOL   C20135045   0.420   4.359   2.666 -0.1322 -0.8032 -0.2195
   63MOL   C20235046   0.518   4.477   2.624 -0.0610 -0.8761  0.2615
   63MOL   O20335047   0.622   4.420   2.542  0.3274 -0.4986 -0.3563
   63MOL   C20435048   0.734   4.357   2.593 -0.0348  0.3251  0.4990
   63MOL   O20535049   0.748   4.355   2.714 -0.1486 -0.8423 -1.3282
   63MOL   C20635050   0.833   4.311   2.495  0.0381 -0.4398 -0.1088
   63MOL   C20735051   0.941   4.226   2.537  0.1373 -0.6122  0.8466
   63MOL   C20835052   1.032   4.166   2.444 -0.3296 -0.5727 -0.5287
   63MOL   C20935053   1.021   4.201   2.306 -0.1320  0.4091 -0.1056
   63MOL   C21035054   1.115   4.140   2.206 -0.3886  0.3000 -0.4028
   63MOL   O21135055   1.210   4.073   2.238 -0.2951 -0.4013  0.3916
   63MOL   C21235056   0.908   4.283   2.269 -0.0873 -0.2130 -0.2845
   63MOL   C21335057   0.813   4.333   2.359 -0.5513 -0.0682  0.4296
   63MOL   H21435058   0.335   4.454   2.419  0.9629 -1.4853 -1.7126
   63MOL   H21535059   0.183   4.404   2.507 -0.5156  2.7130 -2.3193
   63MOL   H21635060   0.443   4.238   2.493  0.8533  1.1058  0.2108
   63MOL   H21735061   0.305   4.209   2.604 -1.6444  1.2113  1.2237
   63MOL   H21835062   0.348   4.420   2.720 -2.5040 -0.9432 -3.0954
   63MOL   H21935063   0.475   4.290   2.729  1.4957 -0.7887 -1.5790
   63MOL   H22035064   0.478   4.550   2.554  1.3862  0.5307  0.8587
   63MOL   H22135065   0.560   4.526   2.712 -1.1727 -2.7321  1.8571
   63MOL   H22235066   0.950   4.212   2.644 -0.5892  0.6877  1.0919
   63MOL   H22335067   1.113   4.103   2.479 -0.7923 -1.8604 -1.7555
   63MOL   H22435068   0.883   4.302   2.165 -0.7981 -0.5938 -0.1831
   63MOL   H22535069   0.729   4.390   2.322 -1.6035  1.3500  4.7457
   63MOL   O22635070   1.080   4.165   2.085  0.1483  0.1907  0.4585
   63MOL   C22735071   1.137   4.083   1.983 -0.0538 -0.0071 -0.0001
   63MOL   C22835072   1.054   3.956   1.949 -0.7214  0.1818  0.1290
   63MOL   C22935073   1.106   3.896   1.813  0.0318  0.4124 -0.1622
   63MOL   C23035074   1.024   3.772   1.767 -0.7237  0.5833  0.3150
   63MOL   O23135075   1.034   3.663   1.854  0.7645 -0.0267  0.0326
   63MOL   C23235076   1.061   3.544   1.800  0.0686 -0.5047 -0.0601
   63MOL   O23335077   1.030   3.512   1.688  0.0273  0.8789  0.1138
   63MOL   C23435078   1.128   3.452   1.897 -0.0889  0.2707 -0.3723
   63MOL   C23535079   1.155   3.489   2.026  0.0606  0.1103  0.4611
   63MOL   C23635080   1.220   3.407   2.123  0.1001  0.0936 -0.4759
   63MOL   C23735081   1.265   3.282   2.076 -0.2426 -0.3347  0.1043
   63MOL   C23835082   1.337   3.193   2.168 -0.2413  0.0700  0.3058
   63MOL   O23935083   1.360   3.224   2.283 -0.1502 -0.4744  0.0870
   63MOL   C24035084   1.259   3.250   1.937  0.3212 -0.4300 -0.4449
   63MOL   C24135085   1.176   3.326   1.857 -0.1230 -0.2772 -0.2196
   63MOL   H24235086   1.140   4.153   1.899  3.2680 -1.6701 -1.3615
   63MOL   H24335087   1.241   4.057   2.007  0.8095  1.9830 -1.4545
   63MOL   H24435088   0.950   3.976   1.925 -0.9765 -0.1519  0.9758
   63MOL   H24535089   1.053   3.890   2.035 -0.2783  1.7406  1.3492
   63MOL   H24635090   1.078   3.964   1.733 -0.8381 -1.1139 -1.2000
   63MOL   H24735091   1.209   3.869   1.833 -0.4476 -0.4480  1.2362
   63MOL   H24835092   0.924   3.814   1.756 -0.6084  0.6329 -0.5736
   63MOL   H24935093   1.066   3.745   1.671 -3.1507 -0.8890 -0.3872
   63MOL   H25035094   1.135   3.592   2.051 -0.1222  0.7809 -2.2602
   63MOL   H25135095   1.251   3.440   2.221 -0.3998  1.8253 -0.8807
   63MOL   H25235096   1.307   3.163   1.894 -0.2010 -0.4304 -1.0372
   63MOL   H25335097   1.167   3.303   1.752 -0.6786 -1.3806  0.0576
   63MOL   O25435098   1.371   3.083   2.113  0.1805  0.2536  0.6060
   63MOL   C25535099   1.442   2.986   2.185 -0.0825 -0.0314  0.8520
   63MOL   C25635100   1.423   2.853   2.106 -0.3573 -0.2889 -0.4200
   63MOL   C25735101   1.279   2.808   2.117  0.6471 -0.0349  0.1474
   63MOL   C25835102   1.239   2.704   2.011 -0.3958 -0.8908 -0.1625
   63MOL   O25935103   1.332   2.597   2.023 -0.5124 -0.3955  0.4496
   63MOL   C26035104   1.425   2.574   1.931  0.1772 -0.5467 -0.4369
   63MOL   O26135105   1.449   2.652   1.842 -0.0179 -0.9043 -0.0686
   63MOL   C26235106   1.494   2.446   1.948  0.3647  0.8585  0.5378
   63MOL   C26335107   1.472   2.364   2.061  0.7427 -0.1443 -0.4767
   63MOL   C26435108   1.528   2.234   2.071 -0.3443  0.1346  0.2540
   63MOL   C26535109   1.619   2.195   1.968  0.1854  0.5322  0.5883
   63MOL   C26635110   1.675   2.051   1.969  0.4360  0.3240 -0.4247
   63MOL   O26735111   1.753   2.004   1.889  0.6199 -0.1117  0.3467
   63MOL   C26835112   1.645   2.281   1.853 -0.5192  0.5094 -0.3958
   63MOL   C26935113   1.582   2.403   1.849 -0.1401  0.1034 -0.1481
   63MOL   H27035114   1.546   3.010   2.208  0.0811  1.2994 -1.1176
   63MOL   H27135115   1.397   2.965   2.282 -1.1495  0.6912  0.5165
   63MOL   H27235116   1.488   2.776   2.147 -0.1229  0.2204  0.1856
   63MOL   H27335117   1.443   2.874   2.001  1.6093  0.9721  0.1660
   63MOL   H27435118   1.270   2.770   2.219 -0.1380  3.0661  1.2839
   63MOL   H27535119   1.204   2.886   2.106 -1.4140 -2.1450 -1.1935
   63MOL   H27635120   1.145   2.649   2.017 -1.4057  0.6694 -1.4324
   63MOL   H27735121   1.254   2.749   1.913  1.2923 -0.6482  0.1953
   63MOL   H27835122   1.407   2.402   2.139  0.5212 -2.7511  0.6575
   63MOL   H27935123   1.505   2.159   2.144  1.0125 -0.7023 -0.1686
   63MOL   H28035124   1.710   2.251   1.773  1.1375  1.6148  0.5029
   63MOL   H28135125   1.611   2.454   1.758  0.5148  1.1043  0.6236
   63MOL   O28235126   1.624   1.978   2.069  0.1556 -0.0252 -0.1451
   63MOL   C28335127   1.651   1.839   2.065  0.2053  0.2143  0.6445
   63MOL   C28435128   1.619   1.771   2.191 -0.0190 -0.2115  0.8227
   63MOL   C28535129   1.475   1.802   2.250  0.3821 -0.1761 -0.1548
   63MOL   C28635130   1.482   1.934   2.329  0.0964  0.1737  0.2578
   63MOL   O28735131   1.356   1.974   2.380 -0.1508  0.4856 -0.2000
   63MOL   C28835132   1.312   1.923   2.495 -0.5232  0.1360 -0.5929
   63MOL   O28935133   1.368   1.832   2.553 -0.1923 -0.3685  0.0880
   63MOL   C29035134   1.182   1.978   2.548  0.5602  0.3346  0.3204
   63MOL   C29135135   1.113   2.083   2.486 -0.0936 -0.5044 -0.6033
   63MOL   C29235136   0.985   2.125   2.532  0.3234  0.0305 -0.6818
   63MOL   C29335137   0.933   2.072   2.650  0.9652  0.0045 -0.4325
   63MOL   C29435138   0.805   2.119   2.714  0.1612 -0.0705  0.5110
   63MOL   O29535139   0.771   2.231   2.709  0.1390  0.4170  0.1298
   63MOL   C29635140   1.003   1.966   2.711 -0.3130 -0.0783 -0.4936
   63MOL   C29735141   1.121   1.918   2.661  0.6826  0.1548  0.4480
   63MOL   H29835142   1.592   1.809   1.978  1.9712  0.1153 -0.5499
   63MOL   H29935143   1.758   1.828   2.045 -0.3492 -0.2884 -2.2491
   63MOL   H30035144   1.692   1.816   2.258 -0.5026 -0.6230  1.6364
   63MOL   H30135145   1.632   1.662   2.190  2.3792  0.0248  1.9339
   63MOL   H30235146   1.410   1.792   2.163 -0.7432 -4.1008  1.0688
   63MOL   H30335147   1.442   1.720   2.313  0.9177 -0.1822  0.1251
   63MOL   H30435148   1.547   1.912   2.414 -0.2917 -1.3762  0.1817
   63MOL   H30535149   1.523   2.012   2.266  0.5931  1.2042  1.8139
   63MOL   H30635150   1.171   2.126   2.406  2.8280 -0.1979  1.6085
   63MOL   H30735151   0.936   2.199   2.469 -0.5876 -0.8999 -1.0799
   63MOL   H30835152   0.949   1.912   2.787 -0.5932 -0.1545 -0.7424
   63MOL   H30935153   1.158   1.822   2.694  2.7465  0.5586 -0.5715
   63MOL   O31035154   0.730   2.015   2.775 -0.2684  0.3404  0.2141
   63MOL   C31135155   0.611   2.048   2.846 -0.2561 -0.1645 -0.2070
   63MOL   C31235156   0.537   1.920   2.884 -0.5787  0.5750 -0.4873
   63MOL   C31335157   0.429   1.920   2.987  0.3428 -0.4240 -0.5905
   63MOL   C31435158   0.358   1.785   2.994 -0.6330  0.0991  0.2379
   63MOL   O31535159   0.431   1.710   3.093  0.6098  0.6222  0.0453
   63MOL   C31635160   0.361   1.615   3.158  0.1677  0.1976  0.4902
   63MOL   O31735161   0.255   1.576   3.119 -0.2081  0.1685 -0.3340
   63MOL   C31835162   0.441   1.553   3.269  0.1188 -0.4340  0.5386
   63MOL   C31935163   0.563   1.613   3.311 -0.1731 -0.1492  0.0394
   63MOL   C32035164   0.639   1.552   3.414 -0.2059  0.6650 -0.7984
   63MOL   C32135165   0.594   1.427   3.464 -0.5386 -0.4686 -0.0476
   63MOL   C32235166   0.678   1.355   3.567 -0.0903 -0.3160 -0.2087
   63MOL   O32335167   0.635   1.271   3.643  0.1634  0.1636 -0.0376
   63MOL   C32435168   0.471   1.375   3.428 -0.2124  0.4906 -0.2562
   63MOL   C32535169   0.393   1.432   3.331  0.5116  0.3573  0.6114
   63MOL   H32635170   0.634   2.102   2.938 -1.2413  0.0973 -0.1000
   63MOL   H32735171   0.567   2.126   2.784  0.9862  1.2501  0.6720
   63MOL   H32835172   0.617   1.853   2.916 -0.5274  1.0172  0.3287
   63MOL   H32935173   0.498   1.872   2.794 -0.0346 -4.1705  1.6326
   63MOL   H33035174   0.469   1.942   3.086  1.7156  0.0818 -1.2400
   63MOL   H33135175   0.365   1.998   2.944  2.1812  1.8506  0.6513
   63MOL   H33235176   0.255   1.806   3.022 -0.5718 -2.0180  2.2311
   63MOL   H33335177   0.355   1.742   2.894 -0.6982  0.8292 -0.0811
   63MOL   H33435178   0.605   1.706   3.276  0.3600 -0.0967  0.7974
   63MOL   H33535179   0.731   1.600   3.444 -0.3336  1.8042 -2.1580
   63MOL   H33635180   0.449   1.280   3.474  0.9940  1.0730  1.5987
   63MOL   H33735181   0.304   1.383   3.295  1.3950 -0.6293 -0.2799
   63MOL   O33835182   0.813   1.394   3.567  0.3088 -0.2097 -0.0705
   63MOL   C33935183   0.912   1.357   3.664 -0.3626 -0.4482 -0.4881
   63MOL   C34035184   1.001   1.471   3.729  0.1827  0.1547  0.0911
   63MOL   C34135185   0.931   1.581   3.810 -0.1905 -0.1453  0.1690
   63MOL   C34235186   0.993   1.715   3.786  0.3193 -0.6534  0.3721
   63MOL   O34335187   1.137   1.716   3.813  0.0868 -0.0232  0.5113
   63MOL   C34435188   1.170   1.756   3.941 -0.2713  0.1549  0.2137
   63MOL   O34535189   1.087   1.767   4.034  0.3955  0.2420 -0.4143
   63MOL   C34635190   1.311   1.781   3.964  0.6107  0.3199 -0.1762
   63MOL   C34735191   1.401   1.783   3.852  0.2508 -0.0750 -0.0246
   63MOL   C34835192   1.541   1.791   3.880  0.1186 -0.0612 -0.2197
   63MOL   C34935193   1.596   1.810   4.010  0.6952  0.3672 -0.0008
   63MOL   C35035194   1.740   1.807   4.025  0.2475  0.1849 -0.0722
   63MOL   O35135195   1.813   1.745   3.944  0.4778  0.3043  0.1868
   63MOL   C35235196   1.502   1.808   4.117  1.1697  0.0717 -0.6070
   63MOL   C35335197   1.360   1.800   4.097 -0.4915 -0.6532 -0.5060
   63MOL   H35435198   0.868   1.318   3.756  2.3248 -0.4759  0.8403
   63MOL   H35535199   0.986   1.289   3.622  2.7371  1.4187  1.8036
   63MOL   H35635200   1.052   1.519   3.646 -0.2116 -0.0830 -0.2916
   63MOL   H35735201   1.076   1.425   3.792 -2.8547 -0.8107  3.1498
   63MOL   H35835202   0.828   1.592   3.776  0.0285  0.3414 -0.3526
   63MOL   H35935203   0.931   1.552   3.915 -1.8183  0.5665  0.3837
   63MOL   H36035204   0.980   1.730   3.679  1.9502 -1.3851  0.0631
   63MOL   H36135205   0.942   1.796   3.838 -0.5462 -2.9677  3.2783
   63MOL   H36235206   1.366   1.786   3.750 -0.7133  0.2577  0.3018
   63MOL   H36335207   1.599   1.789   3.789 -0.9210 -1.8589 -0.8631
   63MOL   H36435208   1.548   1.829   4.212  1.4057  1.5742 -1.0410
   63MOL   H36535209   1.300   1.806   4.186 -0.7223 -1.0309 -0.6319
   63MOL   O36635210   1.788   1.872   4.137 -0.1072  0.8381  0.1516
   63MOL   C36735211   1.931   1.894   4.143  1.1301 -0.6369  0.7287
   63MOL   C36835212   1.994   1.787   4.233  0.5943  0.6845 -1.0622
   63MOL   C36935213   1.983   1.810   4.392 -0.6531  0.1227  0.1847
   63MOL   C37035214   1.836   1.804   4.439 -0.3580  0.0366  0.2688
   63MOL   O37135215   1.849   1.828   4.579 -0.5515  0.3217  0.4423
   63MOL   C37235216   1.751   1.878   4.653  0.8205  0.5232 -0.2674
   63MOL   O37335217   1.640   1.892   4.608 -0.2772  0.5497  0.1055
   63MOL   C37435218   1.796   1.921   4.787  0.0527  0.9705  0.6337
   63MOL   C37535219   1.721   2.018   4.852  0.4572 -0.8353 -0.1449
   63MOL   C37635220   1.751   2.049   4.987 -0.5032 -0.1743 -0.5643
   63MOL   C37735221   1.873   1.998   5.042  0.0860 -0.1064  0.3728
   63MOL   C37835222   1.920   2.037   5.179 -0.3269 -0.5893 -0.1387
   63MOL   O37935223   2.024   2.001   5.226 -0.6554  0.3281 -0.5078
   63MOL   C38035224   1.955   1.912   4.971  0.6803  0.2797  0.3122
   63MOL   C38135225   1.916   1.876   4.843 -0.2100  0.0982  0.2272
   63MOL   H38235226   1.982   1.901   4.047 -2.0095  0.6239 -0.9299
   63MOL   H38335227   1.964   1.988   4.188 -2.1033  1.0201 -0.2044
   63MOL   H38435228   2.099   1.772   4.211  0.1791  1.5742 -3.8939
   63MOL   H38535229   1.946   1.690   4.221  0.2419  0.4645  1.9255
   63MOL   H38635230   2.035   1.735   4.451  1.3963  0.5163 -1.0639
   63MOL   H38735231   2.025   1.905   4.426 -0.5601 -0.0344  0.5133
   63MOL   H38835232   1.785   1.891   4.398  0.5425  0.1887 -0.5376
   63MOL   H38935233   1.778   1.717   4.408 -0.8343  0.4225  0.0772
   63MOL   H39035234   1.635   2.061   4.803  1.1310 -0.4480 -0.9875
   63MOL   H39135235   1.686   2.111   5.047  0.4120  1.3209 -1.0931
   63MOL   H39235236   2.044   1.869   5.013  1.3019 -0.5366 -1.7850
   63MOL   H39335237   1.981   1.819   4.778 -0.5947 -0.3465  0.2293
   63MOL   O39435238   1.825   2.105   5.245  0.4816  0.7860  0.0233
   63MOL   C39535239   1.852   2.164   5.372  0.1380  0.9218  0.1623
   63MOL   C39635240   1.735   2.255   5.403 -0.5281 -0.0881 -0.1004
   63MOL   C39735241   1.603   2.180   5.422  0.2804  0.1118  0.3256
   63MOL   C39835242   1.493   2.259   5.494  0.7182 -0.6035  0.5485
   63MOL   O39935243   1.534   2.316   5.618  0.1125 -0.3946  0.5806
   63MOL   C40035244   1.523   2.246   5.730  0.6084  0.6431 -0.4935
   63MOL   O40135245   1.448   2.147   5.749 -0.1794 -0.0058  0.5656
   63MOL   C40235246   1.607   2.307   5.839  0.3644  0.1086 -0.5102
   63MOL   C40335247   1.682   2.428   5.815  0.1958 -0.2419  0.1713
   63MOL   C40435248   1.746   2.496   5.921  0.5320 -0.0760 -0.4872
   63MOL   C40535249   1.740   2.443   6.052  0.1504 -0.1254 -0.1478
   63MOL   C40635250   1.803   2.511   6.168  1.0214 -0.3534  0.0993
   63MOL   O40735251   1.816   2.461   6.284  0.2596 -0.2617 -0.1313
   63MOL   C40835252   1.666   2.319   6.079 -1.2985  0.6129  0.5923
   63MOL   C40935253   1.614   2.250   5.969  0.0124 -0.4377 -0.4064
   63MOL   H41035254   1.869   2.094   5.454  2.4460  2.4251  1.0307
   63MOL   H41135255   1.943   2.223   5.360 -0.0364  1.3790  1.1054
   63MOL   H41235256   1.721   2.329   5.324 -0.7366  0.1887  0.1983
   63MOL   H41335257   1.758   2.312   5.493  0.3929 -0.5225 -0.0473
   63MOL   H41435258   1.558   2.147   5.328  1.5439  0.9108 -0.5728
   63MOL   H41535259   1.616   2.087   5.478 -0.4136 -0.4916 -0.4924
   63MOL   H41635260   1.448   2.339   5.435  1.2527  0.8177  2.0349
   63MOL   H41735261   1.406   2.196   5.510 -0.7611  0.7290 -2.0187
   63MOL   H41835262   1.688   2.483   5.722  2.7043  0.0903  0.4928
   63MOL   H41935263   1.793   2.592   5.905  0.8269 -0.3189 -1.0920
   63MOL   H42035264   1.642   2.296   6.182  0.7647  0.3713  1.0502
   63MOL   H42135265   1.565   2.160   6.003  0.3263 -0.6976 -0.6281
   63MOL   O42235266   1.846   2.636   6.143 -0.3179  0.2223  0.3818
   63MOL   C42335267   1.904   2.709   6.242 -0.9601 -0.7032 -0.3687
   63MOL   C42435268   2.051   2.676   6.254  0.3342 -0.0469 -0.9091
   63MOL   C42535269   2.128   2.666   6.116 -0.2384 -0.1651 -0.4238
   63MOL   C42635270   2.278   2.659   6.133  0.6210  0.4111  0.2031
   63MOL   O42735271   2.315   2.537   6.198 -0.1924  0.1769 -0.3286
   63MOL   C42835272   2.443   2.492   6.209 -0.2904 -0.3986  0.4851
   63MOL   O42935273   2.540   2.543   6.145 -0.3311  0.0558 -0.2144
   63MOL   C43035274   2.461   2.390   6.309 -0.0173 -0.4357 -0.1970
   63MOL   C43135275   2.597   2.364   6.353  0.2698 -0.8008 -0.4780
   63MOL   C43235276   2.619   2.269   6.454 -0.2600 -0.5184 -0.6929
   63MOL   C43335277   2.512   2.192   6.504 -0.4483 -0.0867  0.2486
   63MOL   C43435278   2.532   2.083   6.600 -0.9344  0.0037 -0.5702
   63MOL   O43535279   2.641   2.038   6.627 -0.0564 -0.5719  0.5096
   63MOL   C43635280   2.384   2.215   6.458  0.3995 -0.2550 -0.1431
   63MOL   C43735281   2.352   2.315   6.361  0.0085  0.4694 -0.0156
   63MOL   H43835282   1.902   2.812   6.204  3.4638  0.1191  1.3297
   63MOL   H43935283   1.852   2.705   6.337 -3.4987 -2.0332 -1.7886
   63MOL   H44035284   2.070   2.586   6.312 -2.3336  1.1356  1.9770
   63MOL   H44135285   2.094   2.759   6.311 -0.6080  0.2013 -0.5417
   63MOL   H44235286   2.084   2.587   6.055  2.1134 -1.2398 -0.7595
   63MOL   H44335287   2.128   2.758   6.057  0.6811 -0.0019 -0.1683
   63MOL   H44435288   2.331   2.654   6.038 -1.7930 -0.9283 -1.1304
   63MOL   H44535289   2.323   2.746   6.181  1.5728 -0.3069  0.6135
   63MOL   H44635290   2.669   2.432   6.310 -0.3376  0.5740  0.6334
   63MOL   H44735291   2.719   2.250   6.492 -0.4226 -0.6320 -0.3201
   63MOL   H44835292   2.302   2.152   6.490 -0.2251  0.9778  0.7511
   63MOL   H44935293   2.252   2.329   6.324  0.4700 -2.1531 -2.4449
   63MOL   O45035294   2.420   2.033   6.652 -0.6502 -0.5576  0.3862
   63MOL   C45135295   2.426   1.922   6.743  0.1341 -0.1158  0.4591
   63MOL   C45235296   2.295   1.897   6.833 -0.8405 -1.0700 -0.7585
   63MOL   C45335297   2.226   2.035   6.845  0.5031 -0.2181  0.0624
   63MOL   C45435298   2.313   2.146   6.902  0.5727  0.6526  0.2795
   63MOL   O45535299   2.312   2.129   7.042  0.0728  0.1421  0.3636
   63MOL   C45635300   2.357   2.223   7.123 -0.2720  0.3999 -0.1434
   63MOL   O45735301   2.404   2.333   7.090  0.3711  0.2184  0.0163
   63MOL   C45835302   2.356   2.177   7.261  0.1962 -0.1219 -0.1237
   63MOL   C45935303   2.324   2.045   7.296  0.9750  0.3403 -0.2822
   63MOL   C46035304   2.290   2.008   7.430  0.1044  0.2421 -0.3594
   63MOL   C46135305   2.321   2.105   7.530 -0.3113  0.2240  0.6886
   63MOL   C46235306   2.293   2.080   7.674 -0.3827 -0.5326  0.7932
   63MOL   O46335307   2.279   2.171   7.760  0.6588 -0.6770  0.9916
   63MOL   C46435308   2.375   2.229   7.497 -0.5556 -0.0427 -0.0214
   63MOL   C46535309   2.392   2.266   7.362  0.3030 -1.4170  0.0295
   63MOL   H46635310   2.436   1.835   6.678 -0.1942 -0.3807  0.7616
   63MOL   H46735311   2.515   1.925   6.805  0.2508  1.2218  0.2409
   63MOL   H46835312   2.320   1.854   6.930 -3.4995  1.1359  0.9847
   63MOL   H46935313   2.216   1.836   6.788 -3.2259  2.3879 -1.5095
   63MOL   H47035314   2.197   2.060   6.743 -0.3330 -0.0065  0.3526
   63MOL   H47135315   2.132   2.023   6.899 -1.1125 -0.0266 -2.6250
   63MOL   H47235316   2.414   2.151   6.861 -0.5335  0.8099 -2.5745
   63MOL   H47335317   2.276   2.248   6.893  0.5215  0.4791 -1.7471
   63MOL   H47435318   2.304   1.978   7.214  1.1683 -0.8618  0.6465
   63MOL   H47535319   2.252   1.911   7.459  0.4524  0.5134  1.0508
   63MOL   H47635320   2.392   2.308   7.569 -3.3915  1.5430 -1.0027
   63MOL   H47735321   2.426   2.366   7.338  1.3600 -1.0060  3.0434
   63MOL   O47835322   2.284   1.944   7.710  0.8285  0.1140 -0.0761
   63MOL   C47935323   2.272   1.924   7.854  0.2218  0.6496  0.8869
   63MOL   C48035324   2.130   1.890   7.893  0.1152  0.3563 -0.1967
   63MOL   C48135325   2.111   1.884   8.047  0.5928  0.2251 -0.1431
   63MOL   C48235326   1.966   1.872   8.097  0.2431  0.5699 -0.3724
   63MOL   O48335327   1.905   1.747   8.053  0.5261 -0.0835 -0.8483
   63MOL   C48435328   1.850   1.667   0.044 -0.4430 -0.8103 -0.6622
   63MOL   O48535329   1.830   1.704   0.163  0.1030 -0.1441  0.0103
   63MOL   C48635330   1.820   1.529   8.093 -0.2617  0.2045 -0.0934
   63MOL   C48735331   1.816   1.500   7.953  0.2526 -0.1963  0.1405
   63MOL   C48835332   1.783   1.368   7.910 -1.2547  0.6091  0.6347
   63MOL   C48935333   1.751   1.266   8.010 -0.3627 -0.3844 -0.1099
   63MOL   C49035334   1.704   1.128   7.974  0.2914 -0.0624  1.5042
   63MOL   O49135335   1.720   1.084   7.860  0.3023 -0.0743 -0.1212
   63MOL   C49235336   1.770   1.299   0.048  0.2537  0.3518  0.4701
   63MOL   C49335337   1.800   1.428   0.093 -0.8937  0.8536  0.0637
   63MOL   H49435338   2.337   1.840   7.879  0.0431  0.2461 -0.0036
   63MOL   H49535339   2.305   2.004   7.922  0.1107  0.6140  0.9823
   63MOL   H49635340   2.095   1.799   7.845  4.0406 -0.1070 -2.3702
   63MOL   H49735341   2.065   1.968   7.853  0.1929  0.6498  0.2379
   63MOL   H49835342   2.157   1.807   0.010 -1.6516  0.0904  1.4297
   63MOL   H49935343   2.165   1.969   8.090  1.2539 -0.0614 -0.4110
   63MOL   H50035344   1.965   1.889   0.106  0.5090  0.6470 -0.3831
   63MOL   H50135345   1.896   1.938   8.045 -0.4536  0.3523  0.2785
   63MOL   H50235346   1.840   1.578   7.884 -2.4110 -0.3578 -1.0449
   63MOL   H50335347   1.777   1.327   7.810  1.2935  0.9387  0.2968
   63MOL   H50435348   1.759   1.219   0.119 -0.8001 -1.1889 -1.3859
   63MOL   H50535349   1.807   1.446   0.199  0.5160 -0.3104  0.1859
   63MOL   O50635350   1.638   1.065   8.076  0.0193  0.1009  0.5800
   63MOL   C50735351   1.586   0.935   8.060  0.1450  0.8946 -0.5182
   63MOL   C50835352   1.532   0.871   0.096 -0.1082 -0.2214  0.2419
   63MOL   C50935353   1.490   0.727   0.081 -0.1223  0.3517 -0.2016
   63MOL   C51035354   1.360   0.707   0.011 -0.7004 -0.0244  0.2476
   63MOL   O51135355   1.324   0.574   0.006  0.0282  0.5127  0.5039
   63MOL   C51235356   1.204   0.536   8.070  0.9338 -0.6095  0.5058
   63MOL   O51335357   1.128   0.611   8.004  0.0606  0.4346 -0.2460
   63MOL   C51435358   1.159   0.403   0.017  0.0592  0.1729  0.0854
   63MOL   C51535359   1.240   0.311   0.085 -0.1114  0.1717 -0.0853
   63MOL   C51635360   1.186   0.182   0.116 -0.5940  0.9163  0.5093
   63MOL   C51735361   1.054   0.141   0.080 -0.3013 -0.7055 -0.1159
   63MOL   C51835362   1.008   0.001   0.111  0.4534  0.1161  0.2822
   63MOL   O51935363   1.079   8.014   0.152  0.6153  0.6619 -0.1719
   63MOL   C52035364   0.980   0.232   0.004 -0.4545 -1.3864 -0.1650
   63MOL   C52135365   1.027   0.364   8.082  0.7819  0.6446 -0.5149
   63MOL   H52235366   1.511   0.933   7.981  0.0375 -0.6210 -0.3809
   63MOL   H52335367   1.662   0.869   8.017 -0.3129 -0.9002  1.3473
   63MOL   H52435368   1.447   0.930   0.129  1.0060  0.9143  1.1139
   63MOL   H52535369   1.602   0.881   0.179 -0.3495  0.6781  0.3436
   63MOL   H52635370   1.555   0.661   0.024 -2.0241 -2.8796  1.1942
   63MOL   H52735371   1.482   0.682   0.181  1.9120 -1.1057 -0.6583
   63MOL   H52835372   1.290   0.755   0.078 -2.2519 -2.6328  0.5790
   63MOL   H52935373   1.360   0.762   8.015 -1.8478  1.0282  0.8508
   63MOL   H53035374   1.340   0.333   0.117 -0.4137  1.4409  0.0149
   63MOL   H53135375   1.249   0.107   0.161  0.6782 -0.5624 -3.5173
   63MOL   H53235376   0.879   0.213   8.070 -0.8956 -0.5672  0.6945
   63MOL   H53335377   0.954   0.429   8.036  2.1085  1.7642 -1.1026
   63MOL   O53435378   0.879   8.082   0.077 -0.3376 -0.8870  0.4190
   63MOL   C53535379   0.829   7.954   0.074 -0.3154 -0.0764  0.2313
   63MOL   C53635380   0.830   7.907   8.021  0.3570  0.3121 -0.3144
   63MOL   C53735381   0.748   7.991   7.922  0.4328  0.1146  0.1885
   63MOL   C53835382   0.761   7.947   7.775 -0.5274  0.3083 -0.5692
   63MOL   O53935383   0.703   7.815   7.754  0.1352 -0.0629 -0.0906
   63MOL   C54035384   0.788   7.709   7.734  0.5156  0.1306  0.1469
   63MOL   O54135385   0.911   7.715   7.735  0.1490 -0.5246 -0.5557
   63MOL   C54235386   0.702   7.593   7.706  0.1336  0.6280 -0.4985
   63MOL   C54335387   0.769   7.474   7.655 -0.2317  0.3398  0.6747
   63MOL   C54435388   0.688   7.370   7.613 -0.1379  0.4671  0.5865
   63MOL   C54535389   0.547   7.367   7.641  0.3958 -0.1211 -0.2559
   63MOL   C54635390   0.466   7.247   7.630 -0.9142 -0.0872 -0.0986
   63MOL   O54735391   0.512   7.138   7.598  0.6241  0.2561  0.0371
   63MOL   C54835392   0.481   7.478   7.695 -0.4318  0.0165  0.0762
   63MOL   C54935393   0.559   7.594   7.713  0.2569  0.5567 -0.5356
   63MOL   H55035394   0.887   7.882   0.131  1.9792  1.3707 -0.2418
   63MOL   H55135395   0.729   7.951   0.118 -1.3916 -0.9107 -2.1837
   63MOL   H55235396   0.785   7.808   8.022 -1.3395  1.0743 -0.0785
   63MOL   H55335397   0.932   7.897   7.984  1.1830 -0.1074  2.0173
   63MOL   H55435398   0.648   7.978   7.964  0.6585 -2.1286  0.1232
   63MOL   H55535399   0.798   8.087   7.934  0.4784  0.0486  0.5372
   63MOL   H55635400   0.710   8.020   7.711 -2.1030  0.4868  0.8463
   63MOL   H55735401   0.862   7.959   7.737 -0.6095  0.6805 -0.6778
   63MOL   H55835402   0.875   7.472   7.636 -0.2925 -0.1274  0.4009
   63MOL   H55935403   0.736   7.288   7.560  1.8685 -0.1783  3.2852
   63MOL   H56035404   0.376   7.469   7.719 -0.4593  0.2360  0.0389
   63MOL   H56135405   0.495   7.675   7.745 -1.1118 -0.6196 -0.2178
   63MOL   H56235406   0.360   7.255   7.651 -0.9529 -1.6441  0.3670
   64MOL     O135407   1.331   5.207   5.241 -0.0304 -0.5160 -0.7956
   64MOL     C235408   1.346   5.330   5.316 -0.1987 -0.1748  0.0562
   64MOL     C335409   1.455   5.416   5.259  0.0728 -0.1190 -0.1522
   64MOL     C435410   1.474   5.549   5.331  0.3535  0.3164  0.1015
   64MOL     C535411   1.375   5.656   5.291  0.0904  0.0424  0.0132
   64MOL     O635412   1.422   5.783   5.347 -0.1984  0.1128  0.2561
   64MOL     C735413   1.400   5.808   5.475 -0.3473 -0.5080 -0.7191
   64MOL     O835414   1.358   5.722   5.552  0.3617  0.0705 -0.3061
   64MOL     C935415   1.436   5.947   5.517  0.5138 -0.6295  0.1073
   64MOL    C1035416   1.491   6.038   5.430  0.1186 -0.0354  1.5259
   64MOL    C1135417   1.525   6.169   5.469 -0.1313 -0.7262 -0.2181
   64MOL    C1235418   1.489   6.216   5.593 -0.0361  0.4233 -0.9601
   64MOL    C1335419   1.535   6.352   5.633  0.0496 -0.5378 -0.6368
   64MOL    O1435420   1.586   6.438   5.561 -0.2832 -0.0323 -0.4620
   64MOL    C1535421   1.434   6.125   5.686  0.0623 -0.5346  0.2385
   64MOL    C1635422   1.410   5.992   5.648 -0.2722 -0.0680 -0.3325
   64MOL    H1735423   1.250   5.377   5.332 -1.5690 -2.3008 -1.6786
   64MOL    H1835424   1.376   5.292   5.414 -1.7809  2.6161  1.6565
   64MOL    H1935425   1.437   5.435   5.153  0.5307 -0.3890 -0.2784
   64MOL    H2035426   1.544   5.354   5.263 -0.5422 -1.1083 -1.2855
   64MOL    H2135427   1.475   5.529   5.438 -0.0936 -1.5249 -0.2158
   64MOL    H2235428   1.580   5.570   5.316 -0.0731  1.8034 -0.8937
   64MOL    H2335429   1.357   5.663   5.184 -1.3242  1.1025  0.3072
   64MOL    H2435430   1.277   5.636   5.332  0.3387 -1.8564 -0.3004
   64MOL    H2535431   1.502   6.014   5.325 -3.0867  0.0272  1.1256
   64MOL    H2635432   1.573   6.241   5.404  0.2216 -0.1202  0.7006
   64MOL    H2735433   1.411   6.154   5.787 -0.3879 -0.3796  0.0933
   64MOL    H2835434   1.358   5.933   5.722 -0.0964 -0.1755 -0.2953
   64MOL    H2935435   1.254   5.163   5.274 -0.5598  0.5073 -0.6511
   64MOL    O3035436   1.519   6.376   5.764  0.0790 -0.0904 -0.0838
   64MOL    C3135437   1.552   6.499   5.828  0.0185  0.1307 -0.8474
   64MOL    C3235438   1.566   6.485   5.981 -0.0424 -0.5229 -0.6967
   64MOL    C3335439   1.553   6.624   6.041  0.2830 -0.2258 -0.2825
   64MOL    C3435440   1.555   6.615   6.192  0.2900  0.1925 -0.6769
   64MOL    O3535441   1.436   6.547   6.247 -0.2250  0.2365 -0.2043
   64MOL    C3635442   1.388   6.577   6.371  0.0520  1.0769 -0.5870
   64MOL    O3735443   1.443   6.659   6.441  0.3852  0.0532  0.6612
   64MOL    C3835444   1.263   6.510   6.408  0.0699 -0.3678  0.1533
   64MOL    C3935445   1.202   6.413   6.325 -0.1099  0.7318  0.5162
   64MOL    C4035446   1.073   6.367   6.354  0.6720  1.0843  0.3465
   64MOL    C4135447   1.007   6.400   6.479  0.0181  0.3031 -0.1156
   64MOL    C4235448   0.877   6.345   6.515 -0.4324  0.0131 -1.4229
   64MOL    O4335449   0.813   6.391   6.612 -0.2507  0.7403 -0.0041
   64MOL    C4435450   1.078   6.478   6.570  0.6025 -0.1074  0.3254
   64MOL    C4535451   1.199   6.539   6.530  0.0775  0.1295  0.5320
   64MOL    H4635452   1.643   6.548   5.792 -0.3635  1.3606 -0.1623
   64MOL    H4735453   1.465   6.562   5.811 -1.3245 -1.0199  1.5307
   64MOL    H4835454   1.659   6.430   5.997  1.0297  1.3874 -0.2189
   64MOL    H4935455   1.480   6.427   6.013 -1.2285  0.4694 -1.9831
   64MOL    H5035456   1.636   6.685   6.008 -0.0852  0.5190  0.1688
   64MOL    H5135457   1.460   6.674   6.012 -1.7816 -3.4146  0.5073
   64MOL    H5235458   1.638   6.553   6.226  1.3173  0.8006 -2.0336
   64MOL    H5335459   1.569   6.718   6.226  1.8581  0.6632 -2.6588
   64MOL    H5435460   1.255   6.388   6.235  0.5400  1.1272  0.7885
   64MOL    H5535461   1.029   6.310   6.274 -1.0888  1.7287  0.8338
   64MOL    H5635462   1.036   6.503   6.667  0.8924 -0.9922  0.6805
   64MOL    H5735463   1.236   6.620   6.591  1.5554  0.6632 -1.0370
   64MOL    O5835464   0.834   6.260   6.419 -0.2530  0.8576 -0.5428
   64MOL    C5935465   0.698   6.224   6.402 -0.5890  0.7886  0.3544
   64MOL    C6035466   0.664   6.274   6.264  0.4146  0.2241  0.3355
   64MOL    C6135467   0.525   6.236   6.207  0.4407  0.1121  0.0634
   64MOL    C6235468   0.507   6.091   6.169 -0.2906 -0.3248  0.0070
   64MOL    O6335469   0.465   6.014   6.281 -0.1287  0.7094  0.2795
   64MOL    C6435470   0.342   6.004   6.320  0.0896  0.0811  0.0014
   64MOL    O6535471   0.245   6.031   6.250  0.4902  0.8596 -0.0245
   64MOL    C6635472   0.327   5.953   6.457  0.2902  0.3275  0.5747
   64MOL    C6735473   0.198   5.909   6.497 -0.4643  0.0912 -0.8416
   64MOL    C6835474   0.183   5.854   6.624  0.0918 -0.3866 -0.1361
   64MOL    C6935475   0.296   5.836   6.715  0.1465 -0.5945  0.2813
   64MOL    C7035476   0.279   5.767   6.841 -0.7167  1.1165 -0.1751
   64MOL    O7135477   0.367   5.738   6.925 -0.2660  0.2213 -0.3629
   64MOL    C7235478   0.420   5.889   6.679 -0.4958 -0.5893 -0.1840
   64MOL    C7335479   0.436   5.945   6.550 -0.3022 -0.2779  0.4382
   64MOL    H7435480   0.686   6.115   6.404 -2.5459  0.9211 -1.6140
   64MOL    H7535481   0.627   6.268   6.471  0.9071  0.9362  1.8391
   64MOL    H7635482   0.737   6.235   6.193  1.1300 -0.1723  1.2765
   64MOL    H7735483   0.670   6.383   6.258 -1.6365  0.2367 -2.8323
   64MOL    H7835484   0.453   6.272   6.279 -1.0281  1.0496 -1.8211
   64MOL    H7935485   0.497   6.293   6.118  0.6931  1.1297  0.6326
   64MOL    H8035486   0.436   6.088   6.086 -2.0596  1.3524  1.3973
   64MOL    H8135487   0.596   6.043   6.129  1.5707  1.1972  2.1751
   64MOL    H8235488   0.118   5.916   6.426 -0.4365  0.9057 -0.7937
   64MOL    H8335489   0.092   5.801   6.648  0.1175 -0.7195 -0.7675
   64MOL    H8435490   0.512   5.891   6.735 -1.6430  2.9972  1.7298
   64MOL    H8535491   0.532   5.984   6.521 -0.5342 -0.8144 -1.0704
   64MOL    O8635492   0.148   5.733   6.865 -0.2966 -0.2710  0.3776
   64MOL    C8735493   0.122   5.645   6.976  0.2334  0.2629 -0.1042
   64MOL    C8835494   8.078   5.593   6.998 -0.7109  0.1163  0.6075
   64MOL    C8935495   7.992   5.529   6.879  0.6601 -0.5962 -0.2429
   64MOL    C9035496   7.870   5.451   6.932  0.2786  0.8992 -0.2302
   64MOL    O9135497   7.773   5.532   7.003 -0.1616 -1.0925 -0.1066
   64MOL    C9235498   7.789   5.545   7.133  0.2277 -0.3000  0.1595
   64MOL    O9335499   7.873   5.484   7.191 -0.5770 -0.0760 -0.0993
   64MOL    C9435500   7.707   5.656   7.195 -0.6221  0.3659 -0.3935
   64MOL    C9535501   7.666   5.770   7.124 -0.1129 -0.3253 -0.0152
   64MOL    C9635502   7.587   5.871   7.185  0.1216  0.6283  0.4768
   64MOL    C9735503   7.546   5.852   7.320 -0.1255  0.8078  0.2273
   64MOL    C9835504   7.449   5.946   7.380  0.2825  0.2837 -0.9438
   64MOL    O9935505   7.374   6.021   7.316  0.0041  0.2501  0.1132
   64MOL   C10035506   7.597   5.741   7.393  0.0202 -0.1431  0.4036
   64MOL   C10135507   7.673   5.647   7.331 -0.2094  0.4510 -0.2173
   64MOL   H10235508   0.185   5.556   6.972 -0.4803 -0.1728 -2.3829
   64MOL   H10335509   0.142   5.700   7.068  0.9107  0.5779 -0.4369
   64MOL   H10435510   8.029   5.683   7.038  0.6564  0.2660  1.9974
   64MOL   H10535511   8.076   5.518   7.077 -0.7060  0.7186  1.1884
   64MOL   H10635512   7.959   5.600   6.802 -1.6622 -1.1309  0.2305
   64MOL   H10735513   8.066   5.468   6.827  0.8814  1.2006 -2.1310
   64MOL   H10835514   7.812   5.418   6.846 -0.6147 -0.8084  1.0042
   64MOL   H10935515   7.894   5.360   6.986  0.5942  1.4626  0.5895
   64MOL   H11035516   7.694   5.783   7.020  2.3800  0.9609  0.7699
   64MOL   H11135517   7.546   5.959   7.135 -0.6855  2.2091  3.7795
   64MOL   H11235518   7.561   5.726   7.494 -2.4568 -0.2765 -0.4551
   64MOL   H11335519   7.701   5.561   7.391 -0.0457  1.1078  0.6690
   64MOL   O11435520   7.449   5.944   7.520 -0.2976 -0.5918 -0.8035
   64MOL   C11535521   7.354   6.021   7.596 -0.0449  0.3207 -0.3082
   64MOL   C11635522   7.388   6.016   7.739  0.1139 -0.1949  0.1803
   64MOL   C11735523   7.362   5.882   7.804 -0.4213  0.7110  0.0676
   64MOL   C11835524   7.366   5.907   7.957  0.1647 -0.1110  0.6453
   64MOL   O11935525   7.506   5.927   8.002 -0.2157  0.2269  0.1167
   64MOL   C12035526   7.531   5.941   0.037 -0.4362 -0.5137  0.0169
   64MOL   O12135527   7.442   5.957   0.119 -0.0167 -0.0470 -0.1825
   64MOL   C12235528   7.676   5.952   0.068 -0.0045  0.3824 -0.1052
   64MOL   C12335529   7.716   5.962   0.198 -0.2132 -0.4342  0.2883
   64MOL   C12435530   7.853   5.950   0.230  0.3026 -1.1845 -0.2596
   64MOL   C12535531   7.952   5.952   0.130  0.0102 -0.0874  0.5213
   64MOL   C12635532   8.094   5.952   0.154  0.9438  0.4003  0.5154
   64MOL   O12735533   0.078   5.967   0.063 -0.2185  0.3009 -0.2003
   64MOL   C12835534   7.913   5.944   8.093  0.6213  0.1395  0.0585
   64MOL   C12935535   7.777   5.944   8.062 -0.0249 -0.1194 -0.2745
   64MOL   H13035536   7.345   6.122   7.556  0.3452  0.4878  0.0360
   64MOL   H13135537   7.257   5.970   7.588  0.6241 -0.9233 -0.6241
   64MOL   H13235538   7.341   6.101   7.789  1.9960  0.4449  0.9088
   64MOL   H13335539   7.493   6.043   7.751 -0.2039  2.3815 -2.2852
   64MOL   H13435540   7.271   5.834   7.770  0.3299 -1.5665  1.1897
   64MOL   H13535541   7.442   5.821   7.762 -1.4947  0.3681 -1.4974
   64MOL   H13635542   7.318   6.002   7.979 -0.8415 -0.4766  0.0619
   64MOL   H13735543   7.320   5.826   8.014 -1.6173 -0.9612 -1.9223
   64MOL   H13835544   7.636   5.972   0.269 -1.8772  1.6944 -1.8042
   64MOL   H13935545   7.873   5.949   0.336 -2.2193  1.6714  0.3156
   64MOL   H14035546   7.988   5.934   8.016 -0.6555 -0.4919 -1.1370
   64MOL   H14135547   7.741   5.931   7.961  0.8042 -1.4652 -0.4172
   64MOL   O14235548   0.017   5.947   0.289 -0.4817  0.1899 -0.0019
   64MOL   C14335549   0.149   5.941   0.345 -0.2716  0.1644  0.1041
   64MOL   C14435550   0.162   5.810   0.406 -0.2808 -0.5668  0.6894
   64MOL   C14535551   0.114   5.796   0.548  0.5799  1.0893 -0.6370
   64MOL   C14635552   8.063   5.811   0.561 -0.0745  0.4000 -0.3502
   64MOL   O14735553   8.023   5.759   0.691 -0.6095 -0.0378 -0.2604
   64MOL   C14835554   7.952   5.828   0.780 -0.1911  0.0896  0.3499
   64MOL   O14935555   7.932   5.944   0.761  0.0901  0.3954  0.3726
   64MOL   C15035556   7.896   5.750   0.892 -0.5728 -0.3267  0.5199
   64MOL   C15135557   7.951   5.619   0.925  0.1668 -1.0514  0.2140
   64MOL   C15235558   7.889   5.539   1.026 -0.0759  0.9400 -0.6455
   64MOL   C15335559   7.781   5.592   1.102 -0.3812 -0.0254 -0.3539
   64MOL   C15435560   7.724   5.513   1.216 -0.0024  0.6551  0.3746
   64MOL   O15535561   7.753   5.388   1.234  0.0602 -0.1886  0.2863
   64MOL   C15635562   7.731   5.718   1.069 -0.5459 -0.1144  0.2916
   64MOL   C15735563   7.792   5.798   0.971 -0.1213  0.4615 -0.0908
   64MOL   H15835564   0.229   5.943   0.270  0.3963  0.1058  0.8089
   64MOL   H15935565   0.155   6.016   0.424 -1.7589  0.1393  0.2373
   64MOL   H16035566   0.269   5.793   0.413  0.6229  3.0980 -2.4058
   64MOL   H16135567   0.122   5.733   0.341 -0.9412  1.0069 -0.8014
   64MOL   H16235568   0.139   5.695   0.582 -0.0990  1.2384  0.3274
   64MOL   H16335569   0.155   5.871   0.615 -1.3496 -1.1927  3.3209
   64MOL   H16435570   8.024   5.911   0.542  1.6223  0.7646 -2.1096
   64MOL   H16535571   8.006   5.752   0.489  0.5580 -1.2992  0.5114
   64MOL   H16635572   8.037   5.576   0.876 -0.4741 -2.4129  0.2672
   64MOL   H16735573   7.934   5.444   1.048 -1.1696  0.8968  1.4835
   64MOL   H16835574   7.642   5.758   1.116 -0.3309 -0.7288  1.2243
   64MOL   H16935575   7.746   5.893   0.948 -0.2737  0.4886  0.3144
   64MOL   O17035576   7.653   5.586   1.300 -0.0901 -0.3511  0.1691
   64MOL   C17135577   7.617   5.530   1.424 -0.0798  0.0982  0.4052
   64MOL   C17235578   7.474   5.466   1.405 -0.1096  0.7746  0.5630
   64MOL   C17335579   7.484   5.313   1.408  0.3469 -0.1498  0.2131
   64MOL   C17435580   7.353   5.246   1.360  0.3078  0.4779  0.5282
   64MOL   O17535581   7.343   5.272   1.218 -0.1628 -0.3219  0.3216
   64MOL   C17635582   7.280   5.188   1.142  0.1830 -0.2526  0.5585
   64MOL   O17735583   7.213   5.094   1.184  0.0814 -0.1677  0.2047
   64MOL   C17835584   7.297   5.224   1.002 -0.7060  0.2789  0.2312
   64MOL   C17935585   7.227   5.147   0.907  0.0878 -0.1247  0.4505
   64MOL   C18035586   7.259   5.167   0.775 -0.6161  0.3451  0.7016
   64MOL   C18135587   7.361   5.258   0.734  0.4346 -0.4882 -0.8266
   64MOL   C18235588   7.392   5.264   0.581 -0.7239  0.0784 -0.7727
   64MOL   O18335589   7.498   5.306   0.541  0.2035 -0.5588 -0.0040
   64MOL   C18435590   7.433   5.338   0.832 -0.6094  0.0047  0.3303
   64MOL   C18535591   7.404   5.310   0.964 -0.0655  0.0420 -0.1042
   64MOL   H18635592   7.686   5.457   1.466 -2.0391 -1.1991  1.4678
   64MOL   H18735593   7.606   5.612   1.495 -0.3830 -0.5308  1.0974
   64MOL   H18835594   7.447   5.500   1.306 -0.9794 -1.2281  0.0824
   64MOL   H18935595   7.404   5.485   1.486 -0.8413 -0.8908  0.3331
   64MOL   H19035596   7.565   5.274   1.346  1.6119  1.8969  0.4938
   64MOL   H19135597   7.517   5.283   1.507  1.4656 -1.3799 -0.5250
   64MOL   H19235598   7.361   5.141   1.390  0.0762  0.2523 -0.1999
   64MOL   H19335599   7.274   5.288   1.422  0.9519  0.9290  1.0451
   64MOL   H19435600   7.136   5.093   0.932  0.0051  1.0793  2.9827
   64MOL   H19535601   7.207   5.113   0.697 -1.3546  0.0539  1.3942
   64MOL   H19635602   7.516   5.399   0.800  1.4443 -2.4999  0.8106
   64MOL   H19735603   7.472   5.359   1.033  0.1310 -0.2689 -0.0776
   64MOL   O19835604   7.290   5.211   0.507 -0.3867 -0.1800 -0.5880
   64MOL   C19935605   7.303   5.208   0.367 -0.2081  0.4429  0.3614
   64MOL   C20035606   7.177   5.139   0.303 -0.2765  0.3192 -0.0450
   64MOL   C20135607   7.156   4.992   0.349 -0.2370  0.3760 -0.2081
   64MOL   C20235608   7.007   4.948   0.353  0.9050  0.6120  0.5011
   64MOL   O20335609   6.961   5.005   0.478 -0.3643  0.1848 -0.0667
   64MOL   C20435610   6.845   4.964   0.537  0.9152  0.9508  0.3310
   64MOL   O20535611   6.767   4.885   0.486  0.3971 -0.0117 -0.4814
   64MOL   C20635612   6.823   5.029   0.672 -0.4828  0.2977  0.2253
   64MOL   C20735613   6.728   4.973   0.762 -0.2543  0.8751  0.4909
   64MOL   C20835614   6.701   5.040   0.883 -0.3385 -0.4271 -0.0834
   64MOL   C20935615   6.769   5.155   0.922 -0.2200 -0.5378  0.1591
   64MOL   C21035616   6.731   5.214   1.053  0.6407  0.2223  0.0147
   64MOL   O21135617   6.652   5.165   1.136 -0.6455  0.0408  0.2970
   64MOL   C21235618   6.861   5.206   0.831 -0.0814 -0.1602  0.2692
   64MOL   C21335619   6.887   5.149   0.708 -0.0082  0.3745  0.2542
   64MOL   H21435620   7.298   5.308   0.324 -1.1813 -0.4964 -1.7851
   64MOL   H21535621   7.398   5.163   0.338 -1.1281 -1.8883  0.8626
   64MOL   H21635622   7.186   5.152   0.195  0.3098  2.6739  0.2558
   64MOL   H21735623   7.096   5.197   0.347  0.0765  0.6946  0.1165
   64MOL   H21835624   7.202   4.923   0.278 -0.2875  0.0345  0.0878
   64MOL   H21935625   7.205   4.974   0.445 -2.0159 -0.8982  0.4767
   64MOL   H22035626   6.947   4.990   0.272  2.0120 -0.0164 -0.6535
   64MOL   H22135627   6.996   4.839   0.357  2.0617  0.2530 -3.9483
   64MOL   H22235628   6.674   4.887   0.724  2.9254 -1.0170  0.0804
   64MOL   H22335629   6.616   5.010   0.941 -0.1023  1.3348  1.2073
   64MOL   H22435630   6.910   5.301   0.847  2.4873 -1.3583 -0.2018
   64MOL   H22535631   6.963   5.190   0.643 -0.1529 -0.8719 -0.7339
   64MOL   O22635632   6.787   5.335   1.060  0.0338  0.5098 -0.8121
   64MOL   C22735633   6.759   5.417   1.170 -0.0583 -0.4430  0.0346
   64MOL   C22835634   6.837   5.376   1.288 -0.4299 -0.4531  0.6516
   64MOL   C22935635   6.892   5.499   1.373 -0.3501  0.0381  0.2553
   64MOL   C23035636   7.042   5.519   1.343  0.3559  0.1397  0.9588
   64MOL   O23135637   7.060   5.547   1.208  0.0223 -0.2106 -0.1561
   64MOL   C23235638   7.176   5.591   1.160 -0.4235  0.0663 -0.4634
   64MOL   O23335639   7.264   5.627   1.239 -0.2014  0.0192 -0.1107
   64MOL   C23435640   7.177   5.597   1.013 -0.5530  0.3243  0.1065
   64MOL   C23535641   7.285   5.671   0.947  0.3378  0.2011 -0.1677
   64MOL   C23635642   7.299   5.651   0.810 -0.0467  0.3768 -1.0461
   64MOL   C23735643   7.202   5.587   0.731  0.5066  0.4756 -0.0815
   64MOL   C23835644   7.208   5.579   0.584  0.0674 -0.0016  0.2616
   64MOL   O23935645   7.133   5.508   0.514 -0.2924  0.3635  0.2055
   64MOL   C24035646   7.085   5.535   0.795 -0.4780 -0.2089  0.1772
   64MOL   C24135647   7.074   5.535   0.933  0.3244 -0.0911  0.0353
   64MOL   H24235648   6.776   5.520   1.139 -1.7091 -0.0724  0.3229
   64MOL   H24335649   6.654   5.406   1.194 -0.2336  1.0278 -0.0074
   64MOL   H24435650   6.924   5.317   1.258 -1.2029 -2.4026  2.1590
   64MOL   H24535651   6.776   5.315   1.354 -0.1354 -0.3993  0.9783
   64MOL   H24635652   6.834   5.591   1.377 -0.9971 -0.3823  0.6995
   64MOL   H24735653   6.891   5.452   1.472  2.8628 -0.9845 -0.1301
   64MOL   H24835654   7.087   5.598   1.403 -0.1771  0.7673  0.5334
   64MOL   H24935655   7.092   5.430   1.382  1.4857  0.1870 -0.3436
   64MOL   H25035656   7.360   5.729   1.000  1.8117 -0.7611 -1.1623
   64MOL   H25135657   7.380   5.706   0.765 -1.1970  1.2223 -2.0906
   64MOL   H25235658   7.002   5.500   0.736 -0.7652  0.4970  0.1540
   64MOL   H25335659   6.993   5.485   0.984  0.0064 -0.5297 -0.9080
   64MOL   O25435660   7.320   5.643   0.532  0.0271  0.9720  0.3699
   64MOL   C25535661   7.358   5.627   0.398  0.0958  0.1896  0.5659
   64MOL   C25635662   7.495   5.699   0.375 -0.0921  0.9772  0.0193
   64MOL   C25735663   7.606   5.605   0.416 -0.3605  0.6111 -0.3710
   64MOL   C25835664   7.755   5.643   0.396  0.3636  0.0190 -0.0071
   64MOL   O25935665   7.770   5.642   0.258 -0.3074 -0.7070 -0.2743
   64MOL   C26035666   7.887   5.619   0.200 -0.2054  0.3600  0.1110
   64MOL   O26135667   7.998   5.623   0.252 -0.5718  0.4018 -0.3499
   64MOL   C26235668   7.872   5.600   0.051  0.1944  0.7391 -0.0003
   64MOL   C26335669   7.989   5.583   8.069 -1.0538 -0.2142 -0.5095
   64MOL   C26435670   7.985   5.596   7.927  0.2574  0.1790 -0.1603
   64MOL   C26535671   7.863   5.616   7.863 -0.2236  0.4466 -0.3278
   64MOL   C26635672   7.847   5.601   7.713  0.3567 -0.4337 -0.1332
   64MOL   O26735673   7.739   5.597   7.659  0.1157  0.1999  0.3078
   64MOL   C26835674   7.745   5.629   7.939  0.5330 -0.0815 -0.1283
   64MOL   C26935675   7.748   5.626   8.076 -0.6089  0.0031 -0.5960
   64MOL   H27035676   7.368   5.520   0.377  1.0783  0.5780 -1.0647
   64MOL   H27135677   7.275   5.662   0.336 -2.0827 -0.9086  2.7694
   64MOL   H27235678   7.502   5.791   0.432  0.1127 -0.0778  1.7598
   64MOL   H27335679   7.517   5.725   0.272  2.3505  1.2270  0.5767
   64MOL   H27435680   7.598   5.592   0.524 -2.0183  2.7637 -0.2106
   64MOL   H27535681   7.593   5.508   0.370 -0.1033 -0.0876  1.0027
   64MOL   H27635682   7.775   5.740   0.441  2.2375 -0.3595  0.0264
   64MOL   H27735683   7.817   5.568   0.445  0.7879 -0.3796 -1.1502
   64MOL   H27835684   8.083   5.580   0.024 -0.2850  1.6226 -1.7295
   64MOL   H27935685   8.082   5.594   7.881  0.9091 -1.2133  1.2442
   64MOL   H28035686   7.650   5.631   7.889  0.4392  0.5892  0.0706
   64MOL   H28135687   7.655   5.650   0.027  0.2514  2.0322  0.0719
   64MOL   O28235688   7.970   5.592   7.656 -0.6768  0.1927 -0.2870
   64MOL   C28335689   7.979   5.588   7.517 -0.6823  0.3462  0.2150
   64MOL   C28435690   0.031   5.564   7.491  0.0618 -0.2823  0.2763
   64MOL   C28535691   0.066   5.541   7.341  0.1435 -0.2697 -0.2897
   64MOL   C28635692   0.215   5.512   7.333  0.1350  0.3075  0.3993
   64MOL   O28735693   0.302   5.610   7.391 -0.0467  0.0639 -0.2112
   64MOL   C28835694   0.430   5.560   7.422 -0.7899  0.2640  0.4814
   64MOL   O28935695   0.460   5.442   7.439 -0.5433  0.9693 -0.2140
   64MOL   C29035696   0.538   5.664   7.446  0.1514  0.1269  0.0009
   64MOL   C29135697   0.517   5.805   7.419 -0.6324 -0.0703 -0.1423
   64MOL   C29235698   0.618   5.902   7.450 -0.6993  1.2897  0.3848
   64MOL   C29335699   0.744   5.852   7.483 -0.3376 -0.6151 -0.8074
   64MOL   C29435700   0.855   5.950   7.504  0.0707 -0.0306 -0.2871
   64MOL   O29535701   0.846   6.073   7.495 -0.8726  0.1681 -0.3381
   64MOL   C29635702   0.763   5.720   7.519 -0.1814  0.3598  0.5506
   64MOL   C29735703   0.663   5.623   7.496  1.1887 -0.2225 -0.1124
   64MOL   H29835704   7.910   5.513   7.479  1.1629 -1.1534 -0.2778
   64MOL   H29935705   7.947   5.679   7.467  0.0187  0.2055 -0.4991
   64MOL   H30035706   0.070   5.477   7.543 -1.7238 -1.0123  0.3856
   64MOL   H30135707   0.086   5.650   7.529 -0.4038 -0.1787  0.7117
   64MOL   H30235708   0.024   5.451   7.297 -1.2734  0.8001 -1.1552
   64MOL   H30335709   0.048   5.634   7.287  0.4253 -1.1661 -1.9638
   64MOL   H30435710   0.236   5.419   7.384 -0.5509  0.2123  0.5057
   64MOL   H30535711   0.256   5.499   7.232  4.1058 -1.2333  2.1131
   64MOL   H30635712   0.417   5.835   7.391 -0.4057  0.4930 -0.3552
   64MOL   H30735713   0.616   6.008   7.430 -1.9796  1.3361  0.7496
   64MOL   H30835714   0.865   5.690   7.536  0.1360  0.3690 -1.2937
   64MOL   H30935715   0.680   5.517   7.495  0.0688 -0.4024 -1.5919
   64MOL   O31035716   0.968   5.891   7.537 -0.5187  0.7085 -0.0730
   64MOL   C31135717   1.076   5.966   7.582  0.3031 -0.0676 -0.0096
   64MOL   C31235718   1.166   5.867   7.656 -0.2638 -0.4390  0.7420
   64MOL   C31335719   1.287   5.924   7.720  0.2534 -0.1840 -0.6278
   64MOL   C31435720   1.370   5.816   7.792  0.1820  0.3146 -0.3985
   64MOL   O31535721   1.316   5.758   7.910  0.1766  0.1583  0.3967
   64MOL   C31635722   1.327   5.826   8.024  0.5177 -0.4604 -0.4508
   64MOL   O31735723   1.396   5.929   8.038 -0.0045  0.3973  0.1072
   64MOL   C31835724   1.228   5.778   0.023  0.0903  0.7669 -0.4587
   64MOL   C31935725   1.126   5.695   8.077  0.7147  0.0593  0.3016
   64MOL   C32035726   1.012   5.677   0.065 -0.2491  0.2564 -0.2271
   64MOL   C32135727   1.003   5.730   0.196 -0.3880 -0.0656 -0.0304
   64MOL   C32235728   0.882   5.701   0.278 -0.0391 -0.9358  0.4631
   64MOL   O32335729   0.863   5.753   0.387  0.4129 -0.5639 -0.9211
   64MOL   C32435730   1.113   5.806   0.240 -0.2848  0.9121  0.1038
   64MOL   C32535731   1.224   5.836   0.154  0.1252 -0.1005  0.0170
   64MOL   H32635732   1.138   6.004   7.502  1.5094 -1.9138  0.0252
   64MOL   H32735733   1.031   6.045   7.642 -0.2596  0.5771 -1.2543
   64MOL   H32835734   1.190   5.791   7.582 -2.5740  2.1528 -2.8783
   64MOL   H32935735   1.098   5.824   7.730 -2.0171  0.4727 -0.2976
   64MOL   H33035736   1.340   5.968   7.635  0.2630  0.0676 -0.4907
   64MOL   H33135737   1.262   5.999   7.794  1.8169 -0.5372  0.2596
   64MOL   H33235738   1.393   5.732   7.727  3.6507 -0.0836  1.1691
   64MOL   H33335739   1.468   5.863   7.804 -0.4673  1.0711  2.6235
   64MOL   H33435740   1.118   5.657   7.976 -1.4980  1.3330 -0.0398
   64MOL   H33535741   0.930   5.626   0.017  0.4896  0.2819 -1.5252
   64MOL   H33635742   1.117   5.856   0.336  4.0484  0.3630  0.3135
   64MOL   H33735743   1.309   5.886   0.197  0.4983 -0.6489 -0.0842
   64MOL   O33835744   0.786   5.623   0.221 -0.3382  0.1765  0.4420
   64MOL   C33935745   0.650   5.634   0.260  0.5452  0.4763 -0.4116
   64MOL   C34035746   0.634   5.506   0.333 -0.4536  0.3894 -0.1293
   64MOL   C34135747   0.501   5.510   0.402 -0.3116  0.3142  0.0597
   64MOL   C34235748   0.482   5.387   0.477 -0.7320  0.0005 -0.0614
   64MOL   O34335749   0.356   5.385   0.535 -0.5284  0.1860  0.0478
   64MOL   C34435750   0.331   5.316   0.644 -0.3986 -0.0606 -0.8621
   64MOL   O34535751   0.424   5.261   0.709  0.4812 -0.3689  0.2010
   64MOL   C34635752   0.182   5.319   0.682 -0.0469  0.2025  0.2708
   64MOL   C34735753   0.084   5.396   0.621  0.2409  0.8101  0.0267
   64MOL   C34835754   8.044   5.382   0.658  0.3885  0.0979  0.2296
   64MOL   C34935755   8.015   5.290   0.760 -0.2763  0.4483 -0.3137
   64MOL   C35035756   7.867   5.275   0.800 -0.0227  0.4062 -0.2924
   64MOL   O35135757   7.773   5.338   0.753 -0.1293  0.1747  0.0059
   64MOL   C35235758   0.016   5.217   0.828 -0.1341  0.7818  0.2931
   64MOL   C35335759   0.149   5.233   0.787 -0.5126 -0.3956 -0.3031
   64MOL   H35435760   0.622   5.726   0.312 -5.5011 -1.1963 -0.2655
   64MOL   H35535761   0.597   5.622   0.166  2.0734  1.3846 -1.3918
   64MOL   H35635762   0.721   5.497   0.398 -1.3129  0.9591  1.1279
   64MOL   H35735763   0.627   5.415   0.274  0.5074  0.0344  0.2881
   64MOL   H35835764   0.498   5.590   0.477 -1.1382  0.7523 -0.4336
   64MOL   H35935765   0.419   5.516   0.331 -0.5044  0.0908  0.2641
   64MOL   H36035766   0.499   5.299   0.414 -1.0963 -2.3822  3.0092
   64MOL   H36135767   0.562   5.380   0.551 -0.8902 -1.1389  0.0213
   64MOL   H36235768   0.109   5.472   0.548 -0.4043  1.5062  0.5214
   64MOL   H36335769   7.971   5.442   0.606  0.3824  0.5761  0.7865
   64MOL   H36435770   8.092   5.137   0.897  0.9503  1.7336  1.7664
   64MOL   H36535771   0.219   5.162   0.828  0.9358 -0.0282 -2.0964
   64MOL   O36635772   7.850   5.190   0.909 -0.5069 -0.2533 -0.3842
   64MOL   C36735773   7.723   5.146   0.958  0.0611 -0.1083 -0.1046
   64MOL   C36835774   7.694   5.000   0.914  0.6312  0.5589  0.2069
   64MOL   C36935775   7.559   4.949   0.961  0.1864  0.5772  0.3245
   64MOL   C37035776   7.535   4.810   0.909 -0.6630  0.2777 -0.2089
   64MOL   O37135777   7.625   4.718   0.974  0.0793  0.7315  0.8728
   64MOL   C37235778   7.617   4.590   0.946  0.9662  0.3266 -1.1098
   64MOL   O37335779   7.522   4.540   0.877 -0.5565  0.1757  0.2004
   64MOL   C37435780   7.733   4.515   1.002 -0.3350  0.0660  0.0975
   64MOL   C37535781   7.835   4.582   1.072 -0.1552 -0.1873  0.1390
   64MOL   C37635782   7.948   4.515   1.125 -0.0168  0.5764 -0.3200
   64MOL   C37735783   7.959   4.376   1.100 -0.6256  0.5190  0.6759
   64MOL   C37835784   8.083   4.308   1.149  0.0266  0.1027 -0.3228
   64MOL   O37935785   0.090   4.374   1.168  0.4879 -0.1239  0.3552
   64MOL   C38035786   7.866   4.309   1.021 -0.7422 -0.1394 -0.1323
   64MOL   C38135787   7.749   4.377   0.979  0.5734  0.4886 -0.0754
   64MOL   H38235788   7.729   5.148   1.067 -0.7964 -4.0420  0.0671
   64MOL   H38335789   7.640   5.208   0.923 -0.5473 -1.2526 -0.7030
   64MOL   H38435790   7.776   4.937   0.948 -0.7589 -0.7734  1.1894
   64MOL   H38535791   7.701   4.997   0.806  0.1114 -3.0993  0.1955
   64MOL   H38635792   7.536   4.967   1.066  1.6124 -0.1862  0.7763
   64MOL   H38735793   7.494   5.018   0.907  0.6193  1.5900  1.0767
   64MOL   H38835794   7.434   4.771   0.920 -0.6857  1.1474  3.0074
   64MOL   H38935795   7.563   4.800   0.804  0.6187  0.0425  0.1441
   64MOL   H39035796   7.830   4.689   1.089 -0.8929 -0.2035  0.0406
   64MOL   H39135797   8.022   4.569   1.182 -0.0045  1.5598 -1.2520
   64MOL   H39235798   7.876   4.205   0.994  0.1312  0.2678 -1.4690
   64MOL   H39335799   7.683   4.311   0.925  1.9173 -0.5766 -0.4315
   64MOL   O39435800   8.069   4.174   1.151 -0.1896 -0.0148 -0.4993
   64MOL   C39535801   0.075   4.095   1.209  0.2561  0.5666 -0.4431
   64MOL   C39635802   0.154   4.028   1.092  0.3214  0.1930 -0.5819
   64MOL   C39735803   0.076   3.990   0.968  1.2819  0.4244  0.0667
   64MOL   C39835804   0.154   3.888   0.895  0.0857 -0.2173 -0.6525
   64MOL   O39935805   0.237   3.943   0.802 -0.2711  0.1244  1.1485
   64MOL   C40035806   0.341   3.883   0.746 -0.1530 -0.0094 -0.3109
   64MOL   O40135807   0.379   3.770   0.784 -0.2463 -0.7660  0.1479
   64MOL   C40235808   0.405   3.970   0.638 -0.2326  0.1165 -0.4933
   64MOL   C40335809   0.340   4.084   0.584  0.6475 -0.6290  0.4401
   64MOL   C40435810   0.403   4.155   0.480 -0.4241 -0.0892 -0.4611
   64MOL   C40535811   0.526   4.111   0.426  0.4649  0.2366  0.0825
   64MOL   C40635812   0.584   4.195   0.317 -0.1388 -0.3709  0.0072
   64MOL   O40735813   0.533   4.297   0.274 -0.0687 -0.1620 -0.2072
   64MOL   C40835814   0.582   3.992   0.473 -0.4488  0.6872  0.7585
   64MOL   C40935815   0.528   3.925   0.584 -0.4202 -0.1579  0.0375
   64MOL   H41035816   0.139   4.152   1.276 -0.2119 -0.0173  0.5107
   64MOL   H41135817   0.028   4.018   1.270 -1.0196  0.2911 -1.7533
   64MOL   H41235818   0.192   3.934   1.133 -1.6668 -0.3929 -0.0056
   64MOL   H41335819   0.242   4.085   1.062  0.9992 -1.5870 -2.1131
   64MOL   H41435820   8.079   3.941   0.988  0.9208  0.7412 -0.8229
   64MOL   H41535821   0.052   4.065   0.892  2.1136 -3.1653 -3.9768
   64MOL   H41635822   0.204   3.817   0.961  1.6284  1.3579 -0.0954
   64MOL   H41735823   0.085   3.829   0.835 -0.3837  0.5325 -0.8485
   64MOL   H41835824   0.250   4.125   0.626 -0.1717 -1.0025 -0.9283
   64MOL   H41935825   0.360   4.247   0.443  0.8642  0.7445  0.1053
   64MOL   H42035826   0.681   3.962   0.441 -0.6668  0.9390 -0.1581
   64MOL   H42135827   0.579   3.845   0.636  2.5525  0.0028 -2.4422
   64MOL   O42235828   0.704   4.154   0.279 -0.3226  0.6287 -0.4995
   64MOL   C42335829   0.770   4.213   0.169 -0.5090 -0.2323 -0.0933
   64MOL   C42435830   0.909   4.162   0.163  0.0275 -0.0313  0.0099
   64MOL   C42535831   0.998   4.247   0.070 -0.0050  1.0051  0.0488
   64MOL   C42635832   1.135   4.175   0.049  0.7469  0.3811  0.1618
   64MOL   O42735833   1.223   4.196   0.164  0.2682  0.2031 -0.5896
   64MOL   C42835834   1.348   4.162   0.150  0.3002  0.0675 -0.6661
   64MOL   O42935835   1.393   4.128   0.040 -0.0642 -1.1061  0.0810
   64MOL   C43035836   1.418   4.169   0.287  0.4790 -0.1375  0.7201
   64MOL   C43135837   1.556   4.157   0.283  0.0910  0.2660 -0.9196
   64MOL   C43235838   1.617   4.160   0.406 -0.3758 -0.0341  0.2513
   64MOL   C43335839   1.547   4.180   0.530 -0.3889  0.3753 -0.4503
   64MOL   C43435840   1.626   4.186   0.659 -0.0320 -0.4308 -0.4802
   64MOL   O43535841   1.570   4.201   0.768  0.2080 -0.0196  0.3959
   64MOL   C43635842   1.406   4.181   0.529  0.0596 -0.0236 -0.6530
   64MOL   C43735843   1.341   4.177   0.408 -0.0184  0.0236  0.1580
   64MOL   H43835844   0.711   4.193   0.080 -1.7183  4.2871 -0.4281
   64MOL   H43935845   0.775   4.321   0.184  0.8107 -0.2643 -0.3181
   64MOL   H44035846   0.907   4.059   0.127  0.8616 -0.1219  0.1950
   64MOL   H44135847   0.962   4.172   0.258  0.4411  3.5843 -0.5297
   64MOL   H44235848   0.943   4.246   8.075  0.8364  0.3806 -0.4470
   64MOL   H44335849   1.005   4.350   0.104 -0.8676  1.4495 -1.1134
   64MOL   H44435850   1.123   4.066   0.046  2.2581  0.0869  2.6253
   64MOL   H44535851   1.182   4.216   8.059 -1.5710  0.3160 -1.1257
   64MOL   H44635852   1.614   4.178   0.194  1.0519  0.5679 -0.2243
   64MOL   H44735853   1.724   4.149   0.394 -0.7005 -3.4622  0.0434
   64MOL   H44835854   1.338   4.203   0.611 -0.5362  0.3695 -1.2491
   64MOL   H44935855   1.233   4.185   0.415 -0.1137 -0.5290 -0.6553
   64MOL   O45035856   1.761   4.164   0.645 -0.3097  0.1156  0.0964
   64MOL   C45135857   1.846   4.149   0.752  0.0461 -0.2801 -0.9399
   64MOL   C45235858   1.985   4.202   0.714  0.8507  0.3983  0.0692
   64MOL   C45335859   2.020   4.150   0.571  0.2511  1.0011  0.0228
   64MOL   C45435860   2.163   4.169   0.529 -0.0207  0.0917 -1.0427
   64MOL   O45535861   2.185   4.121   0.398 -0.1890  0.1949  0.4962
   64MOL   C45635862   2.318   4.103   0.371  0.2651 -0.3624  0.5951
   64MOL   O45735863   2.404   4.159   0.435 -0.7081  0.3800 -0.0996
   64MOL   C45835864   2.347   4.023   0.251  0.0712  1.1098  0.3448
   64MOL   C45935865   2.238   3.980   0.166 -0.1816 -0.7014  0.5631
   64MOL   C46035866   2.271   3.916   0.047  0.7445  0.8619  0.3969
   64MOL   C46135867   2.407   3.887   0.015 -0.3756  0.1171 -0.6865
   64MOL   C46235868   2.431   3.815   7.988  0.1413  0.2729 -0.4442
   64MOL   O46335869   2.547   3.766   7.966  0.4075 -0.0558  0.3596
   64MOL   C46435870   2.512   3.920   0.100 -0.2281 -0.4889 -0.0357
   64MOL   C46535871   2.480   3.987   0.217 -0.8078 -0.3085  0.8542
   64MOL   H46635872   1.806   4.189   0.845 -0.7895 -1.1354 -0.9227
   64MOL   H46735873   1.855   4.042   0.770 -1.2091 -0.1144  0.6964
   64MOL   H46835874   2.052   4.162   0.790  1.5676  2.3635  0.5164
   64MOL   H46935875   1.985   4.311   0.715  0.4950  0.4307 -1.6246
   64MOL   H47035876   1.991   4.047   0.548 -0.5005  1.9199 -3.4685
   64MOL   H47135877   1.957   4.208   0.503  1.8302  0.7510 -1.6867
   64MOL   H47235878   2.170   4.277   0.522 -0.3850  0.1815 -0.1004
   64MOL   H47335879   2.233   4.135   0.605  2.9377 -1.0191 -4.1385
   64MOL   H47435880   2.137   4.017   0.180  0.4468  1.5060 -0.4821
   64MOL   H47535881   2.182   3.897   8.087  0.1563 -2.1695  2.1384
   64MOL   H47635882   2.617   3.908   0.080 -0.3249  1.1883 -1.6134
   64MOL   H47735883   2.555   4.009   0.291 -1.0746 -2.6449  1.8548
   64MOL   O47835884   2.331   3.806   7.904  0.0201  0.5175 -0.0555
   64MOL   C47935885   2.346   3.740   7.784  0.3617  0.1383  0.6240
   64MOL   C48035886   2.361   3.829   7.661  0.3909 -0.5592 -0.5463
   64MOL   C48135887   2.498   3.907   7.662  0.3365  0.6757  0.0045
   64MOL   C48235888   2.526   3.989   7.532  0.5788  0.9625  0.3456
   64MOL   O48335889   2.448   4.111   7.514  0.1044  0.1518  0.2964
   64MOL   C48435890   2.502   4.234   7.526  0.6744 -0.1605  0.1768
   64MOL   O48535891   2.617   4.260   7.551 -0.2173 -0.2959  0.7286
   64MOL   C48635892   2.393   4.331   7.498 -0.1674  0.1503  0.3420
   64MOL   C48735893   2.433   4.466   7.489  0.0659  0.9599 -0.1833
   64MOL   C48835894   2.339   4.570   7.473 -0.7785  0.6390  0.0535
   64MOL   C48935895   2.197   4.537   7.468  0.1267  0.2180 -0.2341
   64MOL   C49035896   2.092   4.641   7.463  0.4439 -0.7454  0.5340
   64MOL   O49135897   1.971   4.623   7.462 -0.3621 -0.3303 -0.2462
   64MOL   C49235898   2.158   4.403   7.479  0.7667  0.7463 -0.1879
   64MOL   C49335899   2.255   4.301   7.495 -0.2532 -0.1470 -0.3138
   64MOL   H49435900   2.435   3.678   7.790  1.3244  1.3698 -0.7411
   64MOL   H49535901   2.260   3.678   7.759  0.5404 -0.0245  0.4052
   64MOL   H49635902   2.272   3.887   7.641 -0.4124 -1.2503  0.9691
   64MOL   H49735903   2.377   3.760   7.578 -3.1921 -1.6722 -0.4026
   64MOL   H49835904   2.505   3.956   7.760  0.7042  0.6798 -0.0222
   64MOL   H49935905   2.579   3.835   7.666 -2.3133 -2.4801 -0.9508
   64MOL   H50035906   2.629   4.022   7.520  0.2262  2.6549  1.8322
   64MOL   H50135907   2.503   3.919   7.451  0.7556  1.0861  0.1884
   64MOL   H50235908   2.539   4.486   7.483  0.1805  0.0555 -1.2800
   64MOL   H50335909   2.378   4.671   7.465  0.5204  0.0939 -0.5338
   64MOL   H50435910   2.054   4.375   7.483  0.1977  2.9354  0.5920
   64MOL   H50535911   2.218   4.200   7.507  1.6540 -0.8990 -0.4736
   64MOL   O50635912   2.151   4.758   7.476  0.3023 -0.3043 -0.4051
   64MOL   C50735913   2.088   4.882   7.468  0.3152 -0.6173 -0.4186
   64MOL   C50835914   2.112   4.950   7.327 -0.6837  0.1110 -0.0207
   64MOL   C50935915   2.247   5.019   7.305 -0.4426 -0.2169  0.7167
   64MOL   C51035916   2.375   4.937   7.283 -0.3039  0.1774  0.1512
   64MOL   O51135917   2.370   4.890   7.152  0.1679  0.2941  0.0416
   64MOL   C51235918   2.474   4.826   7.100 -0.1628 -0.4991 -0.1244
   64MOL   O51335919   2.578   4.803   7.164  0.2022 -0.1728 -0.2578
   64MOL   C51435920   2.451   4.784   6.960  0.1838 -0.1049  0.4246
   64MOL   C51535921   2.567   4.767   6.882  0.0735 -0.5511 -0.8933
   64MOL   C51635922   2.546   4.722   6.750  0.3532 -0.5388  0.0868
   64MOL   C51735923   2.415   4.694   6.703  0.9896 -0.0407 -0.2781
   64MOL   C51835924   2.386   4.625   6.570 -0.3868  0.4891  0.1208
   64MOL   O51935925   2.276   4.619   6.516 -0.1233 -0.1344  0.2393
   64MOL   C52035926   2.302   4.727   6.777  0.6009 -0.2178  0.1723
   64MOL   C52135927   2.321   4.761   6.909 -0.1259  0.0814  0.0236
   64MOL   H52235928   1.982   4.874   7.490 -0.4496  0.0307 -3.6378
   64MOL   H52335929   2.123   4.960   7.536  3.2634 -0.5665 -1.9206
   64MOL   H52435930   2.036   5.027   7.313 -1.9144 -1.0333  0.3667
   64MOL   H52535931   2.099   4.884   7.241  1.8399  1.3316 -1.4130
   64MOL   H52635932   2.237   5.102   7.236  1.9359 -1.6580 -1.4676
   64MOL   H52735933   2.270   5.081   7.392  1.2003 -0.0911  0.2131
   64MOL   H52835934   2.465   4.998   7.287 -1.2866  1.5709  1.5220
   64MOL   H52935935   2.393   4.857   7.356  1.8366 -0.6697 -1.2605
   64MOL   H53035936   2.663   4.789   6.928 -0.7681  1.3495 -0.0282
   64MOL   H53135937   2.621   4.700   6.676  0.9474  1.0312  0.1836
   64MOL   H53235938   2.204   4.698   6.742  1.2852 -1.5043 -0.7424
   64MOL   H53335939   2.228   4.776   6.964 -0.3646 -2.0538  0.2442
   64MOL   O53435940   2.496   4.564   6.525 -0.4704 -0.2927  0.2989
   64MOL   C53535941   2.490   4.520   6.392 -0.2852  0.5771  0.1106
   64MOL   C53635942   2.631   4.534   6.337  0.4977  0.1658 -0.8771
   64MOL   C53735943   2.652   4.529   6.186 -0.1042 -0.5753 -0.5598
   64MOL   C53835944   2.628   4.666   6.107 -0.0195 -0.1063  1.2961
   64MOL   O53935945   2.495   4.711   6.136  0.2298  0.4903 -0.2758
   64MOL   C54035946   2.452   4.834   6.098  0.7335  0.2737  0.0574
   64MOL   O54135947   2.528   4.913   6.043  0.2201  0.2143  0.0826
   64MOL   C54235948   2.309   4.858   6.136  0.0878  0.1796 -0.0534
   64MOL   C54335949   2.250   4.977   6.093 -0.1098 -0.2426 -0.2874
   64MOL   C54435950   2.111   4.995   6.110  0.3159 -0.6743  0.6277
   64MOL   C54535951   2.028   4.894   6.168 -0.1738 -0.1949  0.7044
   64MOL   C54635952   1.880   4.918   6.152 -0.7168 -0.2901 -0.0404
   64MOL   O54735953   1.838   5.013   6.087  0.1289  0.2942 -0.1767
   64MOL   C54835954   2.086   4.773   6.217  0.2313 -0.5262 -0.8666
   64MOL   C54935955   2.224   4.761   6.208 -0.6657  0.4854  0.4441
   64MOL   H55035956   2.460   4.415   6.382 -0.2788  0.5240  0.6338
   64MOL   H55135957   2.421   4.583   6.337 -0.7539 -1.0519 -1.2216
   64MOL   H55235958   2.686   4.447   6.371  0.3232  0.4555  0.1808
   64MOL   H55335959   2.678   4.625   6.376 -3.6026  2.3133 -0.6110
   64MOL   H55435960   2.755   4.498   6.166 -0.6442 -2.2267 -0.8225
   64MOL   H55535961   2.597   4.445   6.144 -1.1885 -0.7693  1.2123
   64MOL   H55635962   2.699   4.739   6.145 -1.1786  1.5071  0.4185
   64MOL   H55735963   2.633   4.640   6.002 -1.7641 -3.3157  1.9360
   64MOL   H55835964   2.304   5.052   6.038  0.4229  0.3813  1.0767
   64MOL   H55935965   2.074   5.093   6.085  0.0941 -0.3729  2.1150
   64MOL   H56035966   2.025   4.691   6.253 -1.7558  0.7796 -1.1497
   64MOL   H56135967   2.271   4.667   6.235  1.4435  1.6591  1.0236
   64MOL   H56235968   1.811   4.841   6.188 -1.2989 -0.2002 -0.9353
   65MOL     O135969   7.353   6.665   4.667 -0.0606 -0.3723 -0.5564
   65MOL     C235970   7.280   6.781   4.615 -0.5016 -1.0461 -0.4689
   65MOL     C335971   7.312   6.914   4.692  0.4518 -0.0357  0.2387
   65MOL     C435972   7.306   6.908   4.848 -0.2351 -0.1386 -0.1937
   65MOL     C535973   7.178   6.852   4.906 -0.1481 -0.5394  0.3668
   65MOL     O635974   7.169   6.860   5.049  0.2938  0.9965  0.5089
   65MOL     C735975   7.085   6.951   5.113  0.4605  0.3445  0.4270
   65MOL     O835976   7.018   7.032   5.052 -0.1495  0.1667  0.2578
   65MOL     C935977   7.081   6.954   5.261  0.4200 -0.4480  0.0054
   65MOL    C1035978   6.978   7.033   5.324 -0.2305 -0.0653 -0.0706
   65MOL    C1135979   6.985   7.036   5.461  0.5790 -0.0905 -0.1657
   65MOL    C1235980   7.071   6.959   5.539 -0.3269 -0.7937 -0.5927
   65MOL    C1335981   7.066   6.972   5.690 -0.1654  0.0125  0.2812
   65MOL    O1435982   6.987   7.046   5.750 -0.1869  0.1197 -0.4123
   65MOL    C1535983   7.162   6.878   5.475 -0.5742 -0.4105  0.4900
   65MOL    C1635984   7.166   6.870   5.338  0.2819  0.3070 -0.3578
   65MOL    H1735985   7.293   6.790   4.507  0.8207 -1.6925 -0.3850
   65MOL    H1835986   7.172   6.768   4.623 -0.4190 -1.1911  0.5771
   65MOL    H1935987   7.244   6.993   4.660  0.3544  0.3147  1.2984
   65MOL    H2035988   7.406   6.955   4.653  0.4068 -1.6492 -1.6478
   65MOL    H2135989   7.390   6.851   4.888 -0.8140  0.9779  2.7458
   65MOL    H2235990   7.311   7.008   4.891  1.7291 -0.3640  0.1618
   65MOL    H2335991   7.092   6.906   4.865  1.9259  0.3480 -3.0592
   65MOL    H2435992   7.164   6.748   4.878 -0.3622 -0.4447  0.1207
   65MOL    H2535993   6.900   7.082   5.268  0.6481 -0.1786 -1.4270
   65MOL    H2635994   6.903   7.090   5.506  1.5889  0.3311  1.2053
   65MOL    H2735995   7.231   6.816   5.529  1.1116 -0.4040 -1.6003
   65MOL    H2835996   7.245   6.816   5.288 -0.0274 -0.9395  0.4969
   65MOL    H2935997   7.446   6.681   4.665  0.1279 -1.5102 -1.4289
   65MOL    O3035998   7.148   6.877   5.754  0.4671 -0.6723 -0.1446
   65MOL    C3135999   7.170   6.887   5.896 -0.2498 -0.2398  0.4276
   65MOL    C3236000   7.092   6.777   5.974  0.3665  0.2265  0.0027
   65MOL    C3336001   7.127   6.771   6.125  0.1156 -0.1124 -0.9058
   65MOL    C3436002   7.090   6.896   6.209  0.6063 -0.1055 -0.1191
   65MOL    O3536003   7.131   7.026   6.162 -0.4741  0.1084 -0.2543
   65MOL    C3636004   7.228   7.087   6.224  0.9371 -0.2009 -0.1485
   65MOL    O3736005   7.309   7.035   6.308  0.2122  0.1853  0.4033
   65MOL    C3836006   7.232   7.231   6.177  1.0767  0.1609  0.2109
   65MOL    C3936007   7.136   7.292   6.093 -0.5148  0.1060 -0.5000
   65MOL    C4036008   7.139   7.434   6.081 -0.1488 -0.2402 -0.2935
   65MOL    C4136009   7.221   7.518   6.154  0.4436  0.2566  0.5781
   65MOL    C4236010   7.225   7.663   6.130 -0.4836 -0.8934  0.1367
   65MOL    O4336011   7.165   7.719   6.038 -0.1514  0.3415 -0.1312
   65MOL    C4436012   7.315   7.455   6.234  0.2323  0.3475  0.0981
   65MOL    C4536013   7.320   7.315   6.245  0.9617  0.4011 -0.1175
   65MOL    H4636014   7.277   6.883   5.917 -0.3575  1.7263  1.4316
   65MOL    H4736015   7.148   6.988   5.930  0.2345  0.2585 -0.6949
   65MOL    H4836016   7.107   6.681   5.924 -0.1584  1.0529 -1.7707
   65MOL    H4936017   6.987   6.801   5.957  0.6182 -0.6325 -3.1246
   65MOL    H5036018   7.080   6.685   6.172 -0.8923  0.0331 -1.6359
   65MOL    H5136019   7.230   6.741   6.142 -0.2157 -0.8162 -0.0891
   65MOL    H5236020   6.983   6.898   6.228 -0.1937 -0.5126 -4.1465
   65MOL    H5336021   7.124   6.880   6.311  0.2936 -1.7036 -0.2524
   65MOL    H5436022   7.052   7.240   6.051 -1.4519  0.8495  0.4106
   65MOL    H5536023   7.068   7.490   6.023  0.3938 -0.1740 -0.8971
   65MOL    H5636024   7.399   7.500   6.285  0.6533 -1.7046  1.2638
   65MOL    H5736025   7.380   7.268   6.321  2.2876 -0.1045 -1.4577
   65MOL    O5836026   7.304   7.736   6.212 -0.2957 -0.5821 -0.1353
   65MOL    C5936027   7.305   7.885   6.200  0.0602  0.0813  0.0848
   65MOL    C6036028   7.433   7.945   6.145  0.9658  0.3309  0.0198
   65MOL    C6136029   7.408   8.081   6.087 -0.3870  0.2223  0.1509
   65MOL    C6236030   7.532   0.057   6.041  0.0858 -0.0334  0.4117
   65MOL    O6336031   7.501   0.168   5.950  0.1769 -0.2458  0.2601
   65MOL    C6436032   7.588   0.268   5.941 -0.3762 -0.8472  0.3110
   65MOL    O6536033   7.699   0.267   5.993  0.3692 -0.4492  0.0051
   65MOL    C6636034   7.530   0.391   5.880 -0.4982  0.2525  0.4119
   65MOL    C6736035   7.397   0.390   5.827 -0.0234  0.3268  0.2537
   65MOL    C6836036   7.349   0.507   5.775  0.5853 -0.8977  0.1662
   65MOL    C6936037   7.429   0.622   5.757  0.2986  0.0617  0.4329
   65MOL    C7036038   7.370   0.747   5.700  0.3514 -0.5246  0.7592
   65MOL    O7136039   7.426   0.860   5.689  0.1392  0.5992  0.6002
   65MOL    C7236040   7.561   0.623   5.802  0.0399 -0.4900  0.0428
   65MOL    C7336041   7.609   0.508   5.869  0.5288 -0.0560 -0.3541
   65MOL    H7436042   7.222   7.916   6.137  1.2030  0.4426 -1.2623
   65MOL    H7536043   7.290   7.919   6.303 -0.4348  2.1061 -0.6520
   65MOL    H7636044   7.488   7.875   6.082  0.6378 -0.2922  0.4207
   65MOL    H7736045   7.509   7.967   6.220  1.0080  0.4763 -0.0659
   65MOL    H7836046   7.329   8.073   6.012 -0.5479  1.9901  0.1096
   65MOL    H7936047   7.346   0.053   6.143 -0.4803  0.3083 -0.0594
   65MOL    H8036048   7.576   0.094   6.134  0.2185  3.3196 -0.9121
   65MOL    H8136049   7.599   8.083   5.995  1.4068  1.9268 -0.8597
   65MOL    H8236050   7.328   0.308   5.815  0.6339  0.0622 -1.7994
   65MOL    H8336051   7.248   0.512   5.737  0.3149 -1.9354  0.7306
   65MOL    H8436052   7.617   0.715   5.790  0.9900 -1.0722 -0.1257
   65MOL    H8536053   7.715   0.515   5.892  0.3044  0.9636  0.4234
   65MOL    O8636054   7.249   0.721   5.651  0.6308 -0.4467  0.1324
   65MOL    C8736055   7.184   0.829   5.587 -0.5473 -0.3517  0.3561
   65MOL    C8836056   7.064   0.776   5.508 -0.2967 -0.0737 -0.0561
   65MOL    C8936057   6.988   0.879   5.423 -0.2145  0.3966 -0.3332
   65MOL    C9036058   6.896   0.970   5.504 -1.0873 -0.4110  0.2910
   65MOL    O9136059   6.977   1.061   5.572 -0.3366 -0.3261 -0.1015
   65MOL    C9236060   6.934   1.185   5.593 -0.6723 -0.4269 -0.9678
   65MOL    O9336061   6.815   1.224   5.560  0.0655  0.0860 -0.0624
   65MOL    C9436062   7.042   1.277   5.642  0.0406  0.3231  0.0468
   65MOL    C9536063   7.017   1.413   5.632  0.5968 -0.0060  0.0578
   65MOL    C9636064   7.120   1.504   5.670  0.1673 -0.4681 -0.2648
   65MOL    C9736065   7.235   1.457   5.732 -0.3479  0.4880  0.4801
   65MOL    C9836066   7.335   1.557   5.772 -1.2246  1.1539  0.5098
   65MOL    O9936067   7.313   1.677   5.765  0.0998 -0.2135  0.0736
   65MOL   C10036068   7.249   1.317   5.763 -0.1276 -0.1172 -0.1364
   65MOL   C10136069   7.154   1.229   5.713 -0.0296  0.3907 -0.0045
   65MOL   H10236070   7.167   0.902   5.666  1.7625 -0.2765  0.8368
   65MOL   H10336071   7.262   0.874   5.525  2.1109 -2.0181  2.3322
   65MOL   H10436072   6.992   0.732   5.577  2.0455 -2.8630  0.6989
   65MOL   H10536073   7.106   0.702   5.439  1.4673  1.5868 -0.7967
   65MOL   H10636074   7.049   0.940   5.356  0.0387  1.8906  1.2453
   65MOL   H10736075   6.931   0.822   5.349 -0.7032  0.9385 -0.3751
   65MOL   H10836076   6.828   1.027   5.440 -0.2284 -0.1992 -0.4473
   65MOL   H10936077   6.844   0.905   5.574  0.4236 -1.9328  0.0210
   65MOL   H11036078   6.929   1.443   5.578  1.8383  0.5365 -1.7122
   65MOL   H11136079   7.108   1.609   5.646 -2.7013 -0.5266  0.6830
   65MOL   H11236080   7.337   1.279   5.813 -0.2068 -0.3457 -0.1741
   65MOL   H11336081   7.163   1.121   5.722  0.6484  0.5471  1.3036
   65MOL   O11436082   7.451   1.506   5.811 -0.1256  0.2674  0.8359
   65MOL   C11536083   7.552   1.601   5.848  0.1930 -0.8383  0.2244
   65MOL   C11636084   7.542   1.622   6.000 -0.5780  0.2328 -0.6095
   65MOL   C11736085   7.584   1.500   6.088  0.2642 -0.2157  0.0400
   65MOL   C11836086   7.511   1.491   6.223  0.0540 -0.2751 -0.5391
   65MOL   O11936087   7.378   1.451   6.198  0.0449 -0.1936 -0.1661
   65MOL   C12036088   7.299   1.416   6.297  0.1632 -0.1448  0.0162
   65MOL   O12136089   7.320   1.428   6.416  0.1652 -0.2561 -0.0342
   65MOL   C12236090   7.173   1.373   6.242 -0.2563 -0.3645  0.5294
   65MOL   C12336091   7.142   1.383   6.103  0.0283  0.2639  0.1695
   65MOL   C12436092   7.035   1.308   6.048  0.3494  0.1143  0.7462
   65MOL   C12536093   6.955   1.228   6.125 -0.2663 -0.1291  0.0211
   65MOL   C12636094   6.843   1.152   6.056 -0.5517  0.4979 -0.3755
   65MOL   O12736095   6.826   1.137   5.934 -0.0271 -0.4383 -0.8555
   65MOL   C12836096   6.977   1.235   6.265  0.4499  1.1788 -0.1153
   65MOL   C12936097   7.077   1.311   6.323  0.5213  0.1042 -0.4294
   65MOL   H13036098   7.650   1.557   5.832  0.2947 -0.1457 -1.1203
   65MOL   H13136099   7.549   1.696   5.796 -0.4225 -1.1504 -0.3160
   65MOL   H13236100   7.443   1.652   6.033 -0.2841 -0.2947  0.8255
   65MOL   H13336101   7.600   1.705   6.039  0.7290 -0.1994 -1.6139
   65MOL   H13436102   7.566   1.408   6.034 -0.9162  0.3168 -0.4881
   65MOL   H13536103   7.693   1.505   6.095  0.4366  0.6777 -2.6825
   65MOL   H13636104   7.557   1.409   6.278 -0.8068 -0.1833  0.3272
   65MOL   H13736105   7.538   1.584   6.272 -0.1974 -0.7804  0.5590
   65MOL   H13836106   7.214   1.427   6.035 -3.1840  0.8331 -3.0394
   65MOL   H13936107   7.020   1.314   5.941 -1.6156  0.2726  1.0092
   65MOL   H14036108   6.913   1.186   6.337  3.2751  0.7095  2.1933
   65MOL   H14136109   7.095   1.285   6.426 -0.5349 -0.9934 -0.5084
   65MOL   O14236110   6.771   1.086   6.147 -0.2270  0.0126  0.0899
   65MOL   C14336111   6.673   1.002   6.111  0.8907  0.1491 -0.7759
   65MOL   C14436112   6.714   0.854   6.135  1.1849 -0.6335  0.1323
   65MOL   C14536113   6.771   0.814   6.277 -0.2832 -0.1593  0.5790
   65MOL   C14636114   6.680   0.856   6.394  0.4137 -0.6632  0.1335
   65MOL   O14736115   6.550   0.810   6.360  0.0924 -0.1329 -0.2370
   65MOL   C14836116   6.443   0.839   6.436 -0.9690  0.0544 -0.2738
   65MOL   O14936117   6.454   0.905   6.543 -0.0551 -0.4896 -0.4210
   65MOL   C15036118   6.310   0.801   6.376  0.1355  0.2586  0.4800
   65MOL   C15136119   6.298   0.777   6.237 -0.0185 -0.2350 -0.4786
   65MOL   C15236120   6.171   0.734   6.181  0.4582  0.9999  0.7689
   65MOL   C15336121   6.055   0.721   6.258 -0.0844  0.3305  0.4771
   65MOL   C15436122   5.922   0.695   6.197 -0.1868 -0.3097 -0.0411
   65MOL   O15536123   5.910   0.699   6.077  0.3256  0.5871 -0.1478
   65MOL   C15636124   6.069   0.741   6.395 -0.6210  0.4555 -0.9238
   65MOL   C15736125   6.195   0.783   6.453 -0.0069  0.2871 -0.0377
   65MOL   H15836126   6.573   1.027   6.146  0.4826  0.2353 -1.9736
   65MOL   H15936127   6.661   1.010   6.003 -0.2079 -0.9864 -0.7469
   65MOL   H16036128   6.801   0.838   6.072 -0.5235 -0.2454 -2.3937
   65MOL   H16136129   6.633   0.789   6.104  1.0443 -0.4112  0.0293
   65MOL   H16236130   6.802   0.709   6.274 -2.8405 -0.9158 -0.4141
   65MOL   H16336131   6.861   0.872   6.300  0.4395 -1.3840  0.8969
   65MOL   H16436132   6.713   0.825   6.493 -2.3811  0.0414  1.3234
   65MOL   H16536133   6.683   0.965   6.388  2.7071 -0.7350 -0.5665
   65MOL   H16636134   6.387   0.770   6.175 -1.2955 -0.6511 -2.3040
   65MOL   H16736135   6.171   0.720   6.074  1.1508 -1.0636  1.0191
   65MOL   H16836136   5.984   0.721   6.458 -1.8134 -1.9012 -3.1833
   65MOL   H16936137   6.207   0.796   6.560  2.3860 -1.5135 -0.0419
   65MOL   O17036138   5.822   0.671   6.290  0.7111  0.0997 -0.3060
   65MOL   C17136139   5.690   0.642   6.256 -0.2759 -0.2527  0.3068
   65MOL   C17236140   5.618   0.590   6.384  0.3031  0.0132 -0.7142
   65MOL   C17336141   5.467   0.603   6.376 -0.4864 -0.2451  0.2651
   65MOL   C17436142   5.407   0.500   6.286  0.2015 -0.1119  1.0898
   65MOL   O17536143   5.430   0.543   6.155 -0.0116  0.0414  0.5837
   65MOL   C17636144   5.429   0.446   6.053 -0.1149  0.2567  0.3479
   65MOL   O17736145   5.422   0.322   6.072  0.4283  0.0565  0.1684
   65MOL   C17836146   5.440   0.513   5.924  0.5585  1.1586 -0.0943
   65MOL   C17936147   5.411   0.440   5.806 -0.5344  1.0902 -0.7994
   65MOL   C18036148   5.425   0.500   5.679  0.5096  0.4944 -0.0774
   65MOL   C18136149   5.462   0.634   5.665  0.5717  0.1728  0.3474
   65MOL   C18236150   5.487   0.692   5.530  0.3192  0.3537  0.2261
   65MOL   O18336151   5.523   0.624   5.434  0.1116  0.1581  0.1494
   65MOL   C18436152   5.488   0.709   5.784 -0.4171 -0.2891 -0.2912
   65MOL   C18536153   5.479   0.644   5.912  0.3346  0.1192  0.2095
   65MOL   H18636154   5.656   0.736   6.213  2.5482 -0.2219 -1.9683
   65MOL   H18736155   5.701   0.572   6.173  3.3640  1.9748 -1.1810
   65MOL   H18836156   5.649   0.663   6.459  1.4707 -0.8392 -0.3338
   65MOL   H18936157   5.648   0.488   6.408 -1.2343 -0.1679  0.5247
   65MOL   H19036158   5.426   0.597   6.477 -0.6644  0.8645  0.2667
   65MOL   H19136159   5.436   0.704   6.351  0.0738 -0.3070 -0.7042
   65MOL   H19236160   5.453   0.402   6.295 -2.5717 -1.5722  0.1179
   65MOL   H19336161   5.302   0.481   6.309  0.1174 -0.5963  0.3197
   65MOL   H19436162   5.377   0.338   5.817 -0.4835  1.2005  0.4246
   65MOL   H19536163   5.405   0.437   5.593 -0.9524  0.4786  0.2604
   65MOL   H19636164   5.520   0.811   5.779 -2.8110  0.5428  0.6017
   65MOL   H19736165   5.509   0.705   5.996 -0.3248  1.6230 -0.6296
   65MOL   O19836166   5.461   0.824   5.520  0.1062 -0.7728  0.1970
   65MOL   C19936167   5.461   0.884   5.390 -0.0220 -0.3027 -0.2680
   65MOL   C20036168   5.387   1.014   5.399 -1.0249 -0.3352 -0.4816
   65MOL   C20136169   5.233   0.999   5.386 -0.7550 -0.4640 -0.2459
   65MOL   C20236170   5.152   1.128   5.381  0.0424  0.1301  0.4813
   65MOL   O20336171   5.021   1.105   5.330  0.2552 -0.3340  0.2332
   65MOL   C20436172   5.013   1.098   5.192 -0.8153  0.1524  0.4908
   65MOL   O20536173   5.119   1.092   5.120  0.4927  0.0946  0.0657
   65MOL   C20636174   4.877   1.077   5.146 -0.5321  0.2397  0.2411
   65MOL   C20736175   4.776   1.007   5.215 -0.1605  0.1345  0.7358
   65MOL   C20836176   4.651   0.981   5.159  0.3306 -0.2610  0.3812
   65MOL   C20936177   4.634   1.004   5.018 -0.7004  0.1622 -0.5463
   65MOL   C21036178   4.509   0.964   4.949 -0.5098 -0.4481 -0.9458
   65MOL   O21136179   4.491   1.008   4.830  0.5490  0.0048 -0.4190
   65MOL   C21236180   4.735   1.067   4.946  0.7576  0.0066 -0.4400
   65MOL   C21336181   4.853   1.102   5.006 -0.6645  0.3355  0.0515
   65MOL   H21436182   5.567   0.905   5.376  0.0148 -1.4263 -1.7293
   65MOL   H21536183   5.426   0.810   5.319 -0.3991 -0.0970 -0.2987
   65MOL   H21636184   5.418   1.080   5.318 -0.5826  1.6186  1.2174
   65MOL   H21736185   5.413   1.067   5.491  0.0906 -0.9510 -0.4292
   65MOL   H21836186   5.213   0.937   5.299  2.6388 -4.1634  1.4842
   65MOL   H21936187   5.192   0.935   5.464 -4.0371  3.2343  1.2567
   65MOL   H22036188   5.137   1.176   5.477  1.6874  1.9158 -0.1088
   65MOL   H22136189   5.192   1.210   5.321  0.6939 -0.6468 -0.1447
   65MOL   H22236190   4.793   0.975   5.317  1.3176 -0.0286  0.4470
   65MOL   H22336191   4.570   0.944   5.220 -0.5043 -0.8281 -1.0472
   65MOL   H22436192   4.714   1.092   4.843 -2.9024  1.4242  0.5780
   65MOL   H22536193   4.928   1.151   4.946 -1.1884  2.3248  0.9714
   65MOL   O22636194   4.439   0.873   5.011 -0.7771 -0.0289  0.4972
   65MOL   C22736195   4.319   0.829   4.948  0.3603 -0.2295 -0.3833
   65MOL   C22836196   4.350   0.694   4.867 -0.4477 -0.6787 -0.1031
   65MOL   C22936197   4.222   0.626   4.814  0.2658  0.2804 -0.1484
   65MOL   C23036198   4.138   0.714   4.731 -0.3806 -0.1593 -0.3086
   65MOL   O23136199   4.050   0.642   4.648  0.1900  0.3196  0.3940
   65MOL   C23236200   3.990   0.715   4.550 -0.2368  0.4996  0.0966
   65MOL   O23336201   3.998   0.838   4.530 -0.0801  0.3079  0.7741
   65MOL   C23436202   3.920   0.621   4.451  0.1759 -0.0619  0.6734
   65MOL   C23536203   3.919   0.479   4.460 -0.0299 -0.1743 -0.4935
   65MOL   C23636204   3.850   0.406   4.365  0.4442  0.4378 -0.8252
   65MOL   C23736205   3.780   0.463   4.254  0.1722  0.3754 -0.2854
   65MOL   C23836206   3.711   0.369   4.164 -0.0466  0.6818  0.3147
   65MOL   O23936207   3.700   0.253   4.182 -0.1040 -0.0772 -0.5095
   65MOL   C24036208   3.781   0.600   4.249  0.6880 -0.4482  0.4834
   65MOL   C24136209   3.853   0.680   4.338 -0.2732  0.4983 -0.1824
   65MOL   H24236210   4.242   0.801   5.020  1.0236 -1.0093  0.0337
   65MOL   H24336211   4.281   0.908   4.883  0.8548  0.8284  0.5960
   65MOL   H24436212   4.405   0.623   4.928  0.3157 -0.9011 -1.0454
   65MOL   H24536213   4.419   0.720   4.786  0.8317  1.0735  1.5027
   65MOL   H24636214   4.249   0.532   4.765  1.2975 -0.1636  1.2147
   65MOL   H24736215   4.170   0.585   4.901  0.2122  2.2309  0.7439
   65MOL   H24836216   4.086   0.794   4.783  0.5493 -1.2443  2.3982
   65MOL   H24936217   4.207   0.760   4.661 -1.1781  0.6413 -0.5823
   65MOL   H25036218   3.944   0.438   4.557 -1.4727  0.7067  0.2835
   65MOL   H25136219   3.838   0.300   4.383  0.0841  0.1528 -2.6064
   65MOL   H25236220   3.752   0.651   4.159 -1.9378 -1.4949  0.7020
   65MOL   H25336221   3.861   0.785   4.316  1.6410  0.5339  0.6097
   65MOL   O25436222   3.652   0.433   4.058  0.3104  0.4217  0.4374
   65MOL   C25536223   3.582   0.347   3.962 -0.6796  0.2961  0.2160
   65MOL   C25636224   3.497   0.430   3.866 -0.6220  0.2186 -0.3204
   65MOL   C25736225   3.581   0.535   3.784  0.0034 -0.1801  1.5799
   65MOL   C25836226   3.517   0.606   3.664 -1.0800 -0.5327 -0.1199
   65MOL   O25936227   3.601   0.719   3.616  0.7388  0.0473  0.0549
   65MOL   C26036228   3.534   0.808   3.537 -0.3360 -0.2669  0.4491
   65MOL   O26136229   3.432   0.779   3.475  0.2097 -0.1024 -0.2600
   65MOL   C26236230   3.606   0.938   3.523  0.2567 -1.2608  0.9090
   65MOL   C26336231   3.735   0.955   3.577 -0.2750 -0.3686 -0.5496
   65MOL   C26436232   3.806   1.072   3.547 -0.6275  0.2501 -0.3680
   65MOL   C26536233   3.746   1.180   3.479 -0.1343  0.1418 -0.9278
   65MOL   C26636234   3.839   1.294   3.441 -0.5772  0.3265 -0.4900
   65MOL   O26736235   3.957   1.296   3.466  0.0651  0.0589  0.1812
   65MOL   C26836236   3.616   1.168   3.430 -0.2866  0.9288  0.3565
   65MOL   C26936237   3.548   1.046   3.454  0.8712 -0.0461  0.9487
   65MOL   H27036238   3.652   0.280   3.913 -1.8720 -2.5092  2.1768
   65MOL   H27136239   3.505   0.284   4.007 -0.1085  1.5221  3.0226
   65MOL   H27236240   3.415   0.461   3.932 -0.3935 -2.9932  1.5531
   65MOL   H27336241   3.443   0.361   3.802 -0.4070 -2.2521  2.0761
   65MOL   H27436242   3.610   0.616   3.851  1.8627  0.2698  0.2911
   65MOL   H27536243   3.677   0.501   3.744 -0.3565  0.9758 -0.3666
   65MOL   H27636244   3.491   0.538   3.583  0.7241  1.1149 -2.1775
   65MOL   H27736245   3.427   0.656   3.698  0.3859  2.9050 -0.9984
   65MOL   H27836246   3.790   0.891   3.645  0.6064 -0.6241 -1.4882
   65MOL   H27936247   3.902   1.080   3.596 -0.8599  2.4363 -0.2501
   65MOL   H28036248   3.567   1.243   3.370  1.4310  1.2356 -0.6805
   65MOL   H28136249   3.448   1.028   3.419  1.1962 -0.1456  0.0635
   65MOL   O28236250   3.775   1.394   3.390  0.9048 -0.3856  0.2127
   65MOL   C28336251   3.844   1.512   3.361  1.1532  0.3749 -0.1594
   65MOL   C28436252   3.736   1.619   3.310  0.0375 -0.8810 -0.1515
   65MOL   C28536253   3.801   1.738   3.249  0.0589 -0.0931 -0.0223
   65MOL   C28636254   3.880   1.691   3.123 -0.2385 -0.3344 -0.2780
   65MOL   O28736255   3.944   1.795   3.059  0.0339  0.2056  0.0360
   65MOL   C28836256   4.014   1.767   2.943 -0.3227  0.5158  0.0191
   65MOL   O28936257   4.045   1.651   2.904 -0.5139  0.4463 -0.0767
   65MOL   C29036258   4.063   1.889   2.868  0.3524  0.1650  0.3875
   65MOL   C29136259   4.048   2.015   2.933  0.5488 -0.4263 -0.4551
   65MOL   C29236260   4.084   2.134   2.863  0.7871 -0.0325  0.8982
   65MOL   C29336261   4.144   2.123   2.734  0.0732 -0.5106  0.6411
   65MOL   C29436262   4.166   2.248   2.649 -1.2541  0.3185  0.2909
   65MOL   O29536263   4.138   2.357   2.702 -0.1714  0.6223  0.1161
   65MOL   C29636264   4.169   1.996   2.671 -1.1169  0.2301 -0.2043
   65MOL   C29736265   4.129   1.877   2.739  0.4646 -0.0163 -0.6706
   65MOL   H29836266   3.911   1.554   3.435  0.4453  0.1624  0.6104
   65MOL   H29936267   3.911   1.484   3.280  0.4702 -3.9760  0.6509
   65MOL   H30036268   3.676   1.656   3.393  0.3790 -2.1451  0.6828
   65MOL   H30136269   3.667   1.566   3.244  0.8900  0.0372 -1.8067
   65MOL   H30236270   3.719   1.804   3.218 -1.6539 -3.2051 -2.5273
   65MOL   H30336271   3.875   1.791   3.309  0.8613  0.2984 -1.3142
   65MOL   H30436272   3.958   1.620   3.152  0.6112  1.7352  2.7918
   65MOL   H30536273   3.817   1.650   3.044  2.0952 -3.7429 -0.5024
   65MOL   H30636274   4.003   2.023   3.031  1.3039 -1.5360  0.0004
   65MOL   H30736275   4.067   2.235   2.898 -3.2596  0.9390 -3.3768
   65MOL   H30836276   4.190   1.981   2.566 -0.8405  1.4987 -0.3361
   65MOL   H30936277   4.135   1.774   2.706  1.7738 -0.8976  2.1626
   65MOL   O31036278   4.215   2.227   2.533 -0.1489  0.1785 -0.2975
   65MOL   C31136279   4.279   2.333   2.462  0.0584  0.4378 -0.2223
   65MOL   C31236280   4.395   2.274   2.377 -0.1979 -0.5497  0.0302
   65MOL   C31336281   4.489   2.197   2.480 -0.5197 -0.2837  0.4199
   65MOL   C31436282   4.587   2.115   2.407 -0.3483  0.0748  0.8565
   65MOL   O31536283   4.679   2.207   2.352  0.5617  0.0416  0.0923
   65MOL   C31636284   4.769   2.171   2.260  0.0350  0.7766  0.1770
   65MOL   O31736285   4.803   2.057   2.225 -0.4915 -0.6941 -0.2874
   65MOL   C31836286   4.835   2.293   2.204  0.9004  0.0586 -0.2398
   65MOL   C31936287   4.969   2.290   2.159  0.2986 -0.6976 -0.0611
   65MOL   C32036288   5.039   2.402   2.119  0.7484 -0.1996  0.9823
   65MOL   C32136289   4.975   2.527   2.130  0.0839  0.4939  0.0516
   65MOL   C32236290   5.050   2.651   2.088  0.1711 -0.0947  0.1716
   65MOL   O32336291   5.017   2.767   2.113  0.2804  0.4225  1.0359
   65MOL   C32436292   4.840   2.528   2.160 -0.0950  0.3073  0.7664
   65MOL   C32536293   4.767   2.415   2.200 -0.2999  0.3522  0.4532
   65MOL   H32636294   4.208   2.376   2.392  0.5593 -0.3774 -1.2501
   65MOL   H32736295   4.319   2.408   2.530  0.6035  0.5457 -0.6587
   65MOL   H32836296   4.452   2.353   2.329 -0.4229 -2.1297 -2.9475
   65MOL   H32936297   4.348   2.214   2.299 -0.2920  0.3637 -0.6333
   65MOL   H33036298   4.547   2.271   2.535 -1.7009 -0.6440  2.1932
   65MOL   H33136299   4.440   2.135   2.555  0.9388 -0.2782  1.3798
   65MOL   H33236300   4.651   2.047   2.463  2.0700  0.5314 -1.2540
   65MOL   H33336301   4.542   2.060   2.325  0.7471 -0.3824  0.5564
   65MOL   H33436302   5.023   2.196   2.150  0.7983 -0.5332  1.1594
   65MOL   H33536303   5.143   2.392   2.093  0.8757  2.2644  0.3451
   65MOL   H33636304   4.774   2.614   2.153  0.4328  0.6630  0.0621
   65MOL   H33736305   4.668   2.429   2.242  0.1054  0.4850  1.3801
   65MOL   O33836306   5.162   2.623   2.027 -0.4301  0.4256  0.3963
   65MOL   C33936307   5.261   2.725   1.986  0.4285  0.4230 -0.2850
   65MOL   C34036308   5.398   2.652   1.945  0.0597  0.3380 -0.4055
   65MOL   C34136309   5.375   2.530   1.849  0.7903  0.2432  0.1371
   65MOL   C34236310   5.490   2.433   1.818  0.5478 -0.1087  0.7004
   65MOL   O34336311   5.570   2.499   1.719 -0.0578  0.0716  0.2813
   65MOL   C34436312   5.669   2.438   1.662 -0.4222 -0.1327 -0.1018
   65MOL   O34536313   5.689   2.317   1.655 -0.1608  0.2484 -0.0164
   65MOL   C34636314   5.761   2.520   1.586  0.1912  0.3106  0.0024
   65MOL   C34736315   5.797   2.646   1.629  0.6321  0.4718 -0.0157
   65MOL   C34836316   5.873   2.728   1.549 -0.6249 -0.1747  0.7254
   65MOL   C34936317   5.925   2.681   1.421  0.0181  0.0184 -1.0028
   65MOL   C35036318   6.026   2.753   1.341 -0.4188 -0.2393 -0.8662
   65MOL   O35136319   6.079   2.707   1.240  0.6418  0.3741  1.0875
   65MOL   C35236320   5.886   2.546   1.379 -0.4612 -0.2569 -0.1035
   65MOL   C35336321   5.798   2.469   1.459 -0.5225 -0.4643  0.1245
   65MOL   H35436322   5.226   2.790   1.906 -0.1723  0.5778  0.0968
   65MOL   H35536323   5.283   2.785   2.075 -1.2557 -0.4776  0.7734
   65MOL   H35636324   5.444   2.620   2.039 -1.3446 -0.8431 -0.0953
   65MOL   H35736325   5.472   2.719   1.901 -2.2049  1.0999 -3.1494
   65MOL   H35836326   5.282   2.478   1.875  0.3336  0.4976 -0.9721
   65MOL   H35936327   5.350   2.578   1.755 -2.4184  0.6685  1.1662
   65MOL   H36036328   5.539   2.396   1.907  0.0736  0.5984  1.2577
   65MOL   H36136329   5.457   2.343   1.766  2.9137 -0.1898 -0.7057
   65MOL   H36236330   5.751   2.689   1.716  0.5743 -0.3283  0.3538
   65MOL   H36336331   5.901   2.822   1.593  0.4913  0.4288 -1.1945
   65MOL   H36436332   5.928   2.513   1.285  2.1658  0.5667  0.7200
   65MOL   H36536333   5.752   2.381   1.416 -0.4199 -0.5578  0.2019
   65MOL   O36636334   6.062   2.869   1.397 -0.1709 -0.4113  0.2511
   65MOL   C36736335   6.160   2.945   1.339 -0.5986 -0.5929 -0.2538
   65MOL   C36836336   6.286   2.953   1.434 -0.2119  0.4607  0.3807
   65MOL   C36936337   6.349   2.809   1.443  0.3411  0.4643 -0.2525
   65MOL   C37036338   6.470   2.809   1.528  0.1189 -0.0500 -0.3612
   65MOL   O37136339   6.553   2.707   1.485  0.1293 -0.3005 -0.0800
   65MOL   C37236340   6.674   2.695   1.536  0.5630  0.0340 -0.3362
   65MOL   O37336341   6.723   2.769   1.617  0.6127 -0.5023 -0.7619
   65MOL   C37436342   6.747   2.584   1.474 -0.1639 -0.0950  0.6448
   65MOL   C37536343   6.684   2.478   1.407  0.1050  0.6177  0.2189
   65MOL   C37636344   6.767   2.383   1.343 -0.2423 -0.6050 -0.5355
   65MOL   C37736345   6.903   2.375   1.376 -0.4495 -0.1732 -0.7616
   65MOL   C37836346   6.972   2.257   1.328 -0.0424 -0.0554  0.2494
   65MOL   O37936347   6.916   2.157   1.282  0.2689 -0.1821  0.0982
   65MOL   C38036348   6.961   2.472   1.452 -0.1653  0.1668  0.3518
   65MOL   C38136349   6.886   2.582   1.491 -0.0470 -0.7991 -0.4570
   65MOL   H38236350   6.181   2.922   1.235 -1.1833  1.4375 -0.8505
   65MOL   H38336351   6.112   3.043   1.332 -2.4228 -1.3090  1.7276
   65MOL   H38436352   6.254   2.985   1.533  0.5830 -0.5765  0.9796
   65MOL   H38536353   6.363   3.016   1.390  1.3027 -1.7288 -0.2072
   65MOL   H38636354   6.274   2.739   1.480 -1.1777  1.0973 -2.0922
   65MOL   H38736355   6.387   2.775   1.347  2.2431  3.9959 -0.8134
   65MOL   H38836356   6.527   2.902   1.523  0.7647 -0.3122  1.6644
   65MOL   H38936357   6.430   2.787   1.627  1.2197 -2.4691 -0.4243
   65MOL   H39036358   6.577   2.475   1.398  0.1550 -4.4191 -0.5082
   65MOL   H39136359   6.711   2.307   1.291  0.5556 -0.2735 -1.8848
   65MOL   H39236360   7.069   2.475   1.460  0.2069  0.8320 -3.6268
   65MOL   H39336361   6.935   2.670   1.531 -1.4106 -0.3602  0.3037
   65MOL   O39436362   7.102   2.257   1.348 -0.0101  0.1571 -0.2557
   65MOL   C39536363   7.174   2.134   1.337 -0.1943  0.0447  0.2070
   65MOL   C39636364   7.268   2.133   1.214 -0.5363  0.0872  0.0637
   65MOL   C39736365   7.203   2.167   1.077 -0.9467  0.3146  0.2881
   65MOL   C39836366   7.123   2.057   1.031  0.2008 -0.9162  0.5062
   65MOL   O39936367   7.039   2.082   0.921  0.3201 -0.0190 -0.3620
   65MOL   C40036368   7.019   1.981   0.828  0.4721 -0.8540  0.2214
   65MOL   O40136369   7.045   1.865   0.847  0.1988 -0.1395 -0.6242
   65MOL   C40236370   6.954   2.020   0.705  0.5172 -0.0193  0.7097
   65MOL   C40336371   6.956   2.155   0.664  0.9740 -0.3038  0.1774
   65MOL   C40436372   6.898   2.187   0.539  0.1038  0.0277 -0.3559
   65MOL   C40536373   6.840   2.091   0.458  0.3449 -0.6142 -0.3224
   65MOL   C40636374   6.786   2.134   0.322 -0.5048 -0.1627 -0.1992
   65MOL   O40736375   6.800   2.244   0.281  0.1535  0.0740  0.3663
   65MOL   C40836376   6.843   1.957   0.495  0.6853 -0.5011 -0.2504
   65MOL   C40936377   6.891   1.921   0.621  0.2996  0.1367  0.0178
   65MOL   H41036378   7.237   2.130   1.426  0.8945 -3.3261 -0.6536
   65MOL   H41136379   7.103   2.053   1.352 -0.8851  0.4986 -0.5856
   65MOL   H41236380   7.309   2.032   1.211  0.7442  0.4956  2.2122
   65MOL   H41336381   7.352   2.202   1.220  0.3124 -1.0546  1.6391
   65MOL   H41436382   7.147   2.259   1.092  0.8014  1.5175 -0.3757
   65MOL   H41536383   7.288   2.202   1.017 -1.2196 -0.9902 -0.9108
   65MOL   H41636384   7.185   1.968   1.014 -0.3940 -0.9248 -1.8187
   65MOL   H41736385   7.053   2.022   1.107  0.2808  0.2453  1.1143
   65MOL   H41836386   7.010   2.225   0.726 -0.3299  2.0043 -1.2360
   65MOL   H41936387   6.901   2.294   0.520 -0.1768 -0.0353 -0.7734
   65MOL   H42036388   6.792   1.880   0.438  0.5546  0.4445 -1.4139
   65MOL   H42136389   6.893   1.816   0.647  2.2955 -0.7319 -3.3943
   65MOL   O42236390   6.721   2.038   0.260 -0.5335  0.3162 -0.0393
   65MOL   C42336391   6.658   2.048   0.136  0.2398 -0.7208 -0.4587
   65MOL   C42436392   6.511   2.099   0.134  0.2102  0.0235 -0.7706
   65MOL   C42536393   6.482   2.245   0.174  0.0818 -0.2273  0.2247
   65MOL   C42636394   6.356   2.300   0.116 -0.1945 -0.6581 -0.1308
   65MOL   O42736395   6.248   2.219   0.157  0.0836 -0.6735  0.0831
   65MOL   C42836396   6.130   2.241   0.111  0.0109 -0.1650  0.6717
   65MOL   O42936397   6.104   2.329   0.025  0.1675  0.0629 -0.5695
   65MOL   C43036398   6.023   2.157   0.173  0.3744  0.5718 -0.1950
   65MOL   C43136399   5.900   2.147   0.112  0.4989 -0.3318 -0.2902
   65MOL   C43236400   5.798   2.062   0.167  0.0246 -0.5624  0.1501
   65MOL   C43336401   5.821   1.988   0.290 -0.0400 -0.8790  0.3710
   65MOL   C43436402   5.709   1.919   0.354 -0.3249  0.2782 -0.0874
   65MOL   O43536403   5.589   1.926   0.314 -0.2263  0.0117  0.6777
   65MOL   C43636404   5.948   2.004   0.351 -0.0338 -0.4118 -0.0558
   65MOL   C43736405   6.048   2.085   0.291 -0.3129  0.5600  0.7039
   65MOL   H43836406   6.725   2.108   0.075  0.6726 -0.2844  0.4334
   65MOL   H43936407   6.668   1.947   0.098 -1.2203 -0.6384 -1.0839
   65MOL   H44036408   6.439   2.038   0.187 -1.4651 -0.0724 -3.0888
   65MOL   H44136409   6.492   2.091   0.027  1.7535 -2.5666 -0.8988
   65MOL   H44236410   6.474   2.249   0.283 -1.6852 -0.0270  0.0873
   65MOL   H44336411   6.560   2.311   0.135 -0.6233 -0.2204 -1.1872
   65MOL   H44436412   6.342   2.402   0.153  0.4241 -0.9316  0.8800
   65MOL   H44536413   6.361   2.309   0.007  2.9817  1.3833  0.1013
   65MOL   H44636414   5.890   2.201   0.020  0.1990  1.0502  0.5357
   65MOL   H44736415   5.698   2.068   0.126 -0.6348 -0.5892  1.7144
   65MOL   H44836416   5.977   1.958   0.444 -1.9415  0.3885  0.9641
   65MOL   H44936417   6.147   2.086   0.334  0.6440  1.5292 -1.4533
   65MOL   O45036418   5.751   1.844   0.457  0.0845 -0.1858  0.3242
   65MOL   C45136419   5.650   1.775   0.539  0.3537  0.6831  0.7346
   65MOL   C45236420   5.723   1.728   0.664 -0.2963 -0.4510 -0.2831
   65MOL   C45336421   5.830   1.615   0.638  0.6931 -0.0099  0.6874
   65MOL   C45436422   5.909   1.582   0.760  0.0085 -0.7971 -0.1691
   65MOL   O45536423   6.019   1.661   0.801  0.7606  0.0453  0.5623
   65MOL   C45636424   6.142   1.646   0.754 -0.0751 -0.5824  0.4482
   65MOL   O45736425   6.169   1.593   0.644  0.3832 -0.0524 -0.4315
   65MOL   C45836426   6.244   1.711   0.844  0.0391 -0.3912  0.6553
   65MOL   C45936427   6.377   1.668   0.826 -0.4652 -0.2055  0.2338
   65MOL   C46036428   6.478   1.720   0.906 -0.0223 -0.2420  0.3515
   65MOL   C46136429   6.451   1.816   1.005  0.7474 -0.4265 -0.6399
   65MOL   C46236430   6.559   1.875   1.095 -0.1255  0.2589 -0.7524
   65MOL   O46336431   6.548   1.966   1.175 -0.5979  0.0823  0.0800
   65MOL   C46436432   6.313   1.855   1.023  0.1954 -0.0727  0.2155
   65MOL   C46536433   6.212   1.807   0.942  0.1939 -0.2458  0.3814
   65MOL   H46636434   5.576   1.847   0.574 -0.1778  0.0047  1.0073
   65MOL   H46736435   5.602   1.697   0.480 -1.7173  3.4370 -1.3150
   65MOL   H46836436   5.645   1.689   0.729  1.4164  0.2221  2.2322
   65MOL   H46936437   5.772   1.797   0.732  1.3345 -0.9098 -0.9737
   65MOL   H47036438   5.776   1.529   0.601  1.2984  0.6316 -1.7409
   65MOL   H47136439   5.905   1.642   0.564 -0.9839  1.3679 -0.5465
   65MOL   H47236440   5.840   1.562   0.842 -1.0913  0.8050 -0.6780
   65MOL   H47336441   5.940   1.478   0.745  1.2629 -0.1472 -2.1898
   65MOL   H47436442   6.408   1.603   0.745 -0.8385 -1.2774  0.9414
   65MOL   H47536443   6.580   1.688   0.887  0.3677  1.6043 -0.8097
   65MOL   H47636444   6.289   1.925   1.102 -1.4554 -0.6280  0.2141
   65MOL   H47736445   6.108   1.827   0.959  0.3850  0.8727  0.2716
   65MOL   O47836446   6.679   1.825   1.066 -0.8213  0.0640  0.1350
   65MOL   C47936447   6.794   1.871   1.128 -0.2138  0.4082 -0.1414
   65MOL   C48036448   6.847   1.777   1.230 -0.1246  0.0846  0.8631
   65MOL   C48136449   6.895   1.641   1.173 -0.0306 -0.7798  0.0235
   65MOL   C48236450   7.032   1.581   1.240 -0.1981  0.1088 -0.1623
   65MOL   O48336451   7.053   1.454   1.171 -0.7486  0.0186 -0.4424
   65MOL   C48436452   7.011   1.341   1.224  0.0338  0.1879 -0.2414
   65MOL   O48536453   6.928   1.343   1.317  0.3284 -0.9832  0.0105
   65MOL   C48636454   7.055   1.214   1.160 -0.3674 -0.0650  0.1569
   65MOL   C48736455   7.139   1.216   1.049 -0.4261  0.4410  0.4319
   65MOL   C48836456   7.191   1.093   0.994  0.6855  0.1247  0.4043
   65MOL   C48936457   7.149   0.972   1.046  0.1434 -0.3372  0.2197
   65MOL   C49036458   7.207   0.845   0.991 -0.0528 -0.2000 -1.0202
   65MOL   O49136459   7.258   0.831   0.879 -0.3580  0.0540 -0.1034
   65MOL   C49236460   7.059   0.967   1.156  0.3549  0.2348  0.4720
   65MOL   C49336461   7.025   1.091   1.218 -0.1188 -0.6838  0.2791
   65MOL   H49436462   6.863   1.908   1.053  1.0134 -0.6432  0.4523
   65MOL   H49536463   6.770   1.960   1.186 -1.7635  1.1320 -1.8592
   65MOL   H49636464   6.764   1.778   1.301 -0.4842  2.4409  0.4471
   65MOL   H49736465   6.929   1.823   1.286  1.7164 -0.8838 -0.9799
   65MOL   H49836466   6.818   1.564   1.176 -0.9195  0.0177 -1.5331
   65MOL   H49936467   6.907   1.649   1.065 -0.1089 -0.6309  0.0253
   65MOL   H50036468   7.113   1.653   1.223 -1.0756  0.2116 -4.6361
   65MOL   H50136469   7.026   1.560   1.347 -0.3942  0.1575 -0.1648
   65MOL   H50236470   7.162   1.309   0.999  0.2571  0.9382  1.6499
   65MOL   H50336471   7.255   1.097   0.907 -1.7148 -0.8008 -1.4627
   65MOL   H50436472   7.030   0.872   1.198  3.0705 -0.6300  0.5403
   65MOL   H50536473   6.962   1.088   1.305  1.9353 -0.1581  1.8224
   65MOL   O50636474   7.185   0.745   1.081  0.0143 -0.6461  0.3424
   65MOL   C50736475   7.216   0.610   1.033 -0.0483  0.0732 -0.0340
   65MOL   C50836476   7.100   0.552   0.952 -0.4128  0.1024 -0.4264
   65MOL   C50936477   6.963   0.578   1.000 -0.1582  0.1513 -0.6563
   65MOL   C51036478   6.858   0.498   0.923 -0.3023  0.0511  0.2322
   65MOL   O51136479   6.739   0.525   0.993  0.7188 -0.5895  0.1927
   65MOL   C51236480   6.625   0.491   0.939 -0.2191  0.0548  0.4045
   65MOL   O51336481   6.607   0.430   0.831  0.3845 -0.0877  0.0774
   65MOL   C51436482   6.508   0.542   1.014  1.4097 -0.3927  0.6948
   65MOL   C51536483   6.519   0.611   1.134 -0.2654  0.6203 -0.2287
   65MOL   C51636484   6.411   0.665   1.195  0.2825 -0.0132  0.0220
   65MOL   C51736485   6.284   0.647   1.140 -0.2531 -0.2753 -0.4812
   65MOL   C51836486   6.167   0.721   1.205 -0.8718 -0.4020  0.2985
   65MOL   O51936487   6.174   0.770   1.319  0.0228  0.0110  0.1968
   65MOL   C52036488   6.267   0.573   1.023  0.0943 -0.2268 -0.5863
   65MOL   C52136489   6.380   0.533   0.954  0.0810 -0.0056 -0.7459
   65MOL   H52236490   7.307   0.601   0.973 -0.5733  2.0732 -1.1647
   65MOL   H52336491   7.236   0.546   1.119  0.2982  1.2036  0.7385
   65MOL   H52436492   7.105   0.444   0.941 -1.4620  0.0489 -0.4720
   65MOL   H52536493   7.103   0.583   0.847  1.6402  0.0509 -0.3870
   65MOL   H52636494   6.948   0.557   1.106 -0.8093  2.1063 -0.3382
   65MOL   H52736495   6.952   0.686   0.990  2.3608  0.6282  1.1975
   65MOL   H52836496   6.842   0.540   0.823  0.9495 -1.0770 -0.4531
   65MOL   H52936497   6.868   0.390   0.926 -1.0796 -0.0058  0.7500
   65MOL   H53036498   6.615   0.622   1.183 -1.4002  1.6613  1.8204
   65MOL   H53136499   6.429   0.726   1.282  0.7627 -0.1706  0.0333
   65MOL   H53236500   6.165   0.558   0.989 -0.0482  1.9685 -1.1857
   65MOL   H53336501   6.354   0.493   0.857 -1.8616  0.6355 -0.5170
   65MOL   O53436502   6.054   0.718   1.137  0.1024 -0.5896 -0.1482
   65MOL   C53536503   5.932   0.778   1.190 -0.3148 -0.1537 -0.4768
   65MOL   C53636504   5.809   0.722   1.122  0.0582  0.3370 -0.5672
   65MOL   C53736505   5.803   0.770   0.978 -0.3118 -0.3915 -0.6169
   65MOL   C53836506   5.926   0.730   0.887  0.3802 -0.0851  0.7370
   65MOL   O53936507   5.895   0.739   0.746  0.2245  0.1424  0.5125
   65MOL   C54036508   5.988   0.713   0.653 -0.3596  0.1793 -0.9407
   65MOL   O54136509   6.107   0.718   0.679 -0.2214 -0.1564  0.0491
   65MOL   C54236510   5.935   0.699   0.516 -0.0893  0.0079  0.1682
   65MOL   C54336511   6.018   0.683   0.401 -0.2848 -0.5874  0.1533
   65MOL   C54436512   5.963   0.661   0.274 -1.1240 -0.5598  0.1208
   65MOL   C54536513   5.824   0.647   0.260  0.4037  0.6141 -0.3151
   65MOL   C54636514   5.761   0.613   0.127  0.8137 -0.9548  0.7574
   65MOL   O54736515   5.826   0.600   0.023  0.4565  0.0044 -0.5084
   65MOL   C54836516   5.744   0.672   0.371 -0.3068  0.7038 -0.4610
   65MOL   C54936517   5.798   0.699   0.497 -0.5816  0.8921  0.2087
   65MOL   H55036518   5.910   0.742   1.290  1.0598 -0.9712 -0.4611
   65MOL   H55136519   5.921   0.887   1.185 -0.5037 -0.2045 -1.4012
   65MOL   H55236520   5.725   0.762   1.179 -0.2650  0.1328 -0.8949
   65MOL   H55336521   5.807   0.614   1.135 -0.5316  0.4558  0.3908
   65MOL   H55436522   5.715   0.721   0.937 -0.2245  0.4384 -1.8354
   65MOL   H55536523   5.785   0.877   0.968 -0.3916 -0.2739  0.6999
   65MOL   H55636524   6.006   0.803   0.900  2.0562 -1.4364 -1.7894
   65MOL   H55736525   5.961   0.628   0.904 -0.2920 -0.1526  1.7761
   65MOL   H55836526   6.125   0.687   0.416  0.0172  2.9221 -2.1884
   65MOL   H55936527   6.029   0.644   0.190 -0.7136 -0.0561  0.3438
   65MOL   H56036528   5.636   0.677   0.369 -0.3129  1.7086  1.4792
   65MOL   H56136529   5.744   0.715   0.589 -1.7485  1.0901 -0.5061
   65MOL   H56236530   5.653   0.602   0.117  1.0365 -1.6302 -0.9416
   66MOL     O136531   6.653   1.000   2.331  0.3514 -0.0891 -0.2866
   66MOL     C236532   6.753   1.100   2.339 -0.8872 -0.3123 -0.2729
   66MOL     C336533   6.834   1.071   2.464 -0.6424 -0.4001  0.8262
   66MOL     C436534   6.936   1.183   2.491  0.3346  0.3928  0.2840
   66MOL     C536535   7.055   1.126   2.564  0.5305  0.0169 -0.0973
   66MOL     O636536   7.153   1.223   2.574  0.4092  0.2741  0.1928
   66MOL     C736537   7.240   1.244   2.472  0.0735  0.6883  0.4237
   66MOL     O836538   7.232   1.187   2.357 -0.4040  0.4332 -1.1966
   66MOL     C936539   7.356   1.318   2.505  0.3530 -0.1066  0.1889
   66MOL    C1036540   7.469   1.326   2.420 -0.4044  0.2537  0.0195
   66MOL    C1136541   7.583   1.402   2.467  0.0638  0.3279 -0.2977
   66MOL    C1236542   7.579   1.472   2.590 -1.1302 -0.0392 -0.0482
   66MOL    C1336543   7.697   1.551   2.640  0.3360  0.1933 -0.4739
   66MOL    O1436544   7.807   1.551   2.584 -0.4993  0.3026 -0.4394
   66MOL    C1536545   7.462   1.467   2.669 -0.1811  0.1749  0.1059
   66MOL    C1636546   7.352   1.394   2.626  0.7490  0.1167 -0.6721
   66MOL    H1736547   6.814   1.123   2.252  3.1003 -1.6003  2.0590
   66MOL    H1836548   6.703   1.196   2.355 -0.5580  0.0837 -1.5718
   66MOL    H1936549   6.887   0.976   2.457 -0.1968 -0.2554  2.2203
   66MOL    H2036550   6.767   1.067   2.549 -0.7438  0.6530  0.8071
   66MOL    H2136551   6.960   1.239   2.401 -0.3185 -0.8606 -0.6889
   66MOL    H2236552   6.891   1.250   2.564 -0.0811  0.9791 -0.5170
   66MOL    H2336553   7.037   1.081   2.662  1.1949  0.5583  0.2729
   66MOL    H2436554   7.096   1.052   2.496  2.5667  0.4677  0.6236
   66MOL    H2536555   7.483   1.285   2.322 -0.0396 -1.8348  0.9146
   66MOL    H2636556   7.671   1.418   2.406 -0.0414  0.0827 -0.5175
   66MOL    H2736557   7.453   1.526   2.759 -1.3084 -0.6422  0.5287
   66MOL    H2836558   7.261   1.396   2.684  1.5966  2.9852  0.6139
   66MOL    H2936559   6.642   0.970   2.242 -1.0417  0.6642 -0.3855
   66MOL    O3036560   7.665   1.631   2.750 -0.4455  0.2096 -0.7014
   66MOL    C3136561   7.758   1.709   2.812 -0.0772 -0.0266  0.3466
   66MOL    C3236562   7.688   1.819   2.897  0.8367 -0.0318 -0.5502
   66MOL    C3336563   7.620   1.761   3.020  1.0265  0.1893 -0.3656
   66MOL    C3436564   7.485   1.822   3.058  0.8319  0.3956  0.2731
   66MOL    O3536565   7.388   1.797   2.957 -0.2043 -0.1512  0.2800
   66MOL    C3636566   7.257   1.770   2.988  0.0964  0.1773  0.2300
   66MOL    O3736567   7.208   1.787   3.098 -0.3833  0.3711 -0.4308
   66MOL    C3836568   7.180   1.722   2.873  0.2606 -0.4775 -0.1889
   66MOL    C3936569   7.235   1.716   2.743  0.7123 -0.0856 -0.6594
   66MOL    C4036570   7.158   1.668   2.632 -1.3750  0.4988  0.0101
   66MOL    C4136571   7.025   1.618   2.650  0.4763 -0.0920 -0.7803
   66MOL    C4236572   6.949   1.563   2.539 -0.1596 -0.0745  0.4614
   66MOL    O4336573   6.830   1.543   2.549 -0.3760  0.5771 -0.3100
   66MOL    C4436574   6.968   1.633   2.782  0.4415 -0.2587 -0.2726
   66MOL    C4536575   7.047   1.677   2.890 -0.2876  0.1123 -0.3762
   66MOL    H4636576   7.837   1.666   2.873  2.2910  0.4428 -2.2629
   66MOL    H4736577   7.827   1.755   2.741  2.6894 -3.3637  0.7127
   66MOL    H4836578   7.607   1.876   2.851 -1.7371 -1.2347  2.2930
   66MOL    H4936579   7.754   1.900   2.926 -1.0699  1.7386 -1.0075
   66MOL    H5036580   7.607   1.653   3.011 -0.9923  0.4539 -0.6477
   66MOL    H5136581   7.689   1.772   3.105  2.2014  2.4925 -1.5800
   66MOL    H5236582   7.465   1.763   3.148  1.0753  0.8538  0.6270
   66MOL    H5336583   7.490   1.928   3.081 -1.2987  1.0183 -1.8697
   66MOL    H5436584   7.340   1.728   2.720  0.8630 -1.6207 -0.8351
   66MOL    H5536585   7.210   1.656   2.538  0.0449  1.0443  0.6999
   66MOL    H5636586   6.863   1.619   2.800  0.5217  0.8803  1.0924
   66MOL    H5736587   6.993   1.680   2.983 -0.1950 -0.5509 -0.3028
   66MOL    O5836588   7.025   1.536   2.425 -0.0735  0.3825 -0.0915
   66MOL    C5936589   6.959   1.517   2.301 -0.1541 -0.1908  1.1460
   66MOL    C6036590   7.064   1.525   2.187  0.3301 -0.6632  0.6996
   66MOL    C6136591   7.165   1.636   2.211 -0.1796  0.3475  0.4445
   66MOL    C6236592   7.264   1.651   2.092 -0.2127  0.7081  0.5122
   66MOL    O6336593   7.361   1.746   2.126  0.2589  0.6399  0.0358
   66MOL    C6436594   7.457   1.777   2.044  0.6698 -0.2349 -0.4774
   66MOL    O6536595   7.469   1.725   1.937  0.1512  0.3852  0.2432
   66MOL    C6636596   7.538   1.889   2.098 -0.8072 -0.1944 -0.0948
   66MOL    C6736597   7.485   1.984   2.191  0.0924 -0.9095 -0.0333
   66MOL    C6836598   7.564   2.089   2.232 -0.3709  0.2134 -0.3375
   66MOL    C6936599   7.703   2.099   2.197  0.2451  0.4923 -0.0860
   66MOL    C7036600   7.787   2.205   2.239 -0.1123 -0.9265 -0.3356
   66MOL    O7136601   7.915   2.204   2.230  0.1430 -0.3179  0.0852
   66MOL    C7236602   7.750   2.015   2.097 -0.5390 -0.5057  0.1324
   66MOL    C7336603   7.671   1.910   2.050  0.0899 -0.3078  0.2947
   66MOL    H7436604   6.898   1.427   2.301  0.1991 -0.4343  0.7902
   66MOL    H7536605   6.888   1.597   2.285 -1.8148 -1.6507  1.0845
   66MOL    H7636606   7.015   1.552   2.094  0.0035  0.9203  1.3299
   66MOL    H7736607   7.113   1.428   2.174 -0.5377 -0.9828 -0.2539
   66MOL    H7836608   7.114   1.729   2.237 -1.0372 -0.3934  1.4629
   66MOL    H7936609   7.220   1.617   2.304 -0.2545 -1.3750  0.1359
   66MOL    H8036610   7.314   1.562   2.055  0.1540  1.1487 -0.0698
   66MOL    H8136611   7.204   1.684   2.006 -0.8171 -0.8702  0.3217
   66MOL    H8236612   7.387   1.982   2.236 -0.5195 -0.2423 -1.3197
   66MOL    H8336613   7.517   2.167   2.291 -2.1692 -0.3370 -0.9940
   66MOL    H8436614   7.849   2.031   2.058 -0.7969 -0.2966 -0.4414
   66MOL    H8536615   7.711   1.850   1.970 -2.4460 -0.0906 -1.2148
   66MOL    O8636616   7.708   2.298   2.295 -0.5108  0.4345 -0.2075
   66MOL    C8736617   7.765   2.405   2.375  0.3700 -0.8575  0.4076
   66MOL    C8836618   7.687   2.533   2.355 -0.4586  0.8764 -0.3801
   66MOL    C8936619   7.690   2.644   2.470  0.1666  0.3914 -0.4630
   66MOL    C9036620   7.639   2.598   2.616 -0.0365  0.1778 -0.1825
   66MOL    O9136621   7.496   2.577   2.615 -0.2957 -0.1450 -0.2618
   66MOL    C9236622   7.440   2.459   2.584 -0.4987 -0.4962 -0.2402
   66MOL    O9336623   7.510   2.358   2.581 -0.2753 -0.4791 -0.5256
   66MOL    C9436624   7.292   2.477   2.549  0.2314 -0.6275  0.5671
   66MOL    C9536625   7.222   2.597   2.574  0.8994  0.3597 -0.2715
   66MOL    C9636626   7.086   2.620   2.556 -0.5019  0.0780  0.1599
   66MOL    C9736627   7.010   2.516   2.504  0.3318 -0.5374 -0.1553
   66MOL    C9836628   6.861   2.535   2.484 -0.3481  0.4558 -0.6505
   66MOL    O9936629   6.809   2.643   2.502 -0.4657  0.4662 -0.1551
   66MOL   C10036630   7.076   2.392   2.471 -0.0630 -0.3305 -0.3518
   66MOL   C10136631   7.215   2.369   2.495 -0.6433  0.9965 -1.1825
   66MOL   H10236632   7.755   2.365   2.476 -1.1286  0.3090  0.7288
   66MOL   H10336633   7.868   2.422   2.344 -0.3051  1.3183 -0.6957
   66MOL   H10436634   7.584   2.507   2.332 -1.4063  2.0534  2.2841
   66MOL   H10536635   7.732   2.585   2.270  1.6217  1.4536  1.0289
   66MOL   H10636636   7.792   2.683   2.462  1.1243 -1.8245  0.5439
   66MOL   H10736637   7.620   2.724   2.447 -0.3607 -0.4062 -1.6405
   66MOL   H10836638   7.698   2.509   2.639 -1.6311 -0.2797  2.2949
   66MOL   H10936639   7.661   2.666   2.698 -1.4020  0.6333 -0.1901
   66MOL   H11036640   7.278   2.677   2.620  1.2563 -0.3200  0.4950
   66MOL   H11136641   7.044   2.715   2.585 -0.3048  0.0819  0.4399
   66MOL   H11236642   7.012   2.316   2.430  2.0263 -0.7637 -2.8733
   66MOL   H11336643   7.262   2.275   2.470 -2.2039  0.1000 -0.7556
   66MOL   O11436644   6.795   2.425   2.430 -0.2626 -0.2283 -0.0764
   66MOL   C11536645   6.658   2.431   2.412 -0.5433  0.9458  0.0347
   66MOL   C11636646   6.607   2.298   2.361 -1.4030 -0.3260 -0.4754
   66MOL   C11736647   6.610   2.191   2.478 -0.0974  0.7804  0.3106
   66MOL   C11836648   6.548   2.059   2.416 -0.1989  0.4124 -0.0836
   66MOL   O11936649   6.406   2.068   2.396  0.2078 -0.4598 -0.1582
   66MOL   C12036650   6.323   2.027   2.501  0.3483 -0.0620  0.3305
   66MOL   O12136651   6.360   1.989   2.610 -0.1991 -0.1804 -0.1798
   66MOL   C12236652   6.183   2.010   2.460 -0.3103 -0.7939 -0.1810
   66MOL   C12336653   6.081   1.955   2.544  0.3839  0.8345 -0.1612
   66MOL   C12436654   5.946   1.949   2.511 -0.0313 -0.0927 -0.4642
   66MOL   C12536655   5.900   2.020   2.397  0.5493 -0.1935 -0.7732
   66MOL   C12636656   5.762   2.021   2.368 -0.3320 -0.7787  0.2794
   66MOL   O12736657   5.678   1.946   2.413 -0.4819  0.1700  0.1731
   66MOL   C12836658   5.997   2.065   2.306 -0.6854 -0.2073  0.8835
   66MOL   C12936659   6.137   2.059   2.339 -0.3001  0.1253  0.7805
   66MOL   H13036660   6.600   2.466   2.498 -2.1663 -1.2904 -0.0831
   66MOL   H13136661   6.638   2.508   2.338 -0.4905 -0.5643 -1.5984
   66MOL   H13236662   6.675   2.269   2.281  0.6899  1.7205  0.5212
   66MOL   H13336663   6.502   2.306   2.334 -1.8702 -0.2964  1.3066
   66MOL   H13436664   6.709   2.158   2.511 -0.2355 -1.3147 -1.2120
   66MOL   H13536665   6.541   2.226   2.554 -0.1285 -1.6058  1.4306
   66MOL   H13636666   6.599   2.039   2.323  0.9885 -0.5693  0.7627
   66MOL   H13736667   6.573   1.978   2.484 -1.5011  0.1666  0.1248
   66MOL   H13836668   6.111   1.894   2.627  0.6906 -1.3480 -1.8264
   66MOL   H13936669   5.873   1.899   2.573  0.0454 -0.0801 -0.3633
   66MOL   H14036670   5.971   2.114   2.213  1.0078 -0.1118  0.4506
   66MOL   H14136671   6.203   2.105   2.267 -1.1995  2.0973  1.1701
   66MOL   O14236672   5.736   2.130   2.290  0.3971 -0.2712  0.1864
   66MOL   C14336673   5.607   2.143   2.230  0.2151  0.0296 -0.6077
   66MOL   C14436674   5.613   2.186   2.080  0.1801 -0.4456 -0.1674
   66MOL   C14536675   5.682   2.073   1.998  0.0678  0.3428 -0.5587
   66MOL   C14636676   5.599   1.940   2.006 -0.8449  0.2819  0.1502
   66MOL   O14736677   5.462   1.952   1.967 -0.3573 -0.2587 -0.0381
   66MOL   C14836678   5.422   1.922   1.845 -0.4903 -0.4443 -0.1281
   66MOL   O14936679   5.485   1.874   1.753 -0.1831  0.2771 -0.3259
   66MOL   C15036680   5.283   1.976   1.832 -0.1838  0.1535  0.1873
   66MOL   C15136681   5.240   2.092   1.897  0.8523 -0.1864 -0.3590
   66MOL   C15236682   5.117   2.156   1.861 -0.1653  1.3464 -0.3809
   66MOL   C15336683   5.047   2.113   1.748 -0.4293  0.2393 -0.4700
   66MOL   C15436684   4.924   2.189   1.708  0.1846  0.5189 -0.9076
   66MOL   O15536685   4.871   2.187   1.596 -0.5932  0.2297 -0.0048
   66MOL   C15636686   5.088   1.992   1.685  0.2730 -0.0064 -0.4567
   66MOL   C15736687   5.203   1.921   1.726  0.1788 -0.2547  0.1570
   66MOL   H15836688   5.546   2.053   2.237 -0.0140  0.1401 -1.1096
   66MOL   H15936689   5.542   2.212   2.283 -0.1932 -1.3317  0.6827
   66MOL   H16036690   5.683   2.268   2.065  1.1559 -1.2687 -0.1199
   66MOL   H16136691   5.513   2.204   2.039  0.2042  2.8605  1.0457
   66MOL   H16236692   5.706   2.107   1.897 -1.2255 -0.2135 -1.0564
   66MOL   H16336693   5.779   2.045   2.040 -0.6590 -1.5863 -0.1406
   66MOL   H16436694   5.656   1.865   1.951 -0.4212 -1.2132  2.5493
   66MOL   H16536695   5.595   1.905   2.109 -2.5972  0.8183  0.2759
   66MOL   H16636696   5.295   2.133   1.981 -0.6500 -0.4619  0.7827
   66MOL   H16736697   5.087   2.243   1.918 -2.3385  0.3274  0.0595
   66MOL   H16836698   5.032   1.950   1.602  1.4063 -0.3647 -1.0493
   66MOL   H16936699   5.236   1.832   1.675  3.2807  0.6655  0.4069
   66MOL   O17036700   4.883   2.269   1.803  0.3522 -0.1955 -0.2380
   66MOL   C17136701   4.781   2.362   1.791 -0.5641 -0.2276  0.0931
   66MOL   C17236702   4.644   2.289   1.803 -0.1205 -0.1438  0.2506
   66MOL   C17336703   4.611   2.253   1.949 -0.2184  0.6807  0.5699
   66MOL   C17436704   4.474   2.202   1.972 -0.1774 -0.2193  0.4313
   66MOL   O17536705   4.377   2.268   1.891  0.0868 -0.9773 -0.0582
   66MOL   C17636706   4.302   2.359   1.949 -0.1172  0.2266  0.6779
   66MOL   O17736707   4.291   2.371   2.072 -0.2662 -0.1968 -0.3782
   66MOL   C17836708   4.214   2.442   1.860 -0.4989  0.3441 -0.0645
   66MOL   C17936709   4.237   2.460   1.718  0.2820  0.7271  0.0223
   66MOL   C18036710   4.140   2.529   1.639  0.1413  0.5045 -0.1199
   66MOL   C18136711   4.033   2.594   1.699  0.5987  0.7848 -0.3546
   66MOL   C18236712   3.922   2.656   1.620  0.0580  1.0392 -0.2424
   66MOL   O18336713   3.804   2.659   1.646  0.1247 -0.0664  0.3654
   66MOL   C18436714   4.022   2.586   1.842 -0.1154  0.7648  0.5284
   66MOL   C18536715   4.117   2.521   1.915  0.3341  0.1654  0.6830
   66MOL   H18636716   4.780   2.445   1.862  1.9704 -1.3196  1.4774
   66MOL   H18736717   4.784   2.404   1.690 -0.6536 -1.3966 -0.4082
   66MOL   H18836718   4.632   2.203   1.738 -0.6083 -0.3190  0.5642
   66MOL   H18936719   4.568   2.352   1.758  1.0108  0.2785 -1.0930
   66MOL   H19036720   4.669   2.169   1.988 -0.3626 -0.4831 -1.6408
   66MOL   H19136721   4.624   2.341   2.012  1.4485  1.7699 -1.2139
   66MOL   H19236722   4.471   2.097   1.945 -0.7694  0.1981 -1.1780
   66MOL   H19336723   4.444   2.205   2.077 -0.1252 -1.2854  0.4835
   66MOL   H19436724   4.315   2.398   1.678  2.6526  3.4154  0.3580
   66MOL   H19536725   4.146   2.507   1.533  0.9830 -0.7093  0.1707
   66MOL   H19636726   3.935   2.629   1.890 -0.2369  1.9413 -0.7304
   66MOL   H19736727   4.092   2.513   2.020 -0.1045 -1.7026  0.4562
   66MOL   O19836728   3.976   2.708   1.506 -0.6552 -0.5688  0.1826
   66MOL   C19936729   3.889   2.751   1.400 -0.4195 -0.0786 -0.0562
   66MOL   C20036730   3.828   2.655   1.300 -0.3650  0.4022 -0.7687
   66MOL   C20136731   3.742   2.724   1.188 -0.3490 -0.1350  0.2725
   66MOL   C20236732   3.718   2.633   1.067  0.8945  0.4407  0.3815
   66MOL   O20336733   3.675   2.499   1.099  0.4820  0.1386  0.0206
   66MOL   C20436734   3.660   2.406   1.007  0.2490  0.1976  0.3758
   66MOL   O20536735   3.668   2.420   0.886 -0.6910 -0.1161  0.5356
   66MOL   C20636736   3.606   2.284   1.080  0.1489 -0.1667 -0.3398
   66MOL   C20736737   3.601   2.162   1.011 -0.6632  0.1252 -0.2092
   66MOL   C20836738   3.539   2.056   1.083 -0.3557 -0.3167 -0.5878
   66MOL   C20936739   3.512   2.059   1.220  0.4616  0.7591 -0.0077
   66MOL   C21036740   3.459   1.940   1.299 -0.2650 -0.0165  0.0428
   66MOL   O21136741   3.475   1.818   1.279 -0.2990  0.1938  0.0286
   66MOL   C21236742   3.529   2.183   1.282  0.6038 -0.1202  0.1659
   66MOL   C21336743   3.564   2.301   1.213 -0.0859 -0.1075  0.3253
   66MOL   H21436744   3.808   2.810   1.442  0.2641  0.0836  1.0479
   66MOL   H21536745   3.950   2.821   1.343  1.8202 -1.1167  0.9996
   66MOL   H21636746   3.774   2.574   1.348 -0.2811  1.2826  0.8208
   66MOL   H21736747   3.915   2.609   1.253  0.1868  2.2785 -1.6405
   66MOL   H21836748   3.643   2.760   1.217 -0.0070  0.8448  0.2599
   66MOL   H21936749   3.795   2.814   1.156  0.3896 -1.1382 -1.4079
   66MOL   H22036750   3.639   2.686   1.012  0.7593  0.3173  0.4588
   66MOL   H22136751   3.809   2.636   1.007  1.6098 -0.5895  1.3944
   66MOL   H22236752   3.627   2.145   0.908 -0.7967  1.6893 -0.5183
   66MOL   H22336753   3.518   1.962   1.034 -2.0267  0.1746 -0.8405
   66MOL   H22436754   3.498   2.193   1.386 -1.4182 -1.1304 -0.3049
   66MOL   H22536755   3.559   2.392   1.270  0.1800  0.6061 -0.7543
   66MOL   O22636756   3.383   1.986   1.398 -0.0786  0.1012  0.0551
   66MOL   C22736757   3.321   1.901   1.493 -0.6066 -0.6404  0.2779
   66MOL   C22836758   3.346   1.965   1.631  0.4177  0.1135 -0.1029
   66MOL   C22936759   3.305   1.886   1.756  0.0401 -0.3731 -0.0545
   66MOL   C23036760   3.389   1.930   1.871  0.1480 -0.0291  0.3239
   66MOL   O23136761   3.318   1.885   1.992 -0.0007  0.0649 -0.4683
   66MOL   C23236762   3.364   1.915   2.117  0.0732 -0.4562  0.0074
   66MOL   O23336763   3.484   1.948   2.121 -0.1287  1.0194  0.2150
   66MOL   C23436764   3.273   1.906   2.230  0.2178 -0.6018  0.5503
   66MOL   C23536765   3.338   1.901   2.357  0.1872  0.0300 -0.0899
   66MOL   C23636766   3.254   1.878   2.465  0.0293 -0.3420  0.7155
   66MOL   C23736767   3.117   1.862   2.450 -0.0571  0.2106 -0.1080
   66MOL   C23836768   3.034   1.840   2.574 -0.2547 -0.2257 -0.3292
   66MOL   O23936769   3.079   1.801   2.685  0.0527 -0.2271  0.8592
   66MOL   C24036770   3.053   1.875   2.324  0.4397  0.2815 -0.1169
   66MOL   C24136771   3.138   1.889   2.210  0.1948  0.4350  0.8476
   66MOL   H24236772   3.213   1.890   1.477 -0.5902 -0.4710  0.0449
   66MOL   H24336773   3.352   1.797   1.486  0.4170 -0.2717 -0.8620
   66MOL   H24436774   3.300   2.064   1.627 -1.0718 -0.5495  0.2253
   66MOL   H24536775   3.453   1.975   1.649  0.5039  1.8944 -1.5311
   66MOL   H24636776   3.205   1.916   1.785 -0.3334 -4.2885  3.2280
   66MOL   H24736777   3.305   1.778   1.739  0.5260 -0.4707  0.5236
   66MOL   H24836778   3.488   1.887   1.859  0.1394  0.2147 -0.7062
   66MOL   H24936779   3.394   2.038   1.880  0.4963 -0.2839  3.5914
   66MOL   H25036780   3.445   1.911   2.373  0.4082 -0.8853 -0.9146
   66MOL   H25136781   3.297   1.869   2.563  1.4006 -0.5984  0.1017
   66MOL   H25236782   2.946   1.870   2.315  0.5611 -0.0263 -1.4721
   66MOL   H25336783   3.099   1.914   2.113  2.1847  0.4212  0.0256
   66MOL   O25436784   2.901   1.850   2.548 -0.2684 -0.5844 -0.4065
   66MOL   C25536785   2.806   1.852   2.652  0.5009 -0.3105 -0.6828
   66MOL   C25636786   2.665   1.896   2.610  0.3691 -0.4429  0.0510
   66MOL   C25736787   2.571   1.780   2.571 -0.2937 -0.3732  0.4062
   66MOL   C25836788   2.611   1.716   2.436  0.4379 -0.1410 -0.1338
   66MOL   O25936789   2.593   1.812   2.334 -0.7858 -0.0708 -0.4451
   66MOL   C26036790   2.641   1.791   2.215  0.5442  0.0095  0.3186
   66MOL   O26136791   2.707   1.689   2.180 -0.2254  0.0198  0.2075
   66MOL   C26236792   2.602   1.902   2.117 -0.4783 -0.9739 -0.0163
   66MOL   C26336793   2.627   1.878   1.980 -0.5721  0.5940 -0.0765
   66MOL   C26436794   2.576   1.967   1.880  0.4504  0.2562 -0.0249
   66MOL   C26536795   2.502   2.084   1.912  0.2927 -0.0338  1.3140
   66MOL   C26636796   2.442   2.167   1.798  0.7474  0.3643  0.8060
   66MOL   O26736797   2.447   2.134   1.678 -0.3850 -0.2131 -0.5224
   66MOL   C26836798   2.485   2.110   2.051  0.6370 -0.2384 -0.4469
   66MOL   C26936799   2.540   2.028   2.155  0.0493 -0.4127 -0.0607
   66MOL   H27036800   2.813   1.753   2.697  4.3457 -0.4396 -1.4692
   66MOL   H27136801   2.842   1.913   2.735  2.3064  0.1407 -1.7873
   66MOL   H27236802   2.665   1.988   2.551 -0.9385  0.3669  1.2818
   66MOL   H27336803   2.628   1.948   2.698  1.9053 -0.3450  0.6657
   66MOL   H27436804   2.589   1.701   2.644  2.8333 -1.4496 -1.3972
   66MOL   H27536805   2.465   1.805   2.568 -0.3611 -0.0195  3.8547
   66MOL   H27636806   2.710   1.671   2.433  1.4123  1.7175  2.3950
   66MOL   H27736807   2.545   1.631   2.420  0.5036 -0.3804  0.8152
   66MOL   H27836808   2.674   1.789   1.942 -1.3824 -0.1605  0.6784
   66MOL   H27936809   2.602   1.951   1.776  0.0383 -0.1154 -0.0727
   66MOL   H28036810   2.436   2.204   2.074 -0.0073 -0.6345 -0.1774
   66MOL   H28136811   2.529   2.056   2.259 -0.1713  3.1961 -1.0170
   66MOL   O28236812   2.379   2.276   1.842 -0.7798 -0.2230 -0.6656
   66MOL   C28336813   2.326   2.375   1.753  0.3587  0.1705  0.3792
   66MOL   C28436814   2.431   2.475   1.701 -0.2834  0.4200 -0.4309
   66MOL   C28536815   2.503   2.569   1.810  0.2681  0.4175  0.5416
   66MOL   C28636816   2.588   2.681   1.753  0.3089  0.1914  0.2039
   66MOL   O28736817   2.521   2.742   1.650  0.3813  0.2289 -0.1047
   66MOL   C28836818   2.589   2.808   1.555 -0.0304 -0.5304  0.6127
   66MOL   O28936819   2.708   2.831   1.555  0.9469 -0.5335 -0.1845
   66MOL   C29036820   2.495   2.853   1.446 -0.1548 -0.6469  0.3691
   66MOL   C29136821   2.556   2.900   1.327  0.0974 -0.0146  0.6329
   66MOL   C29236822   2.474   2.954   1.227 -0.3660  0.5732  0.8252
   66MOL   C29336823   2.331   2.949   1.237 -0.2034 -0.2454  1.5979
   66MOL   C29436824   2.248   2.998   1.125  0.3867 -0.4480 -0.3039
   66MOL   O29536825   2.289   3.030   1.010 -0.4021 -0.4558  0.3995
   66MOL   C29636826   2.268   2.892   1.350  0.0901  0.5630  0.3569
   66MOL   C29736827   2.352   2.840   1.455  0.1271  0.2064 -0.9898
   66MOL   H29836828   2.281   2.334   1.662  0.2992 -0.3330  0.6339
   66MOL   H29936829   2.259   2.437   1.812  2.6979 -0.3700  3.7334
   66MOL   H30036830   2.371   2.543   1.640  0.5730  0.3543 -1.3574
   66MOL   H30136831   2.508   2.428   1.640 -0.0909 -2.2883  1.7885
   66MOL   H30236832   2.438   2.621   1.881 -1.0672 -3.3462  2.1796
   66MOL   H30336833   2.562   2.511   1.881 -1.3086 -0.3346  1.2563
   66MOL   H30436834   2.627   2.754   1.824 -1.0885  1.9923 -0.8199
   66MOL   H30536835   2.679   2.641   1.708  0.2441 -1.4448  1.5104
   66MOL   H30636836   2.661   2.901   1.304  0.1826 -1.4453  0.9554
   66MOL   H30736837   2.527   2.995   1.142  0.4544 -3.6015 -0.7838
   66MOL   H30836838   2.161   2.877   1.350  0.1586  0.0464 -0.9190
   66MOL   H30936839   2.298   2.790   1.534 -2.0208  0.9137 -1.9794
   66MOL   O31036840   2.110   2.992   1.149 -0.0459  0.1906 -0.0877
   66MOL   C31136841   2.012   3.030   1.041 -0.1365 -0.6171  0.0486
   66MOL   C31236842   1.864   3.022   1.090 -0.2338 -0.1227 -0.2078
   66MOL   C31336843   1.825   2.876   1.125  0.7327 -0.3664 -0.7703
   66MOL   C31436844   1.678   2.864   1.158 -0.6386  0.0724  0.8007
   66MOL   O31536845   1.606   2.780   1.066  0.1730  0.0819 -0.2745
   66MOL   C31636846   1.507   2.699   1.108  0.0939 -0.0941  0.5117
   66MOL   O31736847   1.476   2.689   1.228  0.3594 -0.3385  0.3253
   66MOL   C31836848   1.451   2.619   0.993  0.1711  0.3461 -0.4269
   66MOL   C31936849   1.330   2.546   1.013 -0.3782 -0.2882  0.3985
   66MOL   C32036850   1.268   2.486   0.905 -0.1233 -0.2085  0.3179
   66MOL   C32136851   1.322   2.482   0.778  0.1406 -0.7598 -0.2973
   66MOL   C32236852   1.263   2.387   0.668  0.4098 -1.0276 -0.9524
   66MOL   O32336853   1.157   2.334   0.678 -0.1454 -0.0769  0.2822
   66MOL   C32436854   1.435   2.562   0.752 -0.1728  1.5391 -0.1000
   66MOL   C32536855   1.495   2.632   0.860 -0.6047  0.5385 -0.0626
   66MOL   H32636856   2.036   3.129   1.002 -0.5072 -0.5949 -0.1239
   66MOL   H32736857   2.026   2.962   0.958  0.5950 -0.3455 -0.0565
   66MOL   H32836858   1.799   3.055   1.009  0.1487  0.5512 -0.2497
   66MOL   H32936859   1.850   3.084   1.179  1.2182  0.9723 -0.7207
   66MOL   H33036860   1.850   2.817   1.037  1.1469  0.9244 -1.5157
   66MOL   H33136861   1.884   2.837   1.208 -0.2682  1.5320  0.8660
   66MOL   H33236862   1.685   2.820   1.257  3.4981  0.3434  0.7304
   66MOL   H33336863   1.630   2.960   1.171  1.1551  0.9886  0.8691
   66MOL   H33436864   1.292   2.542   1.114 -1.2651 -2.5693  0.0038
   66MOL   H33536865   1.179   2.425   0.913 -0.4844  0.3361  0.4897
   66MOL   H33636866   1.484   2.580   0.658  2.8420  0.9166  1.2928
   66MOL   H33736867   1.580   2.697   0.844  0.3587 -0.5520  0.5206
   66MOL   O33836868   1.340   2.391   0.564  0.1238  0.6945  0.1017
   66MOL   C33936869   1.295   2.301   0.463  0.2725 -0.8016  0.2647
   66MOL   C34036870   1.402   2.257   0.361  0.0295 -0.0913 -0.1184
   66MOL   C34136871   1.465   2.372   0.286  0.2277 -0.2020 -0.1591
   66MOL   C34236872   1.590   2.313   0.213 -0.3294 -0.1572  0.0348
   66MOL   O34336873   1.558   2.212   0.119 -0.3050 -0.3947  0.3174
   66MOL   C34436874   1.639   2.116   0.085 -0.7846  0.4602  0.7235
   66MOL   O34536875   1.747   2.089   0.140 -0.4072 -0.1642  0.1678
   66MOL   C34636876   1.586   2.051   8.067  0.5236  0.5080  0.4702
   66MOL   C34736877   1.511   2.128   7.976  0.3808  0.0410  0.0770
   66MOL   C34836878   1.453   2.062   7.864  0.1666 -0.1252 -0.2657
   66MOL   C34936879   1.475   1.925   7.836  0.3406 -0.6024 -0.5850
   66MOL   C35036880   1.414   1.862   7.718  0.0727 -0.3204 -0.5693
   66MOL   O35136881   1.322   1.912   7.654 -0.4913  0.4200 -0.5956
   66MOL   C35236882   1.554   1.852   7.931 -0.2996  0.2045 -0.4704
   66MOL   C35336883   1.603   1.914   8.045  0.1131  0.2942 -0.2600
   66MOL   H35436884   1.262   2.207   0.507 -0.1790  0.0472  1.7585
   66MOL   H35536885   1.204   2.345   0.423  0.0699 -1.2221  0.2679
   66MOL   H35636886   1.362   2.183   0.292 -2.8996  1.7854 -0.5122
   66MOL   H35736887   1.480   2.202   0.413 -0.1027  0.3609  0.5668
   66MOL   H35836888   1.402   2.412   0.206 -0.6585 -1.9152 -0.3609
   66MOL   H35936889   1.493   2.445   0.361  0.9843 -0.1269 -0.5170
   66MOL   H36036890   1.654   2.389   0.169 -2.8845  2.3418  0.4935
   66MOL   H36136891   1.656   2.269   0.288  0.7505  1.8948  0.3238
   66MOL   H36236892   1.485   2.231   7.994 -3.1945 -1.3643  3.6702
   66MOL   H36336893   1.390   2.120   7.799 -0.9558  0.4902  1.3438
   66MOL   H36436894   1.568   1.746   7.921  1.0795  0.4064 -0.8220
   66MOL   H36536895   1.658   1.854   0.017  1.6224  0.8200 -0.9659
   66MOL   O36636896   1.468   1.741   7.693  0.5490  0.3130  0.3584
   66MOL   C36736897   1.416   1.669   7.578 -0.3461  0.0046  0.3086
   66MOL   C36836898   1.362   1.536   7.621  0.0864 -0.2778 -0.6200
   66MOL   C36936899   1.472   1.442   7.676 -0.1674  0.3324  0.0078
   66MOL   C37036900   1.606   1.430   7.594 -0.8501  0.4833 -0.6699
   66MOL   O37136901   1.688   1.548   7.612 -0.4341 -0.1971 -0.3825
   66MOL   C37236902   1.771   1.595   7.515 -0.3712 -0.4508 -0.0308
   66MOL   O37336903   1.790   1.537   7.410  0.0789  0.4438  0.1189
   66MOL   C37436904   1.822   1.731   7.536 -0.3316  0.2021 -0.0062
   66MOL   C37536905   1.787   1.791   7.656  0.1192  0.3331 -0.5054
   66MOL   C37636906   1.837   1.914   7.695 -0.1285 -0.6719 -0.0267
   66MOL   C37736907   1.912   1.986   7.598 -0.5870  0.1866  0.2929
   66MOL   C37836908   1.952   2.130   7.617  0.5881  0.0567  0.0459
   66MOL   O37936909   1.975   2.194   7.520 -0.4662 -0.3511  0.6176
   66MOL   C38036910   1.952   1.926   7.476  1.0362  0.3686  0.1304
   66MOL   C38136911   1.913   1.796   7.448  0.2581  0.2721  0.0840
   66MOL   H38236912   1.339   1.719   7.518  0.7106  0.0380 -1.0407
   66MOL   H38336913   1.488   1.648   7.499 -2.3889 -1.2061 -1.2756
   66MOL   H38436914   1.312   1.493   7.535  1.6295 -1.0615 -1.1425
   66MOL   H38536915   1.283   1.553   7.695  1.3017 -1.1212  0.9127
   66MOL   H38636916   1.488   1.472   7.780 -1.4367  1.6657 -0.1519
   66MOL   H38736917   1.416   1.349   7.679 -1.0304  0.7667 -1.7547
   66MOL   H38836918   1.668   1.346   7.623 -2.3187 -0.8418 -1.3078
   66MOL   H38936919   1.588   1.409   7.489  0.7986 -1.1403 -0.6455
   66MOL   H39036920   1.720   1.744   7.727 -0.4893  0.8613 -0.7266
   66MOL   H39136921   1.819   1.967   7.788  0.2074 -0.0879 -0.2893
   66MOL   H39236922   2.019   1.972   7.405 -0.3403 -0.0582 -1.4744
   66MOL   H39336923   1.937   1.751   7.353  0.0830  0.7761 -0.2032
   66MOL   O39436924   1.957   2.180   7.745 -0.3443 -0.3486 -0.2766
   66MOL   C39536925   1.983   2.314   7.776  0.6277  0.0089  0.0795
   66MOL   C39636926   1.932   2.329   7.924  0.0821 -0.4796 -0.2443
   66MOL   C39736927   1.945   2.470   7.980 -0.0942  1.2812  0.5054
   66MOL   C39836928   1.953   2.471   0.034 -0.1089 -0.1532 -0.2441
   66MOL   O39936929   1.870   2.560   0.110  0.5092  0.0909  0.1525
   66MOL   C40036930   1.860   2.689   0.090 -0.0188  0.2820 -0.6200
   66MOL   O40136931   1.925   2.742   8.098 -0.1353 -0.4124  0.2601
   66MOL   C40236932   1.759   2.758   0.182  0.4358 -0.2222  0.4518
   66MOL   C40336933   1.718   2.722   0.309  0.1197  0.8893  0.2358
   66MOL   C40436934   1.619   2.789   0.385 -0.1363 -0.5450 -0.2795
   66MOL   C40536935   1.548   2.900   0.325  0.4401  0.2094  0.6002
   66MOL   C40636936   1.448   2.983   0.405  0.4562  0.2316 -0.6464
   66MOL   O40736937   1.364   3.066   0.367 -0.4580  0.3139 -0.1881
   66MOL   C40836938   1.581   2.932   0.190  0.8379 -0.1620 -0.3179
   66MOL   C40936939   1.683   2.861   0.121 -0.5474 -0.0211  0.0768
   66MOL   H41036940   2.092   2.313   7.769  0.6973  1.2669  0.7277
   66MOL   H41136941   1.937   2.383   7.705  1.4855 -0.2258 -0.7299
   66MOL   H41236942   1.986   2.261   7.990 -0.5484 -0.9034 -0.1622
   66MOL   H41336943   1.827   2.300   7.929  0.0632 -0.3011  0.4591
   66MOL   H41436944   2.026   2.529   7.938 -1.1128  0.8083 -2.2096
   66MOL   H41536945   1.852   2.518   7.950 -0.0361  1.1806  0.1671
   66MOL   H41636946   1.936   2.371   0.073 -1.6803  1.1528  2.5959
   66MOL   H41736947   2.054   2.480   0.075 -0.9724  1.4685  1.6213
   66MOL   H41836948   1.776   2.637   0.342 -1.3203 -1.1259 -2.2692
   66MOL   H41936949   1.599   2.761   0.487  4.2506  0.4013  0.9665
   66MOL   H42036950   1.549   3.024   0.142  1.5092  0.0236 -0.4227
   66MOL   H42136951   1.706   2.894   0.021 -0.5493  1.3465  0.5153
   66MOL   O42236952   1.461   2.958   0.532 -0.2721  0.5984 -0.5095
   66MOL   C42336953   1.393   3.018   0.643  0.1586 -0.1906  0.4102
   66MOL   C42436954   1.472   3.136   0.690  0.3264  0.4413 -0.3537
   66MOL   C42536955   1.592   3.104   0.774 -0.6988  0.4771  0.2031
   66MOL   C42636956   1.705   3.022   0.705  0.3579  0.0594 -0.3947
   66MOL   O42736957   1.740   3.097   0.591 -0.0670  0.3600 -0.3359
   66MOL   C42836958   1.836   3.059   0.511  0.2847  0.2715  0.1160
   66MOL   O42936959   1.914   2.967   0.545 -0.2285 -0.1160 -0.1758
   66MOL   C43036960   1.829   3.128   0.379  0.2848 -0.7980  0.2180
   66MOL   C43136961   1.916   3.080   0.278 -0.1329  0.0909  0.0409
   66MOL   C43236962   1.906   3.139   0.151  0.1959  0.0339 -0.4260
   66MOL   C43336963   1.817   3.248   0.125 -0.2779  0.2857 -0.0413
   66MOL   C43436964   1.813   3.307   8.091 -0.3074  0.7930 -0.0123
   66MOL   O43536965   1.886   3.271   8.003 -0.2103  0.2435  0.6554
   66MOL   C43636966   1.737   3.301   0.229  0.4492 -0.2134 -0.1157
   66MOL   C43736967   1.747   3.238   0.353  0.1386 -0.5681 -0.6942
   66MOL   H43836968   1.297   3.059   0.611 -0.5134 -2.0634 -0.0400
   66MOL   H43936969   1.377   2.952   0.728  1.6191 -0.9447  0.1240
   66MOL   H44036970   1.406   3.193   0.755 -1.1756 -2.0662  0.4003
   66MOL   H44136971   1.506   3.198   0.606 -0.0008  1.2107  0.0787
   66MOL   H44236972   1.624   3.201   0.811 -3.0303  0.8849  1.3042
   66MOL   H44336973   1.560   3.046   0.861  1.0829  0.7697  1.0781
   66MOL   H44436974   1.792   2.998   0.765 -0.0140 -1.5033 -0.4731
   66MOL   H44536975   1.662   2.925   0.681 -0.8666  0.7352 -0.9867
   66MOL   H44636976   1.990   3.004   0.296  0.0907  0.0238 -1.0817
   66MOL   H44736977   1.966   3.107   0.067 -0.8292  1.1407 -1.5984
   66MOL   H44836978   1.663   3.378   0.213  0.4873  0.1690  1.4611
   66MOL   H44936979   1.689   3.283   0.432  3.0623  1.7353  0.2334
   66MOL   O45036980   1.706   3.386   8.067  0.1905  0.0053 -0.1289
   66MOL   C45136981   1.670   3.436   7.943 -0.3824  0.5365  0.1532
   66MOL   C45236982   1.534   3.512   7.941 -0.6724 -0.6047 -0.0965
   66MOL   C45336983   1.576   3.662   7.968 -0.6416  0.2029  0.5863
   66MOL   C45436984   1.452   3.759   7.955 -0.2390  0.4705 -0.7743
   66MOL   O45536985   1.381   3.735   8.075 -0.1878 -0.0679  0.0179
   66MOL   C45636986   1.249   3.761   8.084 -0.1307  0.0357  0.7515
   66MOL   O45736987   1.174   3.760   7.991  0.9135  0.3883 -0.0472
   66MOL   C45836988   1.202   3.788   0.120 -0.4492 -0.9718  0.0279
   66MOL   C45936989   1.289   3.828   0.228 -0.0045  0.7911  0.6591
   66MOL   C46036990   1.234   3.866   0.346  0.6228 -0.0482  0.3166
   66MOL   C46136991   1.096   3.854   0.374  0.2221 -0.2516  0.3375
   66MOL   C46236992   1.034   3.897   0.504  0.5456  0.0622  0.1179
   66MOL   O46336993   0.918   3.865   0.540  0.0367  0.7440  0.5023
   66MOL   C46436994   1.013   3.811   0.267 -0.2773 -0.3710 -1.3717
   66MOL   C46536995   1.064   3.780   0.144  1.0023  0.1778  0.3749
   66MOL   H46636996   1.758   3.483   7.900 -0.0798  0.2266  0.4361
   66MOL   H46736997   1.651   3.344   7.887  0.6103 -0.4014  1.3501
   66MOL   H46836998   1.470   3.476   8.021 -2.0452  0.1062 -0.8553
   66MOL   H46936999   1.478   3.504   7.848 -0.2432 -0.3470 -0.3854
   66MOL   H47037000   1.620   3.676   8.067  1.4119 -0.5005 -0.2094
   66MOL   H47137001   1.657   3.694   7.903 -1.6246 -1.0144 -1.2949
   66MOL   H47237002   1.483   3.864   7.951  0.9423  0.0687 -3.3198
   66MOL   H47337003   1.398   3.728   7.866 -2.4513 -1.6815  1.2535
   66MOL   H47437004   1.396   3.828   0.216 -0.2188  0.2608 -1.3923
   66MOL   H47537005   1.298   3.889   0.430  1.6979 -0.9067 -0.2570
   66MOL   H47637006   0.908   3.827   0.281  0.1034  0.3747  0.8208
   66MOL   H47737007   0.991   3.757   0.068  2.9283 -0.6376 -1.2677
   66MOL   O47837008   1.120   3.976   0.574  0.4093 -0.0226  0.3438
   66MOL   C47937009   1.084   4.009   0.708 -0.4919 -0.2697 -0.1143
   66MOL   C48037010   1.138   3.907   0.808  0.9152  0.0392  0.2926
   66MOL   C48137011   1.095   3.927   0.956  0.2613 -0.5808  0.7293
   66MOL   C48237012   0.956   3.890   0.993 -0.4046 -0.1848  0.4363
   66MOL   O48337013   0.868   3.987   0.939  0.3571 -0.5789  0.1060
   66MOL   C48437014   0.738   3.979   0.984  0.1402  0.0581  0.3731
   66MOL   O48537015   0.703   3.900   1.072 -0.3709  0.2317 -0.3040
   66MOL   C48637016   0.646   4.074   0.921 -0.2022 -0.0234  0.0112
   66MOL   C48737017   0.535   4.114   0.998 -0.2376  0.0277 -0.1899
   66MOL   C48837018   0.456   4.227   0.945 -0.2339  0.7296  0.3828
   66MOL   C48937019   0.497   4.288   0.820  0.4533 -0.2361  0.1528
   66MOL   C49037020   0.419   4.412   0.784 -0.0683  0.0252 -0.2880
   66MOL   O49137021   0.468   4.498   0.720  0.1415 -0.2127 -0.0732
   66MOL   C49237022   0.605   4.240   0.748 -0.8708  0.3928  0.0828
   66MOL   C49337023   0.680   4.132   0.797 -0.6423  0.2075  0.2216
   66MOL   H49437024   1.125   4.107   0.735  0.1449 -0.2582 -1.1146
   66MOL   H49537025   0.975   4.007   0.711 -0.5327 -4.1484 -1.3021
   66MOL   H49637026   1.246   3.891   0.816  0.5765 -2.3102  0.6605
   66MOL   H49737027   1.104   3.809   0.773  3.0222 -0.6269 -0.0211
   66MOL   H49837028   1.158   3.852   1.004  0.3215  0.1075  1.7401
   66MOL   H49937029   1.112   4.026   0.999  1.9680 -1.3581  1.9018
   66MOL   H50037030   0.941   3.794   0.943 -1.4699 -0.1468  0.6646
   66MOL   H50137031   0.951   3.889   1.102  0.8449 -2.8671  0.5089
   66MOL   H50237032   0.518   4.071   1.096  1.0091 -3.2393 -1.3243
   66MOL   H50337033   0.370   4.267   0.998 -1.0184  2.3583 -2.0531
   66MOL   H50437034   0.629   4.284   0.653  1.5646 -1.5825 -0.2654
   66MOL   H50537035   0.771   4.101   0.747 -1.3405 -1.2434 -0.1719
   66MOL   O50637036   0.305   4.417   0.832 -0.1399 -0.1994  1.2049
   66MOL   C50737037   0.205   4.514   0.788 -0.1604  0.1087 -0.2883
   66MOL   C50837038   0.111   4.437   0.686  0.1174 -0.2459  0.1059
   66MOL   C50937039   0.032   4.326   0.747 -1.1695  0.7589 -0.5227
   66MOL   C51037040   8.054   4.249   0.643 -0.2802 -0.2289  0.0346
   66MOL   O51137041   8.094   4.116   0.623  0.0213  0.9259  0.4384
   66MOL   C51237042   8.008   4.015   0.658  0.3312 -0.1057 -0.5320
   66MOL   O51337043   7.903   4.032   0.718  0.2541  0.0034 -0.2848
   66MOL   C51437044   8.061   3.885   0.613  0.0690 -0.9271 -0.4268
   66MOL   C51537045   7.993   3.766   0.646 -0.2709 -0.3597  0.6194
   66MOL   C51637046   8.054   3.641   0.628  0.5831 -0.1336 -0.6178
   66MOL   C51737047   0.080   3.625   0.564 -0.3607 -0.0235 -0.0094
   66MOL   C51837048   0.146   3.489   0.541  0.0779 -0.1183 -0.4831
   66MOL   O51937049   0.230   3.472   0.452  0.4366  0.3286 -0.1892
   66MOL   C52037050   0.138   3.741   0.515 -0.2460 -0.3241  0.1978
   66MOL   C52137051   0.087   3.866   0.544  0.1265  0.0230  0.1226
   66MOL   H52237052   0.151   4.553   0.874  2.1595  0.1523  1.1926
   66MOL   H52337053   0.252   4.601   0.743 -0.7671 -0.7406 -2.6920
   66MOL   H52437054   0.173   4.396   0.606 -0.2907 -2.2712  0.7921
   66MOL   H52537055   0.037   4.506   0.646 -1.5664 -1.4190  1.1389
   66MOL   H52637056   0.086   4.255   0.809 -2.5749  2.2258  2.5001
   66MOL   H52737057   8.056   4.372   0.811 -1.7882  0.1392 -0.7886
   66MOL   H52837058   7.950   4.264   0.673 -0.2262 -0.3263  0.2807
   66MOL   H52937059   8.055   4.289   0.542  0.4981  1.6748  0.7820
   66MOL   H53037060   7.898   3.772   0.697 -1.3827  0.4697 -1.4910
   66MOL   H53137061   8.009   3.553   0.669  0.6523 -0.5065 -1.3307
   66MOL   H53237062   0.231   3.739   0.460 -0.4138  1.3078 -0.1855
   66MOL   H53337063   0.140   3.953   0.508 -1.1424 -0.0670 -2.0284
   66MOL   O53437064   0.097   3.404   0.627  0.6028 -0.0281 -0.1656
   66MOL   C53537065   0.140   3.266   0.634  0.4979 -0.2110  0.1776
   66MOL   C53637066   0.023   3.164   0.637 -0.7884 -0.0876 -0.4473
   66MOL   C53737067   8.006   3.201   0.739 -0.0163 -0.2043 -0.8834
   66MOL   C53837068   8.068   3.210   0.884  0.3087 -0.1205 -0.0848
   66MOL   O53937069   8.082   3.081   0.934  0.1280 -0.3925 -0.4422
   66MOL   C54037070   0.001   3.065   1.062  0.1290 -0.6770  0.6334
   66MOL   O54137071   0.031   3.160   1.138  0.4701  0.3498 -0.1896
   66MOL   C54237072   8.080   2.926   1.110 -0.1496  0.4887 -0.7258
   66MOL   C54337073   8.084   2.903   1.248  0.5133 -0.7994 -0.3116
   66MOL   C54437074   8.075   2.776   1.298 -0.1006  0.5337  0.4970
   66MOL   C54537075   8.069   2.666   1.210 -0.2162 -0.2350  0.2254
   66MOL   C54637076   8.056   2.533   1.272 -0.3569 -0.0710  0.3134
   66MOL   O54737077   8.090   2.429   1.224  0.1599  0.8704  0.1362
   66MOL   C54837078   8.072   2.687   1.070 -0.1477  0.1137 -0.1037
   66MOL   C54937079   8.062   2.820   1.018 -0.5496  0.3833 -0.3414
   66MOL   H55037080   0.202   3.244   0.547 -1.5668 -0.3121 -1.3087
   66MOL   H55137081   0.202   3.252   0.722 -1.5400 -1.8222  1.3934
   66MOL   H55237082   0.062   3.066   0.664  0.2809  0.1730 -1.0178
   66MOL   H55337083   8.078   3.134   0.541 -0.5007  0.1801 -0.6645
   66MOL   H55437084   7.954   3.295   0.718 -1.5486 -0.3841  1.8161
   66MOL   H55537085   7.923   3.131   0.735  1.2582 -1.7329 -0.7520
   66MOL   H55637086   0.067   3.257   0.880 -0.0513  0.5294 -1.9443
   66MOL   H55737087   7.998   3.268   0.944  0.5469  0.5038 -0.4075
   66MOL   H55837088   8.075   2.984   1.320 -0.7579 -0.6907 -0.5791
   66MOL   H55937089   8.067   2.766   1.405 -1.1834 -0.5293  0.3373
   66MOL   H56037090   8.083   2.604   1.002 -0.8300 -0.2475  0.2209
   66MOL   H56137091   8.054   2.837   0.911  0.5228  0.1550 -0.4587
   66MOL   H56237092   8.022   2.537   1.376  0.5713 -2.5402  0.7401
   67MOL     O137093   5.391   3.310   7.228  0.1929 -0.2336 -0.3735
   67MOL     C237094   5.373   3.433   7.161 -0.0691  0.1583 -0.4969
   67MOL     C337095   5.222   3.456   7.131 -0.8141  0.2643  0.0229
   67MOL     C437096   5.143   3.478   7.264  0.1414  0.6245  0.6018
   67MOL     C537097   5.003   3.522   7.225 -0.5903 -0.1822 -0.6180
   67MOL     O637098   4.925   3.526   7.343  0.5285  0.3491  0.7065
   67MOL     C737099   4.813   3.599   7.344  0.1534  0.0676  0.8107
   67MOL     O837100   4.777   3.681   7.254  0.5444  0.1955  0.0274
   67MOL     C937101   4.720   3.567   7.461 -0.9028 -0.1859 -0.4074
   67MOL    C1037102   4.595   3.639   7.473 -0.3970  0.2732  0.9880
   67MOL    C1137103   4.512   3.624   7.584 -0.1172 -0.2639 -0.6236
   67MOL    C1237104   4.554   3.543   7.688 -0.1098  0.4959  0.4500
   67MOL    C1337105   4.472   3.544   7.811 -1.0462 -0.8952  0.5073
   67MOL    O1437106   4.517   3.496   7.917 -0.1258  0.6258  0.6246
   67MOL    C1537107   4.678   3.469   7.679 -0.0065 -0.0293  0.2016
   67MOL    C1637108   4.764   3.485   7.570 -0.5322  0.2008 -1.2336
   67MOL    H1737109   5.415   3.512   7.223  2.0691  0.3497 -2.1429
   67MOL    H1837110   5.431   3.440   7.069  1.0561 -1.0055  0.1071
   67MOL    H1937111   5.180   3.383   7.062 -1.4517  0.8835 -0.2476
   67MOL    H2037112   5.208   3.552   7.080  0.4843 -0.2416 -1.3420
   67MOL    H2137113   5.145   3.383   7.316  0.7770 -1.1385 -2.5314
   67MOL    H2237114   5.198   3.555   7.318  0.3576  0.0355  1.2305
   67MOL    H2337115   5.016   3.608   7.159  3.6276  0.8024  1.3288
   67MOL    H2437116   4.959   3.450   7.157 -2.6097 -0.9686  1.4536
   67MOL    H2537117   4.561   3.708   7.397  0.1063 -1.3708 -0.7824
   67MOL    H2637118   4.424   3.686   7.577  0.1691  0.1640 -0.3995
   67MOL    H2737119   4.705   3.407   7.764  0.1401  0.5175  0.5557
   67MOL    H2837120   4.856   3.430   7.559  0.2321  1.1710  0.1691
   67MOL    H2937121   5.428   3.251   7.165 -1.0557 -0.6128 -0.7591
   67MOL    O3037122   4.348   3.607   7.799 -0.6808 -0.1597 -0.0223
   67MOL    C3137123   4.267   3.626   7.914  0.2461 -0.1640 -0.0340
   67MOL    C3237124   4.168   3.733   7.863  0.5594 -0.0557 -0.2587
   67MOL    C3337125   4.059   3.683   7.773  0.1679 -0.6251 -0.3367
   67MOL    C3437126   3.950   3.789   7.743 -0.8772  0.1072  0.4472
   67MOL    O3537127   3.866   3.800   7.856 -0.4863 -0.8421 -0.0370
   67MOL    C3637128   3.763   3.714   7.885  0.1738 -0.7704  0.9549
   67MOL    O3737129   3.707   3.648   7.800  0.5043  0.7033 -0.4073
   67MOL    C3837130   3.713   3.719   8.029 -0.2245 -0.2215  0.2072
   67MOL    C3937131   3.788   3.788   0.032 -0.1244  1.0983 -0.0532
   67MOL    C4037132   3.739   3.802   0.163 -0.0329 -0.1991 -0.1879
   67MOL    C4137133   3.619   3.735   0.200 -0.0371  0.0329  0.7835
   67MOL    C4237134   3.566   3.760   0.338  0.4541 -0.2173 -0.3931
   67MOL    O4337135   3.629   3.801   0.432 -0.3465  0.0109 -0.0335
   67MOL    C4437136   3.547   3.669   0.096  0.6079  0.0132  0.2052
   67MOL    C4537137   3.594   3.656   8.064  0.5177 -0.1672 -0.1139
   67MOL    H4637138   4.210   3.535   7.930  0.0757 -0.4760 -2.2401
   67MOL    H4737139   4.326   3.648   8.003  0.7646  0.7934 -0.6052
   67MOL    H4837140   4.217   3.809   7.802  4.0545 -2.7950 -1.0331
   67MOL    H4937141   4.126   3.781   7.952  3.0616  2.2536 -0.2728
   67MOL    H5037142   4.104   3.653   7.678  1.3229  1.2807 -0.4190
   67MOL    H5137143   4.017   3.595   7.822 -1.6931 -0.0728 -0.9154
   67MOL    H5237144   3.998   3.885   7.726 -1.2571 -0.3548 -3.7058
   67MOL    H5337145   3.888   3.784   7.654  1.9444  1.4525 -1.6656
   67MOL    H5437146   3.886   3.827   0.012  1.4741 -0.3221  4.4767
   67MOL    H5537147   3.794   3.851   0.242  0.8543  0.7925 -1.4197
   67MOL    H5637148   3.458   3.620   0.132 -0.1458  1.0808 -0.1972
   67MOL    H5737149   3.535   3.605   7.989 -1.0440 -0.2570  1.1655
   67MOL    O5837150   3.436   3.719   0.346  0.5233 -0.0324  0.2981
   67MOL    C5937151   3.362   3.726   0.468  0.9121  0.1572 -0.0842
   67MOL    C6037152   3.220   3.689   0.429  0.8538  0.0373  1.0881
   67MOL    C6137153   3.220   3.537   0.410 -0.6256  0.3496  0.7554
   67MOL    C6237154   3.084   3.467   0.394 -0.6785  0.5159  0.3035
   67MOL    O6337155   3.079   3.326   0.372  0.2049 -0.7436 -0.4350
   67MOL    C6437156   2.999   3.267   0.284  0.2135 -0.1029  0.1320
   67MOL    O6537157   2.920   3.325   0.210 -0.3992  0.3574  0.1319
   67MOL    C6637158   3.028   3.122   0.273  0.0414  0.3253  0.2497
   67MOL    C6737159   2.968   3.032   0.181  0.1848  0.2902  0.5848
   67MOL    C6837160   2.991   2.893   0.181  0.4584  0.5051 -0.5555
   67MOL    C6937161   3.087   2.836   0.268 -0.5307 -0.7208  0.0243
   67MOL    C7037162   3.110   2.688   0.251 -0.0151 -0.2752 -0.9155
   67MOL    O7137163   3.044   2.615   0.176 -0.6718 -0.2230  0.6488
   67MOL    C7237164   3.152   2.922   0.361  1.0273 -1.0273 -0.0668
   67MOL    C7337165   3.117   3.058   0.365  0.3398 -0.3995  0.3131
   67MOL    H7437166   3.402   3.663   0.547 -4.1144 -3.1887 -0.0074
   67MOL    H7537167   3.360   3.831   0.499  1.7228  0.7625 -2.0093
   67MOL    H7637168   3.198   3.733   0.332  1.0026 -0.6615  0.7272
   67MOL    H7737169   3.142   3.712   0.501 -0.6692  1.9226 -1.0906
   67MOL    H7837170   3.271   3.506   0.319  1.8036  2.7873  1.2365
   67MOL    H7937171   3.279   3.495   0.492  0.3076  0.3297  0.0822
   67MOL    H8037172   3.020   3.496   0.477  0.1663 -1.3538  1.6451
   67MOL    H8137173   3.039   3.518   0.308  0.9399  0.5750 -0.5257
   67MOL    H8237174   2.902   3.064   0.101  1.3881  0.7152 -0.2477
   67MOL    H8337175   2.934   2.825   0.120 -1.2862 -0.8221  2.4174
   67MOL    H8437176   3.217   2.876   0.433 -0.4643 -0.4973  1.6569
   67MOL    H8537177   3.167   3.114   0.442 -1.9171 -1.2803  2.4571
   67MOL    O8637178   3.214   2.645   0.330  0.4183  0.4913 -0.3393
   67MOL    C8737179   3.239   2.501   0.340  0.1849 -0.2966 -0.2500
   67MOL    C8837180   3.364   2.473   0.409  0.2210  0.3432 -0.4042
   67MOL    C8937181   3.360   2.512   0.554  0.3732 -0.6296 -0.2427
   67MOL    C9037182   3.464   2.442   0.636  0.3551 -0.4406 -0.8923
   67MOL    O9137183   3.419   2.311   0.653 -0.3239  0.1065  0.2210
   67MOL    C9237184   3.490   2.206   0.611  0.4173  0.7301  0.0929
   67MOL    O9337185   3.595   2.219   0.549  0.1107 -0.2149 -0.5682
   67MOL    C9437186   3.419   2.081   0.635  1.1622 -0.7928 -0.1279
   67MOL    C9537187   3.460   1.957   0.580 -0.2409 -0.2863  0.1303
   67MOL    C9637188   3.387   1.840   0.598  0.6736  0.2831 -0.5834
   67MOL    C9737189   3.257   1.834   0.660  0.5599 -0.1667 -0.2510
   67MOL    C9837190   3.162   1.718   0.664  0.2072  0.0969 -0.8281
   67MOL    O9937191   3.054   1.725   0.721 -0.0589  0.0790  0.4957
   67MOL   C10037192   3.217   1.965   0.714  0.3780 -1.0146  0.0179
   67MOL   C10137193   3.294   2.079   0.702 -0.1682  0.2527 -0.0321
   67MOL   H10237194   3.158   2.453   0.395  0.4982 -1.1336 -0.5081
   67MOL   H10337195   3.248   2.461   0.239  0.7786 -1.9396  0.4290
   67MOL   H10437196   3.449   2.504   0.349 -0.2450  2.5386  0.0330
   67MOL   H10537197   3.381   2.365   0.404 -0.2957  0.1007  2.5016
   67MOL   H10637198   3.374   2.620   0.564  1.0386 -0.8582  1.4502
   67MOL   H10737199   3.267   2.483   0.604 -0.5989  3.0488  0.2097
   67MOL   H10837200   3.552   2.447   0.572  1.7994 -0.1491  1.0644
   67MOL   H10937201   3.490   2.499   0.725  0.6649 -1.6465 -0.2091
   67MOL   H11037202   3.554   1.938   0.530 -0.1082 -0.8562  0.5821
   67MOL   H11137203   3.424   1.758   0.538 -2.9762 -0.5773 -1.7776
   67MOL   H11237204   3.119   1.978   0.757  0.6311  0.4138  0.1783
   67MOL   H11337205   3.252   2.170   0.741 -0.7137  0.3817 -0.8997
   67MOL   O11437206   3.212   1.606   0.614  0.0669 -0.2959 -0.2772
   67MOL   C11537207   3.140   1.479   0.627 -0.5925 -0.3628  0.5798
   67MOL   C11637208   3.197   1.394   0.749 -0.4229 -0.5976  0.1806
   67MOL   C11737209   3.132   1.419   0.890  0.2266 -0.0950 -0.3578
   67MOL   C11837210   3.201   1.339   1.006  0.3115 -0.1127 -0.2686
   67MOL   O11937211   3.251   1.213   0.959  0.8923 -0.1773  0.2796
   67MOL   C12037212   3.178   1.102   0.965 -0.0184 -0.0623 -0.1667
   67MOL   O12137213   3.063   1.110   1.009 -0.5949  0.5896  0.4110
   67MOL   C12237214   3.244   0.973   0.917 -0.4475  0.2803  0.0154
   67MOL   C12337215   3.175   0.851   0.931  0.9297 -0.0325  0.1593
   67MOL   C12437216   3.233   0.733   0.893  0.1727  0.6129 -0.9760
   67MOL   C12537217   3.370   0.718   0.859 -0.0938 -0.3394 -1.1280
   67MOL   C12637218   3.431   0.590   0.848 -0.4053  0.3491 -0.3403
   67MOL   O12737219   3.379   0.489   0.895 -0.4569  0.0873  0.2321
   67MOL   C12837220   3.442   0.842   0.848 -0.1691 -0.3382  0.0289
   67MOL   C12937221   3.378   0.966   0.867  0.1897 -0.2437 -0.0092
   67MOL   H13037222   3.035   1.498   0.652 -0.3774  0.5296  0.8245
   67MOL   H13137223   3.141   1.432   0.529 -0.5472 -0.1730  0.4892
   67MOL   H13237224   3.305   1.395   0.760 -0.0031  1.4533 -3.2632
   67MOL   H13337225   3.177   1.290   0.721 -2.9510  0.1637 -0.9955
   67MOL   H13437226   3.127   1.524   0.919 -1.4316 -0.8174  2.1092
   67MOL   H13537227   3.031   1.381   0.878  0.1231 -0.7352  2.3287
   67MOL   H13637228   3.268   1.406   1.059  0.7018 -0.9343  0.2879
   67MOL   H13737229   3.131   1.329   1.090  1.9746 -0.7480  1.0812
   67MOL   H13837230   3.078   0.850   0.979  0.0184 -1.3369 -1.6472
   67MOL   H13937231   3.177   0.644   0.919  0.8374  0.5445  0.2387
   67MOL   H14037232   3.548   0.844   0.831  0.1245 -0.1223  1.8190
   67MOL   H14137233   3.428   1.061   0.863 -1.5692  0.7321  0.7817
   67MOL   O14237234   3.550   0.597   0.785  0.3775 -0.3388  0.5802
   67MOL   C14337235   3.633   0.476   0.757 -0.0100 -0.5788 -0.6917
   67MOL   C14437236   3.746   0.510   0.659 -0.2291 -0.8386 -0.8710
   67MOL   C14537237   3.680   0.570   0.523 -0.8708  0.3015 -0.0645
   67MOL   C14637238   3.789   0.644   0.441 -0.0703 -0.6783 -0.1220
   67MOL   O14737239   3.745   0.668   0.310 -0.0939  0.2720  0.4953
   67MOL   C14837240   3.661   0.776   0.279 -0.4021 -0.6077 -1.1643
   67MOL   O14937241   3.616   0.857   0.362 -0.6494 -0.2149 -0.9366
   67MOL   C15037242   3.649   0.787   0.136  0.7613  0.3087  0.5596
   67MOL   C15137243   3.558   0.876   0.082 -0.7002  0.4749 -0.0865
   67MOL   C15237244   3.534   0.884   8.044  0.3485 -0.1086 -0.3597
   67MOL   C15337245   3.587   0.794   7.952  0.0245 -0.4911 -0.1816
   67MOL   C15437246   3.544   0.789   7.808  0.0024 -0.1311 -0.7799
   67MOL   O15537247   3.609   0.733   7.723 -0.0301 -0.3357  0.0734
   67MOL   C15637248   3.691   0.712   8.000 -0.3637 -0.7977  0.1334
   67MOL   C15737249   3.722   0.706   0.042  0.0934 -0.6475  0.0236
   67MOL   H15837250   3.677   0.437   0.849 -1.1866  1.8570  0.9342
   67MOL   H15937251   3.575   0.394   0.716  1.5427 -0.7079 -2.7432
   67MOL   H16037252   3.817   0.429   0.643  1.6780  1.0666 -2.2646
   67MOL   H16137253   3.810   0.591   0.692 -0.5022 -0.7457 -0.5606
   67MOL   H16237254   3.651   0.480   0.468  0.7651  0.5608 -1.4026
   67MOL   H16337255   3.600   0.638   0.550 -1.4424 -0.1921 -0.4930
   67MOL   H16437256   3.812   0.741   0.485 -0.9901  0.0925 -1.3234
   67MOL   H16537257   3.886   0.595   0.428  0.1932  0.1939 -1.5814
   67MOL   H16637258   3.525   0.956   0.148  1.3872  0.8560  0.5528
   67MOL   H16737259   3.457   0.953   8.011 -1.2974 -2.4037 -1.4679
   67MOL   H16837260   3.732   0.644   7.928 -1.3295 -1.5644  0.3011
   67MOL   H16937261   3.798   0.634   0.072  0.6009  0.4650  1.4892
   67MOL   O17037262   3.431   0.864   7.779 -0.0956  0.1914 -0.6383
   67MOL   C17137263   3.368   0.867   7.653  0.6830  0.5226 -0.1046
   67MOL   C17237264   3.217   0.851   7.670  0.2043  0.3128  0.1466
   67MOL   C17337265   3.130   0.888   7.551  0.0823 -0.5719 -0.4039
   67MOL   C17437266   2.979   0.885   7.581 -0.4983  0.1585 -0.0492
   67MOL   O17537267   2.933   0.994   7.663  0.0075 -0.5083 -0.0531
   67MOL   C17637268   2.818   0.977   7.728 -0.1768 -0.2428  0.3092
   67MOL   O17737269   2.746   0.880   7.710  0.4759 -0.2450  0.5255
   67MOL   C17837270   2.786   1.098   7.810 -0.2344  1.2288  0.4100
   67MOL   C17937271   2.895   1.184   7.852  0.7733  0.2592  0.5015
   67MOL   C18037272   2.864   1.293   7.932  0.6628  0.3630  0.3392
   67MOL   C18137273   2.729   1.324   7.973 -0.5553 -0.0494  0.3046
   67MOL   C18237274   2.702   1.443   8.058  0.0242 -0.5544 -0.4688
   67MOL   O18337275   2.784   1.524   0.006 -0.1351  0.0690  0.2774
   67MOL   C18437276   2.625   1.242   7.926 -0.2206 -0.0263  0.0236
   67MOL   C18537277   2.654   1.128   7.849 -0.6196 -0.1268 -0.7488
   67MOL   H18637278   3.375   0.969   7.615  2.4647 -0.3236 -2.1545
   67MOL   H18737279   3.406   0.786   7.592  0.9016 -0.3384  1.1591
   67MOL   H18837280   3.173   0.909   7.751 -1.3631 -1.8588  0.8849
   67MOL   H18937281   3.199   0.750   7.706 -2.4824  1.2163  1.4261
   67MOL   H19037282   3.147   0.993   7.527 -0.9196 -0.7926 -2.1577
   67MOL   H19137283   3.149   0.819   7.468 -1.3316 -2.9308  1.1738
   67MOL   H19237284   2.919   0.890   7.490 -2.4361  0.7187  1.2239
   67MOL   H19337285   2.940   0.789   7.615 -0.3703 -0.7820 -2.4366
   67MOL   H19437286   2.998   1.168   7.824  0.0003 -2.0228 -1.2210
   67MOL   H19537287   2.945   1.359   7.959  0.2204  2.4592 -3.2164
   67MOL   H19637288   2.520   1.262   7.944  0.0082  1.3079 -0.0900
   67MOL   H19737289   2.575   1.058   7.824  0.1764 -1.1349 -0.4925
   67MOL   O19837290   2.571   1.462   8.075 -0.1432  0.0954 -0.5471
   67MOL   C19937291   2.514   1.562   0.061 -0.5204  0.1981  0.0907
   67MOL   C20037292   2.377   1.590   8.095  0.1926 -0.4953  0.2502
   67MOL   C20137293   2.285   1.468   8.081  0.1141  0.4787 -0.5264
   67MOL   C20237294   2.179   1.506   7.974  0.8378 -0.6105 -0.5725
   67MOL   O20337295   2.244   1.542   7.853 -0.1075  0.5587 -0.4790
   67MOL   C20437296   2.180   1.536   7.735  0.5236  0.3805 -0.2263
   67MOL   O20537297   2.062   1.491   7.724  0.0893  0.5067  0.1632
   67MOL   C20637298   2.255   1.587   7.618 -0.1799  0.1145 -0.8345
   67MOL   C20737299   2.396   1.617   7.622  0.6797  0.3264 -0.0117
   67MOL   C20837300   2.453   1.660   7.502 -0.3962  0.5385  0.8150
   67MOL   C20937301   2.379   1.667   7.383  0.1419 -0.0388 -0.0956
   67MOL   C21037302   2.438   1.716   7.257 -0.3641  0.3008 -1.3910
   67MOL   O21137303   2.365   1.752   7.157 -1.0898 -0.6325 -0.2010
   67MOL   C21237304   2.250   1.615   7.375 -0.2353 -0.2450  0.8495
   67MOL   C21337305   2.190   1.583   7.495 -0.4430 -0.8708  0.1908
   67MOL   H21437306   2.500   1.522   0.162  0.4379  0.8240  0.4782
   67MOL   H21537307   2.582   1.646   0.054 -0.7430  0.2649 -1.2860
   67MOL   H21637308   2.396   1.644   8.003  1.9665  0.0606  0.9334
   67MOL   H21737309   2.325   1.662   0.060 -0.7401 -1.4402  0.5855
   67MOL   H21837310   2.335   1.381   8.038 -0.9797  0.4461 -1.7716
   67MOL   H21937311   2.237   1.437   0.075  1.2184 -0.8367 -0.3848
   67MOL   H22037312   2.101   1.430   7.965  0.6531 -0.5080  0.1231
   67MOL   H22137313   2.131   1.597   8.010  0.4710 -0.9359 -0.2308
   67MOL   H22237314   2.451   1.608   7.715  1.1322  1.3656 -0.1761
   67MOL   H22337315   2.555   1.696   7.499 -0.7595  1.5945  0.6739
   67MOL   H22437316   2.180   1.620   7.292  0.5855 -1.3053  0.0911
   67MOL   H22537317   2.088   1.549   7.482 -0.2964 -0.1368 -3.4017
   67MOL   O22637318   2.578   1.727   7.265 -0.2879  0.0526 -0.0381
   67MOL   C22737319   2.646   1.784   7.155  0.4514 -0.1097 -0.0047
   67MOL   C22837320   2.795   1.760   7.177  0.1329 -0.5418 -0.0669
   67MOL   C22937321   2.844   1.835   7.297  0.2363  0.4715  0.4313
   67MOL   C23037322   2.987   1.802   7.334 -0.3162 -0.1895  0.8328
   67MOL   O23137323   3.059   1.908   7.394  0.6070  0.2389  0.1160
   67MOL   C23237324   3.175   1.958   7.339  0.5745 -0.2368  0.1821
   67MOL   O23337325   3.227   1.908   7.242  0.6715  0.3464 -0.0140
   67MOL   C23437326   3.213   2.086   7.411 -1.1679  0.2490  0.0838
   67MOL   C23537327   3.281   2.190   7.338 -0.6702 -0.1020  0.3384
   67MOL   C23637328   3.312   2.315   7.398 -0.5342  0.2473 -0.4318
   67MOL   C23737329   3.276   2.337   7.533 -0.0639  0.2758  0.4946
   67MOL   C23837330   3.301   2.474   7.583  0.5093 -0.0168 -0.7097
   67MOL   O23937331   3.249   2.516   7.683  0.1558  0.3903 -0.3134
   67MOL   C24037332   3.210   2.238   7.610 -0.1676 -0.3725  0.4869
   67MOL   C24137333   3.183   2.114   7.545  0.3995  0.3105 -0.0321
   67MOL   H24237334   2.631   1.734   7.060 -0.7211 -0.5584  0.4106
   67MOL   H24337335   2.616   1.887   7.142  3.7772  0.9334  0.0134
   67MOL   H24437336   2.857   1.791   7.093  0.6965  0.3684  0.6746
   67MOL   H24537337   2.827   1.657   7.190  1.2573  0.0306  1.9414
   67MOL   H24637338   2.836   1.941   7.271  1.2292  0.4183 -0.1092
   67MOL   H24737339   2.789   1.815   7.389  2.0383 -1.3504  1.1427
   67MOL   H24837340   2.999   1.704   7.379 -1.7699 -0.9504 -0.3545
   67MOL   H24937341   3.030   1.790   7.234  1.0145 -1.1450  1.5157
   67MOL   H25037342   3.324   2.167   7.241 -3.4210  1.4959 -1.3249
   67MOL   H25137343   3.364   2.388   7.339  1.2427 -1.0864 -0.5683
   67MOL   H25237344   3.178   2.261   7.711 -0.2515  0.6149  0.2415
   67MOL   H25337345   3.124   2.035   7.591  2.5186 -2.6558 -2.2263
   67MOL   O25437346   3.394   2.538   7.508  0.3362 -0.0302  0.1991
   67MOL   C25537347   3.421   2.673   7.525 -0.5424 -0.1474 -0.4756
   67MOL   C25637348   3.512   2.731   7.414  0.0207 -0.3302  0.4532
   67MOL   C25737349   3.523   2.884   7.424  0.4436 -0.5147  0.1974
   67MOL   C25837350   3.387   2.953   7.405  0.0291  0.5339 -0.4382
   67MOL   O25937351   3.417   3.089   7.398 -0.5049  0.4393  0.0617
   67MOL   C26037352   3.407   3.165   7.516  0.0409  0.2743 -0.1685
   67MOL   O26137353   3.368   3.115   7.620 -0.2223 -0.2984 -0.6703
   67MOL   C26237354   3.442   3.308   7.502  0.0201 -0.5995 -0.3777
   67MOL   C26337355   3.435   3.398   7.613  0.7654 -0.1748  0.0093
   67MOL   C26437356   3.467   3.529   7.599  0.1897  0.2158  0.0558
   67MOL   C26537357   3.491   3.587   7.473  0.5913  0.2889 -0.3960
   67MOL   C26637358   3.509   3.733   7.457 -0.0223  0.3616  0.4509
   67MOL   O26737359   3.553   3.779   7.352  0.4516  0.1115 -0.3201
   67MOL   C26837360   3.500   3.499   7.363  0.3813  0.1977 -0.1488
   67MOL   C26937361   3.473   3.367   7.378  0.1385 -0.1115 -0.0153
   67MOL   H27037362   3.326   2.727   7.521  0.5299  1.8155 -0.1056
   67MOL   H27137363   3.468   2.682   7.623 -1.4302 -0.2281 -0.0310
   67MOL   H27237364   3.458   2.714   7.321 -0.3863  0.3767  0.5522
   67MOL   H27337365   3.607   2.677   7.411  0.4413  0.4299 -0.3503
   67MOL   H27437366   3.552   2.900   7.528  0.5780  1.2450 -0.0820
   67MOL   H27537367   3.593   2.920   7.348  0.7625  1.3750  1.3491
   67MOL   H27637368   3.330   2.921   7.318  0.6951 -1.2042 -0.2410
   67MOL   H27737369   3.326   2.921   7.489  0.9391 -0.3630 -0.1149
   67MOL   H27837370   3.426   3.368   7.716 -3.3307  0.7015 -0.0018
   67MOL   H27937371   3.463   3.591   7.687  0.3404 -2.4656  2.0434
   67MOL   H28037372   3.522   3.545   7.268 -0.8662  0.4850 -0.3093
   67MOL   H28137373   3.485   3.302   7.293 -3.3807 -0.1918 -0.5152
   67MOL   O28237374   3.470   3.799   7.562  0.0743  0.0977  0.4097
   67MOL   C28337375   3.471   3.941   7.560 -0.6348 -0.1578  0.4473
   67MOL   C28437376   3.411   3.995   7.693 -0.7821 -0.2202 -0.0620
   67MOL   C28537377   3.401   4.144   7.689  0.0111  0.7152  0.4462
   67MOL   C28637378   3.530   4.213   7.678  0.3326  0.5007 -0.2254
   67MOL   O28737379   3.594   4.228   7.805 -0.6442  0.1298  0.2032
   67MOL   C28837380   3.689   4.137   7.832  0.1914  0.3375  0.1655
   67MOL   O28937381   3.708   4.035   7.764 -0.0090 -0.0126  0.5972
   67MOL   C29037382   3.758   4.169   7.962  0.0831  0.1573  0.6370
   67MOL   C29137383   3.868   4.093   7.999 -0.1275 -0.2279  0.8059
   67MOL   C29237384   3.938   4.109   0.018  0.8187  0.8296 -0.0539
   67MOL   C29337385   3.880   4.196   0.115 -0.1948  0.3890 -0.3442
   67MOL   C29437386   3.956   4.208   0.247 -0.4773 -0.4078 -0.0855
   67MOL   O29537387   4.040   4.125   0.284  0.6601  0.2048  0.5978
   67MOL   C29637388   3.772   4.279   0.083  0.7428  0.3493 -0.2044
   67MOL   C29737389   3.703   4.252   8.059  0.3052  0.6690  0.6283
   67MOL   H29837390   3.576   3.961   7.543 -0.9083 -0.3341 -1.5721
   67MOL   H29937391   3.423   3.982   7.471 -0.6694  0.2212  0.6382
   67MOL   H30037392   3.474   3.963   7.775  0.5771 -0.8948 -1.3469
   67MOL   H30137393   3.317   3.943   7.714 -0.2806 -1.8674 -1.7376
   67MOL   H30237394   3.339   4.180   7.606  1.9146 -0.0706 -1.3538
   67MOL   H30337395   3.357   4.171   7.785  0.7453  1.6805  0.5169
   67MOL   H30437396   3.593   4.186   7.594 -0.9981  0.2967 -1.1804
   67MOL   H30537397   3.513   4.316   7.645 -1.1083 -0.2673 -1.9445
   67MOL   H30637398   3.913   4.021   7.932 -0.7503 -0.3270  0.4866
   67MOL   H30737399   4.022   4.044   0.037 -0.0188 -0.3130 -0.2525
   67MOL   H30837400   3.733   4.355   0.149 -2.2595  1.8604 -3.5631
   67MOL   H30937401   3.615   4.309   8.031  0.0117  0.3580  0.9000
   67MOL   O31037402   3.933   4.321   0.315 -0.4874 -0.3646  0.6303
   67MOL   C31137403   4.013   4.351   0.432 -1.0254  0.2600 -0.1216
   67MOL   C31237404   4.106   4.473   0.413 -0.1554  0.2583 -0.0675
   67MOL   C31337405   4.020   4.596   0.404  0.5245 -0.5081 -0.0683
   67MOL   C31437406   4.103   4.723   0.427  0.4569  0.1755 -0.4420
   67MOL   O31537407   4.175   4.715   0.546 -0.3535  0.4901 -0.0076
   67MOL   C31637408   4.150   4.773   0.663 -0.2781  0.0827 -0.3291
   67MOL   O31737409   4.058   4.855   0.679  0.0843 -0.0581  0.2125
   67MOL   C31837410   4.247   4.732   0.769 -1.2640  0.4403 -0.1819
   67MOL   C31937411   4.205   4.749   0.900 -0.5568 -0.5405 -0.3733
   67MOL   C32037412   4.283   4.714   1.007  0.4423 -0.2691  0.0742
   67MOL   C32137413   4.413   4.660   0.982 -0.1060  0.2417  0.4741
   67MOL   C32237414   4.499   4.615   1.094  0.9351  0.6628 -0.6014
   67MOL   O32337415   4.455   4.607   1.210  0.4039  0.0164  0.3569
   67MOL   C32437416   4.458   4.644   0.851 -0.1060 -0.5701  0.5423
   67MOL   C32537417   4.373   4.671   0.740  0.3336 -0.6446 -0.1647
   67MOL   H32637418   3.953   4.370   0.521 -0.3967  1.9601 -0.0320
   67MOL   H32737419   4.065   4.261   0.464 -0.3112  0.2835 -1.1778
   67MOL   H32837420   4.174   4.466   0.328 -1.6174  1.4642 -1.3618
   67MOL   H32937421   4.160   4.463   0.507  0.3610 -2.8210 -0.6304
   67MOL   H33037422   3.973   4.611   0.307  1.3013 -1.7262 -0.6575
   67MOL   H33137423   3.933   4.592   0.470  1.3100  1.5762  1.1406
   67MOL   H33237424   4.176   4.742   0.348  2.8010 -0.2992  1.5698
   67MOL   H33337425   4.040   4.812   0.431  0.0305 -0.1819  0.8208
   67MOL   H33437426   4.121   4.812   0.926  0.3852  0.6276 -0.0767
   67MOL   H33537427   4.247   4.741   1.105  0.7721  0.4822 -0.0036
   67MOL   H33637428   4.554   4.603   0.824  0.3386  0.3752  0.6659
   67MOL   H33737429   4.416   4.663   0.641  0.8690  0.3556 -0.0229
   67MOL   O33837430   4.628   4.578   1.059 -0.6240 -1.1694 -0.2717
   67MOL   C33937431   4.695   4.485   1.133 -0.1350  0.2940  0.1189
   67MOL   C34037432   4.804   4.417   1.057  0.4658  0.2020 -0.0044
   67MOL   C34137433   4.920   4.518   1.027 -0.1053 -0.3604  0.2864
   67MOL   C34237434   4.980   4.498   0.892 -0.2012  0.5026  0.4481
   67MOL   O34337435   4.877   4.519   0.795  0.2847  0.1226 -0.2283
   67MOL   C34437436   4.871   4.631   0.722  0.1154 -0.5472  0.4264
   67MOL   O34537437   4.945   4.729   0.734 -0.0277  0.6693 -0.0341
   67MOL   C34637438   4.771   4.619   0.614 -0.2277 -0.4220  0.5138
   67MOL   C34737439   4.675   4.515   0.610  0.0118 -0.0922  0.9094
   67MOL   C34837440   4.584   4.509   0.502 -0.4457 -0.8825  0.2971
   67MOL   C34937441   4.583   4.604   0.397  0.5394 -0.2554 -0.6911
   67MOL   C35037442   4.493   4.604   0.281 -0.2032 -0.1134  0.1687
   67MOL   O35137443   4.403   4.521   0.272  0.0206 -0.1252 -0.6183
   67MOL   C35237444   4.680   4.713   0.412  0.0358  0.5292 -0.0040
   67MOL   C35337445   4.763   4.727   0.525 -0.0720 -0.3959  1.0207
   67MOL   H35437446   4.741   4.543   1.213  0.9862  0.1630 -0.4187
   67MOL   H35537447   4.626   4.408   1.167  1.4743 -0.9573  0.6454
   67MOL   H35637448   4.774   4.364   0.967  1.2868 -0.4265  0.0786
   67MOL   H35737449   4.857   4.343   1.119  1.9087  1.3750  0.2017
   67MOL   H35837450   4.888   4.620   1.047  4.9362  1.3840  0.1729
   67MOL   H35937451   4.993   4.507   1.107 -1.8505 -2.1755  1.6637
   67MOL   H36037452   5.066   4.564   0.879 -1.3047  1.7978 -0.3247
   67MOL   H36137453   5.022   4.397   0.889 -1.5259 -0.0366 -0.0812
   67MOL   H36237454   4.665   4.438   0.685  1.8646 -1.0135  0.2523
   67MOL   H36337455   4.513   4.428   0.494 -0.7499 -0.4918 -1.0427
   67MOL   H36437456   4.679   4.803   0.352 -0.4083 -0.4864 -1.5555
   67MOL   H36537457   4.819   4.818   0.542  1.2988 -0.9868 -0.2997
   67MOL   O36637458   4.515   4.697   0.195  0.1604 -0.3516  0.5949
   67MOL   C36737459   4.419   4.712   0.080 -1.2226 -0.4247 -0.3369
   67MOL   C36837460   4.477   4.802   8.067  0.2233  0.0763  0.2706
   67MOL   C36937461   4.409   4.784   7.928  0.0702  0.0568  0.0985
   67MOL   C37037462   4.443   4.882   7.817  1.0900 -0.8434  0.1454
   67MOL   O37137463   4.368   5.005   7.826 -0.1265  0.2512 -0.5840
   67MOL   C37237464   4.386   5.097   7.729 -0.5911 -0.2298  0.0313
   67MOL   O37337465   4.452   5.075   7.629 -0.9641 -0.2842 -0.2513
   67MOL   C37437466   4.312   5.221   7.749 -0.0802  0.1147  0.3582
   67MOL   C37537467   4.268   5.262   7.874  0.7571 -0.5775 -0.7192
   67MOL   C37637468   4.188   5.380   7.883  0.6097 -0.5459 -0.1308
   67MOL   C37737469   4.159   5.460   7.768  0.3397 -0.3231  0.2761
   67MOL   C37837470   4.081   5.585   7.780  0.3132  0.0687 -0.2152
   67MOL   O37937471   4.072   5.671   7.691 -0.4201  0.3646 -0.2354
   67MOL   C38037472   4.212   5.421   7.643 -0.5083  0.2973  0.4522
   67MOL   C38137473   4.287   5.296   7.631 -0.1704  0.3669 -0.2854
   67MOL   H38237474   4.386   4.616   0.041 -2.3873 -0.4303  0.6566
   67MOL   H38337475   4.325   4.754   0.114 -0.9374  0.5149 -0.6851
   67MOL   H38437476   4.584   4.779   8.067  0.1189 -0.4149  0.7131
   67MOL   H38537477   4.475   4.910   8.083  1.2395  0.0801  0.4266
   67MOL   H38637478   4.450   4.692   7.886  1.4562  1.2248 -1.1541
   67MOL   H38737479   4.301   4.769   7.935 -0.2190  0.8479 -2.1816
   67MOL   H38837480   4.547   4.908   7.798  0.5766  0.5780 -0.7544
   67MOL   H38937481   4.413   4.836   7.723 -0.1845  0.6040 -0.1758
   67MOL   H39037482   4.270   5.202   7.963 -1.7759  1.3429  0.6905
   67MOL   H39137483   4.150   5.394   7.984  0.4748  2.3251 -0.5467
   67MOL   H39237484   4.195   5.477   7.552  0.4055  1.7824  1.1954
   67MOL   H39337485   4.318   5.266   7.532 -0.0024 -0.5888  0.0567
   67MOL   O39437486   4.002   5.589   7.892  0.2818  0.1490  0.4239
   67MOL   C39537487   3.931   5.705   7.933 -0.0789 -0.7031  0.5948
   67MOL   C39637488   3.778   5.704   7.954  0.2051  0.1515 -0.6607
   67MOL   C39737489   3.716   5.841   7.930 -0.4017  0.1447  0.0487
   67MOL   C39837490   3.564   5.828   7.948  0.3699 -0.2677  0.2308
   67MOL   O39937491   3.527   5.817   8.086  0.3979 -0.3938  0.2601
   67MOL   C40037492   3.403   5.821   0.027  0.0625  0.5537  0.8339
   67MOL   O40137493   3.307   5.818   8.049  0.0065  0.3833  0.4174
   67MOL   C40237494   3.390   5.829   0.178 -0.3783  0.1989 -0.5807
   67MOL   C40337495   3.499   5.855   0.267  0.1633 -0.2126  0.1536
   67MOL   C40437496   3.481   5.855   0.409 -0.1019  0.8060 -0.4395
   67MOL   C40537497   3.347   5.844   0.463 -0.1915  0.1228 -0.2918
   67MOL   C40637498   3.333   5.857   0.609 -0.3361 -0.6231  0.0781
   67MOL   O40737499   3.226   5.829   0.672 -0.6303 -0.1830  0.7733
   67MOL   C40837500   3.239   5.823   0.376  0.3097 -0.8329  0.5907
   67MOL   C40937501   3.263   5.816   0.239 -1.4645 -0.4439  0.8068
   67MOL   H41037502   3.978   5.739   8.025 -0.2713  0.8943  0.1285
   67MOL   H41137503   3.965   5.786   7.868  0.0855 -1.5678 -0.4049
   67MOL   H41237504   3.753   5.678   8.056 -1.1415  0.8472 -0.8043
   67MOL   H41337505   3.714   5.638   7.895 -0.3250 -0.7227  0.8703
   67MOL   H41437506   3.760   5.917   7.995  1.6186  0.6530 -1.8203
   67MOL   H41537507   3.755   5.876   7.834 -0.0281 -0.9469 -0.1968
   67MOL   H41637508   3.507   5.908   7.902 -1.1299 -2.4412 -1.8321
   67MOL   H41737509   3.535   5.730   7.908 -0.3071  0.7104 -1.7621
   67MOL   H41837510   3.597   5.858   0.221 -0.1213 -1.2026 -0.5309
   67MOL   H41937511   3.569   5.868   0.471 -1.3962  1.8340  1.2222
   67MOL   H42037512   3.138   5.815   0.415  0.5960 -0.6096  1.3854
   67MOL   H42137513   3.177   5.799   0.176 -1.2896  1.8570 -0.0978
   67MOL   O42237514   3.452   5.896   0.679  0.1525  0.2066 -0.3161
   67MOL   C42337515   3.455   5.899   0.817  0.7868  0.4222  0.0369
   67MOL   C42437516   3.506   6.035   0.853  0.4216  0.6559  0.8536
   67MOL   C42537517   3.393   6.136   0.857  1.2362  0.7884  0.3879
   67MOL   C42637518   3.427   6.276   0.902  0.4147  0.3020  0.1528
   67MOL   O42737519   3.446   6.276   1.044  0.0078  0.2792  0.4029
   67MOL   C42837520   3.520   6.361   1.115  0.0346 -0.6994  0.1541
   67MOL   O42937521   3.596   6.447   1.063  0.3855  0.5137  0.5958
   67MOL   C43037522   3.489   6.355   1.265  0.9768  0.2747  0.6623
   67MOL   C43137523   3.398   6.262   1.324 -0.2480 -0.3934 -0.6961
   67MOL   C43237524   3.379   6.251   1.464 -0.0003  0.1391  0.4728
   67MOL   C43337525   3.465   6.322   1.549  0.2424  0.6384 -0.1662
   67MOL   C43437526   3.462   6.289   1.694  0.3371  0.3522 -0.2483
   67MOL   O43537527   3.415   6.183   1.743 -0.1169 -0.1813  0.3060
   67MOL   C43637528   3.557   6.412   1.491  0.3843 -0.0243  0.4721
   67MOL   C43737529   3.567   6.430   1.347 -0.5953  0.3746 -0.1665
   67MOL   H43837530   3.365   5.874   0.872  0.7595 -0.9481 -0.6063
   67MOL   H43937531   3.531   5.825   0.842 -0.7797 -0.5020  2.1423
   67MOL   H44037532   3.580   6.072   0.781  2.7880 -1.7596  1.9682
   67MOL   H44137533   3.554   6.034   0.951 -0.4030 -0.6658  1.2501
   67MOL   H44237534   3.354   6.127   0.756  0.8048  2.1459  0.4249
   67MOL   H44337535   3.319   6.094   0.925  0.9282 -3.0462 -2.1835
   67MOL   H44437536   3.513   6.313   0.846 -1.6097 -0.4808 -3.5920
   67MOL   H44537537   3.339   6.338   0.884  0.4761 -0.2166 -2.0147
   67MOL   H44637538   3.339   6.198   1.260  0.1809 -1.5073 -0.0089
   67MOL   H44737539   3.303   6.181   1.496  0.3952 -0.3388  0.3774
   67MOL   H44837540   3.627   6.463   1.556  1.0519 -1.5068  0.9361
   67MOL   H44937541   3.630   6.504   1.301  0.4892 -0.4155  0.0194
   67MOL   O45037542   3.527   6.377   1.776  0.3240  0.2118 -1.1813
   67MOL   C45137543   3.535   6.358   1.922 -0.0580 -0.4023 -0.5885
   67MOL   C45237544   3.481   6.487   1.983 -0.1810  0.5321 -0.3102
   67MOL   C45337545   3.516   6.502   2.131 -0.4086  0.1916  0.7446
   67MOL   C45437546   3.488   6.644   2.198 -0.0179  0.3863 -0.6264
   67MOL   O45537547   3.351   6.654   2.232  0.0393 -0.2735  0.5569
   67MOL   C45637548   3.256   6.706   2.151  0.0992  0.0646  0.6461
   67MOL   O45737549   3.277   6.755   2.038  0.2413  0.3189 -0.0073
   67MOL   C45837550   3.119   6.709   2.211 -0.2359  1.0939  0.2209
   67MOL   C45937551   3.002   6.757   2.142 -0.2669 -0.9094 -0.4038
   67MOL   C46037552   2.882   6.766   2.215 -0.3270 -0.1133 -0.8971
   67MOL   C46137553   2.876   6.752   2.357  0.5025  0.1096  0.7626
   67MOL   C46237554   2.745   6.775   2.426 -0.2256 -0.3009 -0.1772
   67MOL   O46337555   2.646   6.823   2.378  0.0203  0.0367  0.0618
   67MOL   C46437556   2.992   6.700   2.419 -0.3710 -0.1173 -0.2116
   67MOL   C46537557   3.111   6.675   2.351 -0.7420 -0.5896 -0.2773
   67MOL   H46637558   3.486   6.263   1.944  0.5315 -0.7057 -0.5854
   67MOL   H46737559   3.639   6.351   1.954 -0.1095 -1.8476 -0.6983
   67MOL   H46837560   3.372   6.493   1.976 -0.1229  0.4020 -1.3903
   67MOL   H46937561   3.515   6.574   1.927  1.2782  0.7804  0.9423
   67MOL   H47037562   3.477   6.419   2.190 -1.7453  0.4088  0.1815
   67MOL   H47137563   3.625   6.494   2.132 -0.4994 -1.6700 -0.7117
   67MOL   H47237564   3.561   6.655   2.277  0.0856  0.6657 -0.7605
   67MOL   H47337565   3.521   6.712   2.119  2.8617 -0.6351 -0.3767
   67MOL   H47437566   3.018   6.789   2.041 -1.9539 -1.5712 -0.9024
   67MOL   H47537567   2.788   6.792   2.168 -1.4780 -0.0236  1.3585
   67MOL   H47637568   2.976   6.673   2.523  1.9073 -1.5969 -0.2059
   67MOL   H47737569   3.187   6.637   2.419 -0.6966  0.2462  0.1499
   67MOL   O47837570   2.753   6.729   2.556 -0.2196  0.1921  0.0178
   67MOL   C47937571   2.641   6.695   2.629  0.6868 -1.1077 -0.6705
   67MOL   C48037572   2.639   6.549   2.667 -0.3131  1.1391  0.5723
   67MOL   C48137573   2.614   6.441   2.561  0.0734 -0.2463 -0.7058
   67MOL   C48237574   2.735   6.407   2.473 -0.1212 -1.1717 -0.5887
   67MOL   O48337575   2.687   6.298   2.402 -0.1912 -0.4012  0.3132
   67MOL   C48437576   2.746   6.269   2.285  0.3880 -0.5804  0.3655
   67MOL   O48537577   2.857   6.310   2.250  0.6020 -0.3064 -0.1146
   67MOL   C48637578   2.664   6.190   2.186  0.1690  0.1086  0.6620
   67MOL   C48737579   2.526   6.160   2.212  0.2307 -0.0752  0.2114
   67MOL   C48837580   2.456   6.080   2.121  0.2490  0.1506 -0.3103
   67MOL   C48937581   2.509   6.027   2.004  0.3404 -0.3529 -0.0886
   67MOL   C49037582   2.422   5.972   1.898 -0.1148 -0.4976  1.3537
   67MOL   O49137583   2.300   5.965   1.903  0.0622 -0.2948 -0.1591
   67MOL   C49237584   2.645   6.060   1.979 -0.4365 -0.6306 -0.1008
   67MOL   C49337585   2.718   6.139   2.068  0.1775 -0.1592 -0.1859
   67MOL   H49437586   2.648   6.750   2.724 -0.4542 -0.8340 -0.7363
   67MOL   H49537587   2.550   6.736   2.586  0.3088 -1.5734 -0.3171
   67MOL   H49637588   2.574   6.550   2.755 -0.9762  2.0607  0.0841
   67MOL   H49737589   2.738   6.523   2.704 -0.2849 -1.5467 -1.2658
   67MOL   H49837590   2.578   6.349   2.607  2.9255  0.7539  3.8547
   67MOL   H49937591   2.540   6.487   2.496  0.8166  0.4016 -1.1154
   67MOL   H50037592   2.771   6.483   2.403 -1.5128  0.9772  1.0079
   67MOL   H50137593   2.818   6.369   2.533 -0.7674 -2.0345 -0.2356
   67MOL   H50237594   2.466   6.208   2.287 -2.0467  0.1138 -1.6745
   67MOL   H50337595   2.350   6.064   2.136  0.4979 -0.3554  1.0593
   67MOL   H50437596   2.699   6.028   1.892  1.5261 -0.9086  1.2009
   67MOL   H50537597   2.821   6.161   2.044  0.4477 -0.6442  0.5335
   67MOL   O50637598   2.494   5.930   1.790  0.5799 -0.2109  0.1868
   67MOL   C50737599   2.434   5.947   1.661  0.2914 -0.2094 -0.0372
   67MOL   C50837600   2.521   5.932   1.538  0.2383 -0.0271 -0.1222
   67MOL   C50937601   2.595   5.801   1.532 -0.6256  1.1298 -0.9234
   67MOL   C51037602   2.713   5.822   1.435 -0.9408  0.1494 -0.2468
   67MOL   O51137603   2.740   5.702   1.366 -0.2594 -0.1867  0.2663
   67MOL   C51237604   2.847   5.625   1.403  0.3017 -0.4310 -0.4129
   67MOL   O51337605   2.934   5.665   1.482  0.7225 -0.4787 -0.0373
   67MOL   C51437606   2.849   5.496   1.334 -0.6160 -0.4880 -0.2827
   67MOL   C51537607   2.734   5.447   1.269  0.4342 -0.0441  0.0789
   67MOL   C51637608   2.745   5.326   1.200 -0.3125 -0.4126  0.1833
   67MOL   C51737609   2.854   5.242   1.205  0.4130 -0.5218  0.0220
   67MOL   C51837610   2.857   5.101   1.150  0.4798 -0.0373  0.4374
   67MOL   O51937611   2.954   5.040   1.116  0.1567 -0.1156  0.1238
   67MOL   C52037612   2.970   5.301   1.257  0.4885  0.0460  0.0867
   67MOL   C52137613   2.972   5.425   1.317  0.0533  0.2073 -0.2169
   67MOL   H52237614   2.355   5.873   1.651  0.9618 -0.8812 -0.3624
   67MOL   H52337615   2.380   6.042   1.666 -0.7533 -0.8368  0.5591
   67MOL   H52437616   2.598   6.008   1.527  2.5654 -1.9776  2.0358
   67MOL   H52537617   2.459   5.926   1.448 -0.3339 -2.0629  0.3813
   67MOL   H52637618   2.640   5.775   1.628 -2.8135 -1.0764 -0.4509
   67MOL   H52737619   2.535   5.721   1.490  1.2697 -0.0875 -1.4147
   67MOL   H52837620   2.687   5.889   1.353  0.2761  0.4164 -0.4293
   67MOL   H52937621   2.802   5.853   1.489 -1.2854 -1.5867  1.3726
   67MOL   H53037622   2.639   5.499   1.262  2.3343  3.1892 -3.7814
   67MOL   H53137623   2.660   5.269   1.168  0.0233 -1.5968  1.3561
   67MOL   H53237624   3.056   5.236   1.255  1.3365  1.2029 -1.4073
   67MOL   H53337625   3.068   5.462   1.348 -0.7158  0.9467  1.3124
   67MOL   O53437626   2.732   5.051   1.144  0.1545 -0.4619 -0.0212
   67MOL   C53537627   2.716   4.917   1.094 -0.4282 -0.3049  0.2495
   67MOL   C53637628   2.564   4.891   1.089 -0.0833 -0.2132  0.7522
   67MOL   C53737629   2.525   4.748   1.048  0.0832 -0.1844 -0.4284
   67MOL   C53837630   2.547   4.634   1.154  0.1224 -0.1311  0.0463
   67MOL   O53937631   2.674   4.578   1.122 -0.0256 -0.0757  0.1437
   67MOL   C54037632   2.718   4.468   1.181  0.5034 -0.3369 -0.3796
   67MOL   O54137633   2.658   4.420   1.281  1.1044 -0.2103  0.2301
   67MOL   C54237634   2.830   4.399   1.114 -0.2359  0.3682  0.2297
   67MOL   C54337635   2.853   4.419   0.973  0.5033  0.2615  0.7164
   67MOL   C54437636   2.971   4.363   0.912  0.1205 -0.3196 -0.2041
   67MOL   C54537637   3.063   4.293   0.987  0.3719 -0.9883  0.0759
   67MOL   C54637638   3.183   4.229   0.930  0.3726 -0.3799 -0.2803
   67MOL   O54737639   3.236   4.275   0.828  0.0853 -0.1741  0.1664
   67MOL   C54837640   3.044   4.286   1.127  0.6371  0.4371 -0.1538
   67MOL   C54937641   2.923   4.334   1.190 -0.6589 -0.3620  0.0315
   67MOL   H55037642   2.766   4.908   0.997  2.5890 -1.1915  1.8335
   67MOL   H55137643   2.758   4.854   1.172 -0.1689  0.5908  0.8317
   67MOL   H55237644   2.533   4.966   1.017  0.7199 -2.2165 -1.7433
   67MOL   H55337645   2.516   4.915   1.184 -4.9928  0.3436 -1.7038
   67MOL   H55437646   2.422   4.761   1.016  0.1857  1.6608 -0.0612
   67MOL   H55537647   2.581   4.733   0.955  2.2671  3.4163  0.2119
   67MOL   H55637648   2.533   4.679   1.253  2.6056  0.8853 -0.0270
   67MOL   H55737649   2.483   4.546   1.144  0.4166 -0.5199  1.4680
   67MOL   H55837650   2.785   4.485   0.922 -0.8706 -1.9260 -0.3453
   67MOL   H55937651   2.989   4.361   0.806  1.0201 -0.3246 -0.0538
   67MOL   H56037652   3.121   4.238   1.187 -0.6111 -0.1302  1.0193
   67MOL   H56137653   2.920   4.325   1.297  1.3834  0.2639  0.1509
   67MOL   H56237654   3.229   4.148   0.986 -0.0505 -0.6414 -0.3075
   68MOL     O137655   3.728   6.828   5.875  0.3404  0.0883 -0.1450
   68MOL     C237656   3.670   6.941   5.796 -0.2023  0.1887 -0.1684
   68MOL     C337657   3.648   6.884   5.651  0.1242 -0.7050  0.3314
   68MOL     C437658   3.573   6.979   5.559 -0.2863  0.0313 -0.4583
   68MOL     C537659   3.423   7.006   5.600  0.2102 -0.3003 -0.3330
   68MOL     O637660   3.366   7.084   5.493  0.2098  0.0700 -0.0337
   68MOL     C737661   3.261   7.167   5.521 -0.4270  0.4054  0.4620
   68MOL     O837662   3.191   7.162   5.625  0.3434  0.1686 -0.3528
   68MOL     C937663   3.242   7.264   5.413  1.0262 -0.4949 -0.2830
   68MOL    C1037664   3.151   7.372   5.422 -0.4418  0.7487  0.5025
   68MOL    C1137665   3.137   7.463   5.318  0.3552  0.3612 -0.3163
   68MOL    C1237666   3.210   7.445   5.196 -0.8905 -0.3637 -0.3967
   68MOL    C1337667   3.199   7.552   5.088  0.2471  0.9286  0.4611
   68MOL    O1437668   3.124   7.649   5.092 -0.0122  0.6280  0.4238
   68MOL    C1537669   3.298   7.339   5.181 -0.0309  1.0623 -0.3336
   68MOL    C1637670   3.322   7.250   5.289 -0.0926 -0.0894 -0.6175
   68MOL    H1737671   3.578   6.975   5.844  0.7141 -0.9270  2.4640
   68MOL    H1837672   3.741   7.024   5.801 -0.4977  0.3460  2.2817
   68MOL    H1937673   3.582   6.798   5.659 -3.3050  1.7620 -0.6343
   68MOL    H2037674   3.747   6.856   5.614  0.6331  0.7684  0.5663
   68MOL    H2137675   3.634   7.069   5.561 -0.5019  0.1644  0.8496
   68MOL    H2237676   3.563   6.940   5.458 -0.7717 -0.1506 -0.3434
   68MOL    H2337677   3.370   6.912   5.615 -1.8980  0.9580  0.2008
   68MOL    H2437678   3.427   7.052   5.698  2.2693 -0.2915 -0.3964
   68MOL    H2537679   3.084   7.376   5.506 -2.6895 -2.0201 -1.0915
   68MOL    H2637680   3.060   7.540   5.319  2.5532  2.6154  0.2209
   68MOL    H2737681   3.352   7.330   5.087 -2.4775 -0.0569 -1.6813
   68MOL    H2837682   3.384   7.163   5.276 -1.0161 -0.5740 -1.8337
   68MOL    H2937683   3.750   6.857   5.962 -2.3663 -0.6997  0.8598
   68MOL    O3037684   3.279   7.531   4.984 -0.3310  0.3814  0.2970
   68MOL    C3137685   3.327   7.634   4.908  0.4073 -0.4091  0.3422
   68MOL    C3237686   3.448   7.588   4.830  0.0141 -0.3162  0.4214
   68MOL    C3337687   3.481   7.690   4.721  0.7273 -0.3627 -0.6779
   68MOL    C3437688   3.596   7.643   4.624  0.7569  0.1381 -0.6687
   68MOL    O3537689   3.616   7.731   4.519  0.4856 -0.1236  0.1254
   68MOL    C3637690   3.734   7.723   4.454 -0.7949  0.1730 -0.2805
   68MOL    O3737691   3.827   7.642   4.486  0.3980 -0.3138  0.2175
   68MOL    C3837692   3.755   7.824   4.344  0.1968  0.2298 -0.0339
   68MOL    C3937693   3.648   7.872   4.268  0.0139 -0.0114 -0.2182
   68MOL    C4037694   3.671   7.954   4.153 -1.0744 -0.8983 -0.2133
   68MOL    C4137695   3.803   7.995   4.130 -0.1771 -0.3817  0.3026
   68MOL    C4237696   3.841   8.063   4.010  0.4271  0.0360 -0.2082
   68MOL    O4337697   3.953   0.017   3.985 -0.5178  0.5534  0.0157
   68MOL    C4437698   3.908   7.965   4.222  0.6010 -0.1463  0.6917
   68MOL    C4537699   3.882   7.879   4.328  0.3130  0.0017 -0.0814
   68MOL    H4637700   3.252   7.675   4.840  0.1681  0.8410  1.3300
   68MOL    H4737701   3.343   7.721   4.972  1.1954  0.1814 -0.6435
   68MOL    H4837702   3.431   7.488   4.788 -3.1152  0.1730  0.3722
   68MOL    H4937703   3.529   7.573   4.901  0.0611 -0.4157  0.3488
   68MOL    H5037704   3.386   7.719   4.675  0.3156  0.9383  0.9528
   68MOL    H5137705   3.511   7.780   4.776  0.8071 -0.7151 -0.1469
   68MOL    H5237706   3.685   7.624   4.684  0.9090  1.5184 -0.4369
   68MOL    H5337707   3.563   7.548   4.581  0.8157  0.1765 -0.7965
   68MOL    H5437708   3.546   7.835   4.277  0.6570 -1.4440  1.3017
   68MOL    H5537709   3.590   7.983   4.088 -0.2135  0.8246 -0.5569
   68MOL    H5637710   4.010   7.988   4.196  0.8069  0.9882  2.4389
   68MOL    H5737711   3.960   7.837   4.390  0.2009  0.7639  0.5823
   68MOL    O5837712   3.742   8.046   3.925  0.4836  0.1798  0.1240
   68MOL    C5937713   3.751   0.009   3.795 -0.2617 -0.3311 -1.0295
   68MOL    C6037714   3.607   0.005   3.733 -0.1862  0.6244 -0.1145
   68MOL    C6137715   3.606   0.080   3.596 -0.2768  0.2649 -0.7247
   68MOL    C6237716   3.476   0.063   3.518 -0.4884 -0.6711 -0.2328
   68MOL    O6337717   3.472   0.140   3.399  0.4140  0.8713  0.5155
   68MOL    C6437718   3.394   0.248   3.402 -0.0150 -0.5158 -0.0681
   68MOL    O6537719   3.350   0.293   3.506 -0.3734  0.3039 -0.2818
   68MOL    C6637720   3.373   0.300   3.264  0.0699 -0.5990 -0.9669
   68MOL    C6737721   3.289   0.411   3.249 -0.1915 -0.2171  0.1649
   68MOL    C6837722   3.277   0.477   3.123  0.4241 -0.4365  0.0543
   68MOL    C6937723   3.337   0.419   3.011  0.2446  0.1425  0.8811
   68MOL    C7037724   3.311   0.470   2.873  0.4966  0.0952  0.0265
   68MOL    O7137725   3.342   0.407   2.773  0.3369 -0.0504  0.3078
   68MOL    C7237726   3.410   0.300   3.019  0.2256 -0.4627 -0.5605
   68MOL    C7337727   3.429   0.240   3.148 -0.2189 -0.6296  0.8183
   68MOL    H7437728   3.787   0.112   3.798  0.0827 -0.4957  1.2849
   68MOL    H7537729   3.823   8.048   3.740  1.1105  1.0280 -0.7546
   68MOL    H7637730   3.549   0.072   3.795  1.8783  1.5183  0.9125
   68MOL    H7737731   3.568   8.002   3.736 -0.3677  0.7074  0.3133
   68MOL    H7837732   3.632   0.185   3.607  0.7388  0.2688 -2.8098
   68MOL    H7937733   3.687   0.040   3.535 -1.1663 -0.3478 -1.5253
   68MOL    H8037734   3.464   8.058   3.485  2.1416 -1.0838  0.0202
   68MOL    H8137735   3.398   0.089   3.590  0.6616  0.7459  0.5442
   68MOL    H8237736   3.242   0.461   3.332 -0.5219  0.4120 -0.4022
   68MOL    H8337737   3.241   0.578   3.111  2.9826  0.4569 -0.4295
   68MOL    H8437738   3.447   0.256   2.927 -1.5399  1.5979 -2.3122
   68MOL    H8537739   3.487   0.149   3.144 -1.2331 -1.2146 -2.7200
   68MOL    O8637740   3.272   0.601   2.868 -0.5663 -0.2149 -0.2625
   68MOL    C8737741   3.243   0.662   2.743 -0.9808  0.3384 -0.0941
   68MOL    C8837742   3.365   0.731   2.680 -0.5638  0.5958 -0.5093
   68MOL    C8937743   3.326   0.804   2.550  0.3056  0.6956  0.2804
   68MOL    C9037744   3.431   0.910   2.513 -0.2606 -0.0062 -0.1788
   68MOL    O9137745   3.555   0.841   2.486 -0.1915  0.1195 -0.4892
   68MOL    C9237746   3.571   0.775   2.364  0.6113 -1.2026  0.0986
   68MOL    O9337747   3.495   0.785   2.272 -0.2422 -0.8524 -0.0492
   68MOL    C9437748   3.689   0.702   2.364 -0.4838  0.6184 -0.2138
   68MOL    C9537749   3.729   0.657   2.237 -0.1343 -0.4412  0.3748
   68MOL    C9637750   3.840   0.572   2.224 -1.0731  0.2278  0.4720
   68MOL    C9737751   3.915   0.534   2.334 -0.1464 -0.3655 -0.1070
   68MOL    C9837752   4.027   0.437   2.328  0.6168 -0.6479  1.0323
   68MOL    O9937753   4.105   0.409   2.422 -0.3379  0.1030 -0.2286
   68MOL   C10037754   3.888   0.606   2.450 -0.3504  0.6968 -0.2054
   68MOL   C10137755   3.774   0.684   2.478 -0.0371 -0.0646 -0.1020
   68MOL   H10237756   3.198   0.593   2.672  0.7339 -3.4949  2.3832
   68MOL   H10337757   3.176   0.746   2.760 -2.6042 -0.7228 -1.1357
   68MOL   H10437758   3.442   0.656   2.662  0.2075  0.8716  1.4810
   68MOL   H10537759   3.409   0.805   2.747  0.5854  1.2291 -1.9466
   68MOL   H10637760   3.304   0.731   2.472 -0.3501 -0.6126  1.6557
   68MOL   H10737761   3.226   0.839   2.576 -0.4926 -1.0014 -0.3958
   68MOL   H10837762   3.394   0.965   2.427 -0.9267 -0.9967 -0.5303
   68MOL   H10937763   3.439   0.960   2.610  0.2832  1.9799 -1.2385
   68MOL   H11037764   3.678   0.682   2.145 -0.6354  1.2083  1.0887
   68MOL   H11137765   3.871   0.544   2.124 -2.6587  0.0118  0.0252
   68MOL   H11237766   3.954   0.590   2.534 -0.7508  0.2028  0.0172
   68MOL   H11337767   3.758   0.729   2.575  1.9704 -0.2377  0.3367
   68MOL   O11437768   4.034   0.389   2.201  0.0352  1.2107  0.1655
   68MOL   C11537769   4.140   0.314   2.162 -0.2221  0.1309 -0.2066
   68MOL   C11637770   4.116   0.161   2.189  0.0394  0.3436 -0.8574
   68MOL   C11737771   4.194   0.056   2.096 -0.7305  0.4541 -0.1862
   68MOL   C11837772   4.343   0.073   2.111  0.2492 -0.2887 -0.1417
   68MOL   O11937773   4.378   0.045   2.250  0.0990 -0.0497 -0.3972
   68MOL   C12037774   4.501   0.030   2.292  0.4608  0.2203  0.0813
   68MOL   O12137775   4.595   0.008   2.223  0.1649  0.3798  0.2468
   68MOL   C12237776   4.503   0.033   2.440  0.5569 -0.0023 -0.0268
   68MOL   C12337777   4.379   0.039   2.517  0.1468 -0.1694 -0.2251
   68MOL   C12437778   4.389   0.030   2.654  0.3983 -0.1680 -0.3813
   68MOL   C12537779   4.510   0.015   2.728  1.2006 -0.3439 -0.2126
   68MOL   C12637780   4.513   8.079   2.873  0.4963 -0.4445  0.6393
   68MOL   O12737781   4.615   8.072   2.939 -0.3030 -0.2125 -0.6254
   68MOL   C12837782   4.631   0.016   2.649  1.4790 -0.2524  0.3008
   68MOL   C12937783   4.629   0.023   2.507 -0.2322 -0.5105  0.5459
   68MOL   H13037784   4.147   0.329   2.054 -0.8206 -1.7330 -0.5242
   68MOL   H13137785   4.236   0.347   2.202 -0.2841  0.0535  0.0058
   68MOL   H13237786   4.010   0.140   2.179  0.3923 -1.5921 -0.7604
   68MOL   H13337787   4.147   0.147   2.293  0.9885  1.7665 -0.9335
   68MOL   H13437788   4.168   8.051   2.114  1.6782  0.0278  1.0315
   68MOL   H13537789   4.166   0.079   1.993  2.3068  0.3603 -1.0593
   68MOL   H13637790   4.392   0.008   2.039 -1.1454  0.1377 -1.5103
   68MOL   H13737791   4.365   0.179   2.095  1.0279 -0.6106 -1.1988
   68MOL   H13837792   4.283   0.059   2.473  0.1236  2.6375  1.0190
   68MOL   H13937793   4.294   0.041   2.705  0.7677  2.9396 -0.3191
   68MOL   H14037794   4.728   8.095   2.693  1.9261 -0.3306 -0.7047
   68MOL   H14137795   4.717   0.015   2.445 -0.2503  1.3496  0.2460
   68MOL   O14237796   4.392   8.059   2.928 -0.1103 -0.5540 -0.1836
   68MOL   C14337797   4.374   7.978   3.045  0.2499 -0.0039  0.2153
   68MOL   C14437798   4.232   8.002   3.095  0.4179  0.4905 -0.7643
   68MOL   C14537799   4.124   7.950   3.001  0.4186  0.1402 -0.0504
   68MOL   C14637800   3.984   7.972   3.052 -0.5061  0.6686  0.2070
   68MOL   O14737801   3.963   7.908   3.179 -0.8932  0.3235 -0.3887
   68MOL   C14837802   3.842   7.924   3.238 -0.2010 -0.9427  0.4539
   68MOL   O14937803   3.763   8.009   3.194 -0.1173 -0.2698 -0.2559
   68MOL   C15037804   3.817   7.841   3.354 -0.4724  0.6387 -0.2078
   68MOL   C15137805   3.897   7.730   3.383 -0.6614 -0.1869 -0.1802
   68MOL   C15237806   3.866   7.635   3.482 -0.0269 -0.2191 -0.1664
   68MOL   C15337807   3.748   7.654   3.562  0.1324 -0.0875 -0.3224
   68MOL   C15437808   3.720   7.557   3.674 -0.4412 -0.3519  0.1860
   68MOL   O15537809   3.643   7.583   3.761 -0.0552  0.5044 -0.8142
   68MOL   C15637810   3.670   7.768   3.539  0.0721 -0.7184 -0.6189
   68MOL   C15737811   3.700   7.854   3.435 -0.4496 -0.5002  0.0563
   68MOL   H15837812   4.400   7.876   3.018  0.6301 -0.3554  1.8568
   68MOL   H15937813   4.442   8.009   3.124  1.8045  0.3381 -1.2247
   68MOL   H16037814   4.212   0.005   3.131  0.0729  0.0672  0.2565
   68MOL   H16137815   4.221   7.949   3.190  0.2697  2.0692  0.1133
   68MOL   H16237816   4.127   7.989   2.900 -1.3712  2.0861  0.6009
   68MOL   H16337817   4.140   7.842   2.995  0.7496  0.2588 -1.4608
   68MOL   H16437818   3.966   8.079   3.064  0.5182  0.8024  0.6339
   68MOL   H16537819   3.916   7.927   2.980 -1.5999  0.6758  1.2277
   68MOL   H16637820   3.987   7.703   3.331  0.2529  0.4486  1.0335
   68MOL   H16737821   3.929   7.548   3.481  0.7888  0.3646 -0.6982
   68MOL   H16837822   3.584   7.786   3.603  1.6033 -0.3363  1.4051
   68MOL   H16937823   3.617   7.918   3.410 -0.3512  0.6192  2.4946
   68MOL   O17037824   3.791   7.442   3.673 -0.5233  0.2551 -0.1331
   68MOL   C17137825   3.765   7.353   3.782 -0.0098 -0.0397  0.2448
   68MOL   C17237826   3.900   7.274   3.811  0.8635 -0.4369  0.1238
   68MOL   C17337827   3.892   7.149   3.904 -0.4101  0.8138  0.9490
   68MOL   C17437828   3.836   7.017   3.850  1.0709  0.4002  0.6075
   68MOL   O17537829   3.698   7.034   3.836 -0.1401 -0.0118  0.7563
   68MOL   C17637830   3.630   6.943   3.763  0.2906 -0.0825 -0.5424
   68MOL   O17737831   3.683   6.843   3.708  0.1731  0.0311 -0.1142
   68MOL   C17837832   3.489   6.986   3.742  0.6159  0.6117  0.3229
   68MOL   C17937833   3.426   7.086   3.822  0.2418 -0.6983  0.6554
   68MOL   C18037834   3.299   7.132   3.800 -0.2712  0.3219 -0.3804
   68MOL   C18137835   3.225   7.076   3.692 -0.2398 -0.9893 -0.9546
   68MOL   C18237836   3.085   7.112   3.662 -0.5057  0.4419 -0.5189
   68MOL   O18337837   3.011   7.055   3.580  0.4550  0.1147 -0.4240
   68MOL   C18437838   3.285   6.978   3.604  0.0294 -0.3180  0.2445
   68MOL   C18537839   3.416   6.931   3.631  0.2478  0.0962 -0.0824
   68MOL   H18637840   3.738   7.404   3.875  2.0446 -2.0747  2.0016
   68MOL   H18737841   3.682   7.285   3.761 -0.2211  0.3852 -0.3182
   68MOL   H18837842   3.967   7.342   3.863 -1.0086  0.8301  0.9141
   68MOL   H18937843   3.944   7.243   3.717 -1.0392 -0.6292 -0.7084
   68MOL   H19037844   3.989   7.121   3.946 -1.4802 -1.4743  1.9934
   68MOL   H19137845   3.846   7.177   3.999  1.4281  2.2267  1.4408
   68MOL   H19237846   3.885   6.990   3.757  0.5264  0.5813  0.2630
   68MOL   H19337847   3.859   6.944   3.927 -1.6111  2.1832  3.2557
   68MOL   H19437848   3.481   7.120   3.909 -1.0470 -0.2330  1.2997
   68MOL   H19537849   3.257   7.207   3.865  1.0996 -0.0778  0.9949
   68MOL   H19637850   3.234   6.936   3.519  0.4715 -0.0724 -0.1477
   68MOL   H19737851   3.458   6.862   3.559 -0.5929  0.3666 -0.8399
   68MOL   O19837852   3.040   7.203   3.745  0.0510  0.2586  0.5220
   68MOL   C19937853   2.910   7.258   3.725  0.7598  0.4446 -0.1200
   68MOL   C20037854   2.875   7.358   3.833  0.8131  0.1543  0.0344
   68MOL   C20137855   2.970   7.479   3.828  0.3218  0.0139 -0.5153
   68MOL   C20237856   2.934   7.586   3.936 -0.2258  0.2352  0.7287
   68MOL   O20337857   2.798   7.608   3.934 -0.3476 -0.2979  0.0638
   68MOL   C20437858   2.741   7.707   4.017 -0.3002  0.3571 -0.0622
   68MOL   O20537859   2.813   7.799   4.071  0.2414 -0.0675  0.3741
   68MOL   C20637860   2.593   7.681   4.041  0.5304 -0.7927  0.1801
   68MOL   C20737861   2.532   7.732   4.156 -0.1680 -0.1335  0.2235
   68MOL   C20837862   2.404   7.689   4.197 -0.4264  0.0942 -0.0329
   68MOL   C20937863   2.337   7.594   4.125  0.5834  0.0967 -0.4628
   68MOL   C21037864   2.198   7.545   4.157  0.3275  0.2637 -0.8746
   68MOL   O21137865   2.145   7.453   4.095  0.5058  0.4098  0.0283
   68MOL   C21237866   2.397   7.536   4.013  0.4057 -0.5241 -0.1311
   68MOL   C21337867   2.525   7.575   3.967 -0.1578 -0.5592 -0.4232
   68MOL   H21437868   2.896   7.306   3.628 -0.9869 -0.2397 -0.2261
   68MOL   H21537869   2.840   7.175   3.726  1.3888 -0.0980 -0.4282
   68MOL   H21637870   2.891   7.307   3.928  0.3662 -1.1341 -0.5757
   68MOL   H21737871   2.768   7.377   3.820  0.8162  0.5919  0.6139
   68MOL   H21837872   3.078   7.468   3.835  0.4319  1.9626  1.3269
   68MOL   H21937873   2.952   7.530   3.734 -2.0734 -0.6190 -0.4586
   68MOL   H22037874   2.978   7.539   4.024 -0.0071  0.3630  0.6886
   68MOL   H22137875   2.995   7.675   3.918  4.9411 -3.1371  0.5881
   68MOL   H22237876   2.589   7.806   4.210 -0.2413  0.1633 -0.1021
   68MOL   H22337877   2.360   7.727   4.288  0.1074 -0.0600  0.2947
   68MOL   H22437878   2.337   7.466   3.955 -1.3424  0.5960  0.2773
   68MOL   H22537879   2.569   7.530   3.879  3.0878  0.2703  0.6978
   68MOL   O22637880   2.139   7.610   4.260  0.1484 -0.3539 -0.2084
   68MOL   C22737881   2.009   7.577   4.293 -0.3304  0.3301  0.0922
   68MOL   C22837882   2.006   7.473   4.407 -0.1872 -0.1606 -0.4891
   68MOL   C22937883   2.076   7.522   4.533 -0.3623 -0.8498  0.5308
   68MOL   C23037884   2.064   7.423   4.651  0.0907  0.0552 -0.3368
   68MOL   O23137885   2.106   7.476   4.779  0.0465  0.1993  0.7257
   68MOL   C23237886   2.235   7.505   4.814  0.0510 -0.8403  0.5981
   68MOL   O23337887   2.321   7.510   4.724 -0.1481 -0.4124 -0.7124
   68MOL   C23437888   2.260   7.532   4.957  0.0394  0.1493  0.3681
   68MOL   C23537889   2.152   7.529   5.046 -0.2554  0.1484  0.5841
   68MOL   C23637890   2.162   7.570   5.180 -0.9012 -0.2606 -0.4806
   68MOL   C23737891   2.290   7.606   5.230  0.3857 -0.2174  0.2805
   68MOL   C23837892   2.305   7.650   5.372  0.2689  0.4775  0.1169
   68MOL   O23937893   2.398   7.725   5.409  0.3070 -0.3881  0.3745
   68MOL   C24037894   2.402   7.604   5.144  0.0030  0.4635  0.0044
   68MOL   C24137895   2.385   7.569   5.011  0.4175  0.4945  0.5132
   68MOL   H24237896   1.961   7.669   4.325 -3.5635 -0.5594 -1.9402
   68MOL   H24337897   1.964   7.537   4.202 -2.7946  0.5568  1.1910
   68MOL   H24437898   2.048   7.377   4.375  0.8018  0.6735 -1.7188
   68MOL   H24537899   1.902   7.449   4.428 -0.2624  2.0744  1.8846
   68MOL   H24637900   2.178   7.559   4.523 -0.9689  0.9942  0.9466
   68MOL   H24737901   2.016   7.610   4.558 -1.4506 -1.3682 -0.1838
   68MOL   H24837902   1.971   7.368   4.642 -0.3434  0.8566 -0.8141
   68MOL   H24937903   2.129   7.340   4.622  0.9248  0.9208 -0.9721
   68MOL   H25037904   2.053   7.505   5.010  0.8824 -0.2601 -2.3964
   68MOL   H25137905   2.073   7.568   5.242 -0.2276  2.2613  0.6369
   68MOL   H25237906   2.497   7.640   5.180 -1.4478  5.6894 -0.9511
   68MOL   H25337907   2.470   7.583   4.946  2.6958 -1.3255  3.0009
   68MOL   O25437908   2.203   7.612   5.453 -0.2044  0.4455 -0.1443
   68MOL   C25537909   2.199   7.656   5.595  0.2598 -0.4412  0.4056
   68MOL   C25637910   2.166   7.545   5.700 -0.0818  0.1653  0.2495
   68MOL   C25737911   2.272   7.431   5.728 -0.2165 -0.1805  0.0037
   68MOL   C25837912   2.320   7.352   5.603 -0.4888  0.7428  0.3207
   68MOL   O25937913   2.213   7.268   5.559 -0.2615 -0.4886 -0.4418
   68MOL   C26037914   2.215   7.212   5.433 -0.1776  0.3190 -0.0708
   68MOL   O26137915   2.314   7.207   5.359  0.0508  0.4294 -0.2173
   68MOL   C26237916   2.081   7.163   5.389  0.3488  0.3917 -0.4041
   68MOL   C26337917   1.966   7.233   5.427 -0.1171  0.5228 -0.5924
   68MOL   C26437918   1.838   7.186   5.390 -0.1608 -0.1018  0.2659
   68MOL   C26537919   1.821   7.068   5.315 -0.0300  0.4342  0.2517
   68MOL   C26637920   1.687   7.027   5.269  0.2967  0.3414  0.3043
   68MOL   O26737921   1.653   6.925   5.211 -0.2584 -0.0193 -0.3398
   68MOL   C26837922   1.933   6.995   5.275  0.2765  0.1811 -0.1694
   68MOL   C26937923   2.063   7.045   5.311  0.3909  0.2426  0.3433
   68MOL   H27037924   2.295   7.703   5.619 -1.5314  3.7310 -0.1753
   68MOL   H27137925   2.117   7.728   5.604  1.1988  0.9331 -1.6225
   68MOL   H27237926   2.076   7.493   5.668  0.3944  0.6432 -1.9592
   68MOL   H27337927   2.148   7.598   5.794 -1.4367  0.5162 -0.2055
   68MOL   H27437928   2.356   7.485   5.772  0.3475 -0.6147 -0.5323
   68MOL   H27537929   2.240   7.363   5.808  0.8225  0.0123  0.5929
   68MOL   H27637930   2.348   7.420   5.523  2.2683 -0.9323 -0.2157
   68MOL   H27737931   2.404   7.290   5.634 -1.6865 -0.7845  0.5995
   68MOL   H27837932   1.964   7.325   5.483 -1.1620  0.1392  0.0294
   68MOL   H27937933   1.747   7.242   5.406 -1.1430 -1.6010  0.0538
   68MOL   H28037934   1.929   6.908   5.211 -1.3853  0.5010 -0.5260
   68MOL   H28137935   2.154   6.994   5.285 -0.6215 -0.8654 -1.1117
   68MOL   O28237936   1.596   7.126   5.282 -0.5110  0.4508 -0.2105
   68MOL   C28337937   1.461   7.105   5.248 -0.1402 -0.4137  0.0406
   68MOL   C28437938   1.390   7.241   5.227  0.5512  0.0309 -0.7004
   68MOL   C28537939   1.353   7.306   5.367 -0.0054  0.5715  1.0490
   68MOL   C28637940   1.482   7.342   5.436 -0.3027  0.0496  0.0570
   68MOL   O28737941   1.457   7.439   5.529  0.0022 -0.4335 -0.0700
   68MOL   C28837942   1.415   7.398   5.654  0.5504  0.0088 -0.0198
   68MOL   O28937943   1.358   7.292   5.680 -0.1643 -0.1138 -0.7848
   68MOL   C29037944   1.431   7.502   5.757 -0.2014  0.4701 -1.0564
   68MOL   C29137945   1.490   7.630   5.737 -0.0678 -0.1234  0.1973
   68MOL   C29237946   1.509   7.721   5.845 -0.2562  0.3564 -0.0228
   68MOL   C29337947   1.487   7.679   5.981  0.0246  0.2794  0.0111
   68MOL   C29437948   1.520   7.760   6.100  0.1408  0.0511 -0.1882
   68MOL   O29537949   1.489   7.723   6.214 -0.8602 -0.4105  0.3052
   68MOL   C29637950   1.425   7.550   6.004 -0.5235 -0.0222  0.0789
   68MOL   C29737951   1.388   7.473   5.891 -0.4126  0.2363 -0.3181
   68MOL   H29837952   1.442   7.034   5.167 -0.8532 -0.3697  0.1660
   68MOL   H29937953   1.406   7.065   5.333 -1.4176  0.1991 -0.4817
   68MOL   H30037954   1.301   7.221   5.168  0.9902  0.6689 -1.6021
   68MOL   H30137955   1.458   7.305   5.172  0.2794  2.0937  1.3086
   68MOL   H30237956   1.292   7.395   5.351  0.6748  0.6755 -1.0923
   68MOL   H30337957   1.293   7.240   5.430  0.8858 -0.2995  1.0040
   68MOL   H30437958   1.534   7.261   5.487 -0.6250  1.4490  2.7055
   68MOL   H30537959   1.543   7.402   5.368 -0.1620  1.8934  1.7717
   68MOL   H30637960   1.528   7.662   5.641  0.7173 -0.6234  0.3383
   68MOL   H30737961   1.547   7.821   5.828 -0.3957  0.5478  0.7566
   68MOL   H30837962   1.400   7.515   6.103  1.3367 -1.9787 -0.1217
   68MOL   H30937963   1.332   7.381   5.906  0.6131 -0.5333 -1.1325
   68MOL   O31037964   1.570   7.881   6.069 -0.4811 -0.4843  0.4296
   68MOL   C31137965   1.601   7.986   6.159 -0.7098  0.3111  0.6080
   68MOL   C31237966   1.753   8.023   6.142  0.3368 -0.3857 -0.1581
   68MOL   C31337967   1.782   0.054   6.214  0.0894 -0.4626  0.0001
   68MOL   C31437968   1.929   0.096   6.214  0.5151  0.2068  0.4097
   68MOL   O31537969   1.929   0.224   6.279  0.0838 -0.0064 -0.3253
   68MOL   C31637970   2.041   0.300   6.273  0.7591  0.6822 -0.1944
   68MOL   O31737971   2.139   0.269   6.206  0.3381  0.2825 -0.3974
   68MOL   C31837972   2.034   0.426   6.357  0.2617 -0.0991 -0.3920
   68MOL   C31937973   2.149   0.511   6.359  0.3907  0.0754 -0.4449
   68MOL   C32037974   2.145   0.637   6.431 -0.4760 -0.6604 -0.2782
   68MOL   C32137975   2.028   0.681   6.498  0.6707 -0.0161  0.2503
   68MOL   C32237976   2.011   0.817   6.547 -0.8815 -0.2630 -0.1279
   68MOL   O32337977   2.091   0.909   6.522  0.6425  0.1250 -0.3049
   68MOL   C32437978   1.918   0.589   6.500 -0.3347  0.2153 -0.8334
   68MOL   C32537979   1.925   0.465   6.438  0.2352  0.3779 -0.6960
   68MOL   H32637980   1.535   8.061   6.117  0.4584  0.3134 -1.3170
   68MOL   H32737981   1.578   7.955   6.260  2.9972 -0.0109  1.4170
   68MOL   H32837982   1.785   8.021   6.038 -0.1178 -1.9868 -0.2887
   68MOL   H32937983   1.807   7.945   6.196 -1.2314  0.0177  2.0888
   68MOL   H33037984   1.721   0.132   6.169 -0.5927 -1.3442 -0.6273
   68MOL   H33137985   1.753   0.035   6.317  2.0859 -0.5281  0.5779
   68MOL   H33237986   1.993   0.025   6.266 -0.9207  0.3138  2.3666
   68MOL   H33337987   1.966   0.109   6.112  2.9560  0.8800  1.3659
   68MOL   H33437988   2.239   0.495   6.302 -0.4751  0.7185 -2.0306
   68MOL   H33537989   2.229   0.701   6.411  0.4882 -1.4749  1.0861
   68MOL   H33637990   1.821   0.618   6.538 -0.0011 -1.8192  1.6845
   68MOL   H33737991   1.833   0.408   6.433  0.8306 -0.5218 -1.3443
   68MOL   O33837992   1.892   0.840   6.615 -0.4817  0.5281  0.3087
   68MOL   C33937993   1.873   0.957   6.681  0.3936 -0.1667  0.3231
   68MOL   C34037994   1.750   0.936   6.768  0.5046  0.1123  0.1624
   68MOL   C34137995   1.717   1.060   6.851  0.6192 -0.7561  0.5444
   68MOL   C34237996   1.576   1.079   6.903  0.1983  0.1244 -0.0506
   68MOL   O34337997   1.564   0.994   7.007 -0.5059 -0.1515 -0.3457
   68MOL   C34437998   1.443   0.964   7.058  0.0466  0.2007  0.3510
   68MOL   O34537999   1.342   1.024   7.018  0.0076  0.3517 -0.3376
   68MOL   C34638000   1.434   0.849   7.152 -0.0242  0.5021 -0.2282
   68MOL   C34738001   1.539   0.771   7.200 -0.0677  0.1571  0.0958
   68MOL   C34838002   1.517   0.670   7.296  0.5597 -0.3939 -0.6168
   68MOL   C34938003   1.385   0.647   7.343  0.7624  0.7269 -0.1812
   68MOL   C35038004   1.361   0.533   7.436  0.6715  0.3465  0.3050
   68MOL   O35138005   1.456   0.458   7.463 -0.3628 -0.3858 -0.5923
   68MOL   C35238006   1.278   0.716   7.286  0.6029  0.1131 -0.6455
   68MOL   C35338007   1.307   0.822   7.200 -0.1247  0.5527  0.5819
   68MOL   H35438008   1.965   0.982   6.733 -0.0585 -2.0631  2.0934
   68MOL   H35538009   1.849   1.034   6.606  0.0580  1.2421  1.8544
   68MOL   H35638010   1.751   0.847   6.831 -0.2637 -0.3889 -0.5199
   68MOL   H35738011   1.668   0.920   6.698 -0.2426  0.6603  0.8907
   68MOL   H35838012   1.780   1.069   6.939  1.4773  0.0144 -0.1447
   68MOL   H35938013   1.728   1.154   6.797 -0.3180 -1.6543 -1.2643
   68MOL   H36038014   1.563   1.179   6.943 -1.8120 -0.4645  0.8252
   68MOL   H36138015   1.503   1.059   6.825  0.4037  2.4098 -0.8695
   68MOL   H36238016   1.641   0.784   7.165  0.1664  0.6867  0.9482
   68MOL   H36338017   1.602   0.613   7.329  1.0598  2.4684  3.3485
   68MOL   H36438018   1.176   0.713   7.321  0.4264  4.1389 -0.6506
   68MOL   H36538019   1.222   0.883   7.174 -0.5714  0.4576  1.7560
   68MOL   O36638020   1.237   0.528   7.488 -0.4017  0.0767 -0.3258
   68MOL   C36738021   1.198   0.418   7.568  0.7904 -0.4108  0.2794
   68MOL   C36838022   1.042   0.429   7.592 -0.2581  0.2896 -0.2856
   68MOL   C36938023   1.006   0.325   7.705  0.6781 -0.2540 -0.4672
   68MOL   C37038024   0.856   0.324   7.732 -0.5109 -0.8708 -0.5720
   68MOL   O37138025   0.779   0.246   7.648 -0.0798 -0.2089 -0.5990
   68MOL   C37238026   0.659   0.193   7.687 -0.4830 -0.0128  0.1207
   68MOL   O37338027   0.606   0.209   7.795 -0.4241  0.3724  0.0525
   68MOL   C37438028   0.605   0.101   7.584 -0.4100  0.2557 -0.0818
   68MOL   C37538029   0.490   0.032   7.615  0.1409  0.5935 -0.7663
   68MOL   C37638030   0.448   8.024   7.540  0.5139 -0.6028 -0.5485
   68MOL   C37738031   0.521   7.990   7.425 -0.1886  0.9782 -0.2467
   68MOL   C37838032   0.483   7.879   7.340  0.3618  0.1663  0.6429
   68MOL   O37938033   0.479   7.893   7.221 -0.7840 -0.5145  0.1214
   68MOL   C38038034   0.632   8.074   7.383  0.4592 -0.0267  0.5056
   68MOL   C38138035   0.677   0.080   7.465  0.5736 -0.1474 -0.6042
   68MOL   H38238036   1.232   0.321   7.533  2.5582  0.3869 -0.2794
   68MOL   H38338037   1.242   0.423   7.667 -1.5894  2.1205  1.2771
   68MOL   H38438038   0.983   0.414   7.501 -1.1281  1.0743  0.1450
   68MOL   H38538039   1.009   0.523   7.635 -0.7615  0.8556 -1.8787
   68MOL   H38638040   1.037   0.226   7.674 -0.6305  0.5053 -4.6076
   68MOL   H38738041   1.039   0.352   7.805 -0.6812 -0.9862  0.2020
   68MOL   H38838042   0.839   0.291   7.835 -1.4728  1.2677 -0.0034
   68MOL   H38938043   0.820   0.427   7.739  1.8305 -0.1522  2.3522
   68MOL   H39038044   0.437   0.070   7.701 -0.6835  0.2400 -1.1165
   68MOL   H39138045   0.360   7.970   7.572  0.7255  0.3665  1.7607
   68MOL   H39238046   0.695   8.062   7.297 -0.7531  0.9032 -0.5227
   68MOL   H39338047   0.767   0.134   7.439 -0.9522  4.2830  2.7423
   68MOL   O39438048   0.443   7.772   7.411  0.4480  0.0503  0.1236
   68MOL   C39538049   0.396   7.653   7.353  0.0836  0.0806  0.3094
   68MOL   C39638050   0.499   7.555   7.321 -0.3934 -0.2805 -0.5291
   68MOL   C39738051   0.452   7.422   7.260  0.4477 -0.4152  0.2711
   68MOL   C39838052   0.440   7.420   7.099  0.2823  0.2035 -0.2741
   68MOL   O39938053   0.512   7.522   7.028 -0.1849  0.5672 -0.3007
   68MOL   C40038054   0.484   7.545   6.895  0.1643 -0.3074 -0.7022
   68MOL   O40138055   0.397   7.487   6.830 -0.4929  0.0487 -0.1382
   68MOL   C40238056   0.559   7.660   6.842  0.0746 -0.3340  0.4289
   68MOL   C40338057   0.629   7.746   6.928 -0.0420  0.3336  0.5988
   68MOL   C40438058   0.701   7.858   6.881 -0.3601 -0.0237  0.7337
   68MOL   C40538059   0.693   7.887   6.742  0.2867 -0.3142 -0.0072
   68MOL   C40638060   0.759   8.020   6.697  0.0666  0.6638 -0.6241
   68MOL   O40738061   0.805   0.007   6.774  0.0316  0.3139 -0.2508
   68MOL   C40838062   0.621   7.802   6.656  0.0916 -0.3918 -0.2737
   68MOL   C40938063   0.558   7.684   6.705 -0.4582 -0.2528  0.0951
   68MOL   H41038064   0.319   7.611   7.418 -0.0736  0.8944  0.6500
   68MOL   H41138065   0.344   7.674   7.259 -0.5150 -0.3665  0.5403
   68MOL   H41238066   0.566   7.528   7.403  0.1258 -1.0130 -1.1815
   68MOL   H41338067   0.568   7.602   7.251 -0.9268  0.4276 -0.5885
   68MOL   H41438068   0.518   7.342   7.292  1.4789 -0.8892 -2.8980
   68MOL   H41538069   0.353   7.393   7.297 -0.4846  2.2683 -0.0331
   68MOL   H41638070   0.455   7.318   7.064 -0.2859  0.5373 -1.5206
   68MOL   H41738071   0.334   7.437   7.079  0.2621  1.5820  0.9075
   68MOL   H41838072   0.623   7.744   7.036 -0.7563 -2.3646  0.5393
   68MOL   H41938073   0.756   7.923   6.947  2.4403 -0.1632 -1.3511
   68MOL   H42038074   0.622   7.835   6.553  1.3361  0.5642  0.0407
   68MOL   H42138075   0.508   7.615   6.638 -2.5392 -0.1731  1.5089
   68MOL   O42238076   0.772   8.032   6.565  0.2749  0.4760 -0.1748
   68MOL   C42338077   0.807   0.056   6.508  0.3445 -0.1178  0.4992
   68MOL   C42438078   0.760   0.063   6.363  0.3842  0.6651  0.1599
   68MOL   C42538079   0.872   0.026   6.261  0.5616 -0.1081  0.4425
   68MOL   C42638080   0.806   0.004   6.127  0.0756  0.2227  0.0321
   68MOL   O42738081   0.907   0.037   6.026  0.0977  0.2704  0.0868
   68MOL   C42838082   0.890   0.004   5.898  0.5763  0.2341 -0.7671
   68MOL   O42938083   0.778   8.078   5.849  0.0688  0.0885  0.4950
   68MOL   C43038084   1.009   0.011   5.818  0.2304  0.2569 -0.4739
   68MOL   C43138085   1.131   8.098   5.885  0.2868  0.7604 -0.2767
   68MOL   C43238086   1.251   0.005   5.815 -0.2397  0.6203  1.2693
   68MOL   C43338087   1.246   8.089   5.669 -0.5103  1.2294 -0.4365
   68MOL   C43438088   1.380   8.079   5.596 -0.4108  0.1929  0.2345
   68MOL   O43538089   1.397   8.035   5.482 -0.0349 -0.3954 -0.4596
   68MOL   C43638090   1.123   8.080   5.601 -0.6371 -0.2175 -0.4359
   68MOL   C43738091   1.006   0.004   5.675  1.2345  0.9044  0.1728
   68MOL   H43838092   0.747   0.127   6.565  0.4772  1.2062 -0.9968
   68MOL   H43938093   0.909   0.087   6.529 -0.1653  2.3487 -0.4168
   68MOL   H44038094   0.738   0.169   6.359  2.1028  1.0888  1.1766
   68MOL   H44138095   0.661   0.023   6.342  1.6925 -1.3646 -2.3732
   68MOL   H44238096   0.956   0.095   6.259 -0.6981  1.4405 -0.3315
   68MOL   H44338097   0.920   8.031   6.292  0.0500 -0.4464  0.2343
   68MOL   H44438098   0.779   7.998   6.109  0.1353  0.3487 -0.8182
   68MOL   H44538099   0.723   0.072   6.111 -1.1508 -1.3228 -0.2765
   68MOL   H44638100   1.131   8.080   5.991  1.3237 -1.3128 -0.5982
   68MOL   H44738101   1.347   0.017   5.863 -0.4799  0.9843  1.6568
   68MOL   H44838102   1.122   8.050   5.498 -2.5661 -1.4836 -0.0689
   68MOL   H44938103   0.910   0.003   5.626  1.7092  1.6604 -0.7921
   68MOL   O45038104   1.488   0.019   5.669  0.3546  0.2302 -0.3234
   68MOL   C45138105   1.615   0.009   5.621 -0.1873  0.2906  0.3269
   68MOL   C45238106   1.679   7.969   5.657 -0.6104  0.1075 -0.6782
   68MOL   C45338107   1.819   7.979   5.608 -0.8064 -0.2200  0.1352
   68MOL   C45438108   1.921   7.877   5.654  0.1726  0.4671 -0.5749
   68MOL   O45538109   1.951   7.883   5.795  0.0382 -0.4350 -0.4386
   68MOL   C45638110   1.926   7.773   5.871  0.6346  0.4159 -0.4014
   68MOL   O45738111   1.867   7.674   5.837 -0.1784  1.0972 -0.1411
   68MOL   C45838112   1.986   7.786   6.008  0.0913  0.7067 -0.0526
   68MOL   C45938113   2.081   7.889   6.036 -0.0716 -0.4797 -0.7399
   68MOL   C46038114   2.136   7.902   6.169 -0.2543  0.1223  0.0957
   68MOL   C46138115   2.106   7.807   6.269  0.2834  0.6666 -0.4238
   68MOL   C46238116   2.155   7.819   6.410  0.2143  0.0988 -0.3028
   68MOL   O46338117   2.111   7.755   6.506  0.2617 -0.2136  0.1281
   68MOL   C46438118   2.020   7.705   6.235  0.5440  0.3258 -0.2867
   68MOL   C46538119   1.963   7.689   6.106  0.2386 -0.4749  0.1795
   68MOL   H46638120   1.619   0.034   5.515  1.7279  0.6066  0.4559
   68MOL   H46738121   1.682   0.083   5.664 -0.5385  0.4410  0.6202
   68MOL   H46838122   1.631   7.883   5.611 -2.0011 -0.1589  1.2053
   68MOL   H46938123   1.678   7.951   5.764 -2.1390  2.6549 -0.2190
   68MOL   H47038124   1.818   7.991   5.500 -2.2301 -2.1431 -0.1031
   68MOL   H47138125   1.856   8.080   5.623 -0.1109 -0.6078  1.0906
   68MOL   H47238126   1.893   7.782   5.609 -1.9576  0.9687 -0.3534
   68MOL   H47338127   2.015   7.906   5.606  0.7358 -1.7332 -0.9034
   68MOL   H47438128   2.101   7.966   5.964 -2.9274  0.9330 -0.1048
   68MOL   H47538129   2.202   7.986   6.186 -0.5832  0.6348 -1.0687
   68MOL   H47638130   2.000   7.636   6.316 -0.3360  0.6641 -0.2164
   68MOL   H47738131   1.894   7.610   6.084  1.9928 -2.0090  0.0795
   68MOL   O47838132   2.248   7.915   6.417  0.3012 -0.2351 -0.3414
   68MOL   C47938133   2.287   7.958   6.542  0.1159  0.2296 -0.1029
   68MOL   C48038134   2.407   8.055   6.538  0.4638 -0.0722 -0.1168
   68MOL   C48138135   2.366   0.094   6.487 -0.3229  0.6605  0.6610
   68MOL   C48238136   2.478   0.199   6.491 -0.2776  0.7177  0.6318
   68MOL   O48338137   2.485   0.234   6.629 -0.1813  0.1886 -0.1726
   68MOL   C48438138   2.572   0.330   6.664 -0.1500 -0.1801 -0.2296
   68MOL   O48538139   2.648   0.385   6.584 -0.2763  0.1320  0.1099
   68MOL   C48638140   2.565   0.362   6.807  0.4178 -0.7878 -0.0113
   68MOL   C48738141   2.481   0.289   6.897 -0.6145  0.3556  0.1403
   68MOL   C48838142   2.467   0.316   7.031  0.3367 -0.2144  0.3647
   68MOL   C48938143   2.536   0.429   7.083 -0.2175  0.1985 -0.4277
   68MOL   C49038144   2.513   0.469   7.230 -0.0705 -0.3782 -0.2647
   68MOL   O49138145   2.451   0.408   7.314 -0.2770  0.3868 -0.3864
   68MOL   C49238146   2.618   0.510   7.000  0.1350  0.0380  0.5285
   68MOL   C49338147   2.630   0.472   6.868 -1.5406  0.4193  0.3072
   68MOL   H49438148   2.204   8.017   6.581  1.4869  1.6008  0.7955
   68MOL   H49538149   2.302   7.880   6.617 -1.3958 -0.0798 -0.1239
   68MOL   H49638150   2.485   8.014   6.474 -0.7788  0.1846 -1.8459
   68MOL   H49738151   2.446   8.070   6.639 -1.5598  0.5114  0.5976
   68MOL   H49838152   2.330   0.088   6.384  0.6351  1.0364  0.3083
   68MOL   H49938153   2.275   0.137   6.531  0.1508  0.3135  2.0203
   68MOL   H50038154   2.569   0.155   6.451 -0.4510  0.4041  0.5857
   68MOL   H50138155   2.448   0.274   6.418  0.5927  0.7417  0.2972
   68MOL   H50238156   2.437   0.202   6.851  1.0852  0.1695 -1.1802
   68MOL   H50338157   2.406   0.254   7.096 -0.6539  1.9813  1.6097
   68MOL   H50438158   2.660   0.605   7.029 -0.8577  0.9455 -0.9629
   68MOL   H50538159   2.705   0.525   6.811 -0.8300  0.5642  1.3600
   68MOL   O50638160   2.580   0.583   7.262 -0.2983 -0.5152  0.4030
   68MOL   C50738161   2.561   0.652   7.389 -0.0206 -0.3261 -0.1346
   68MOL   C50838162   2.611   0.794   7.380 -0.1741 -0.1784  0.0815
   68MOL   C50938163   2.547   0.881   7.270  0.0657  0.0303 -0.2185
   68MOL   C51038164   2.413   0.935   7.320  0.2442  0.2505 -0.0098
   68MOL   O51138165   2.328   0.831   7.302 -0.3502 -0.2785  0.6441
   68MOL   C51238166   2.205   0.840   7.339 -0.6975  0.0546  0.1246
   68MOL   O51338167   2.153   0.940   7.388  0.2900  0.2648  0.0502
   68MOL   C51438168   2.129   0.723   7.299 -0.1253  0.7025 -0.2800
   68MOL   C51538169   2.188   0.609   7.233  0.4223  0.1565  0.1134
   68MOL   C51638170   2.105   0.500   7.196  0.8935 -0.2636  0.1164
   68MOL   C51738171   1.964   0.515   7.212 -0.2735  0.4318  0.2434
   68MOL   C51838172   1.875   0.415   7.156  0.6034 -0.0377  0.8751
   68MOL   O51938173   1.914   0.339   7.075  0.1004  0.4359 -0.2481
   68MOL   C52038174   1.917   0.628   7.281 -0.3207  0.1204  0.1630
   68MOL   C52138175   1.989   0.733   7.324 -0.2324 -0.0892  0.7941
   68MOL   H52238176   2.456   0.663   7.415 -0.5850 -2.4142 -1.3938
   68MOL   H52338177   2.605   0.596   7.471 -0.5450  2.0119  1.7746
   68MOL   H52438178   2.719   0.794   7.362  0.1211 -1.7427  1.7391
   68MOL   H52538179   2.593   0.837   7.479 -0.6963 -2.5084  1.0345
   68MOL   H52638180   2.620   0.962   7.267  2.1801 -1.8466  0.0786
   68MOL   H52738181   2.542   0.850   7.166 -3.0241 -1.0196  0.2050
   68MOL   H52838182   2.431   0.968   7.423  2.6280  1.3569 -0.7451
   68MOL   H52938183   2.384   1.031   7.277  0.4656  0.4740  0.3320
   68MOL   H53038184   2.290   0.603   7.200  0.1635  1.5225 -0.9615
   68MOL   H53138185   2.141   0.415   7.141  1.4645 -0.0419  0.1424
   68MOL   H53238186   1.810   0.639   7.292 -0.2239  0.2432  0.9731
   68MOL   H53338187   1.945   0.820   7.371  0.8721 -0.1713  1.9934
   68MOL   O53438188   1.748   0.420   7.204  0.6066  0.0719 -0.5508
   68MOL   C53538189   1.650   0.326   7.156 -0.4236 -0.2544 -0.2642
   68MOL   C53638190   1.669   0.193   7.231  0.5143  0.3486  0.1071
   68MOL   C53738191   1.593   0.073   7.158  0.6968 -0.1227 -0.3712
   68MOL   C53838192   1.605   8.042   7.226 -0.4135 -0.9404  0.0786
   68MOL   O53938193   1.548   8.061   7.359  0.3752 -0.1848 -0.1643
   68MOL   C54038194   1.419   8.039   7.372 -0.0739 -0.2644  0.1624
   68MOL   O54138195   1.339   8.015   7.283 -0.0422 -0.7426 -0.0806
   68MOL   C54238196   1.383   8.047   7.519  0.6207 -0.4460  0.0246
   68MOL   C54338197   1.280   7.959   7.562  0.3103 -0.0834 -0.0455
   68MOL   C54438198   1.232   7.967   7.697 -0.2164  0.3302 -0.2090
   68MOL   C54538199   1.304   8.038   7.794 -0.2992 -1.0134  0.6154
   68MOL   C54638200   1.278   8.041   7.938 -0.2815 -0.7402 -0.5155
   68MOL   O54738201   1.342   0.006   8.020 -0.2642 -0.3992  0.2905
   68MOL   C54838202   1.404   0.022   7.749  0.5005 -0.3460 -0.4230
   68MOL   C54938203   1.443   0.033   7.614 -0.4624  0.2751 -0.4888
   68MOL   H55038204   1.553   0.372   7.175 -0.8515 -1.0719 -0.4480
   68MOL   H55138205   1.661   0.313   7.049  1.5632 -1.5555  0.0761
   68MOL   H55238206   1.647   0.202   7.338  0.2606 -0.2295  0.1061
   68MOL   H55338207   1.772   0.159   7.218  0.8819  0.8361  1.6008
   68MOL   H55438208   1.486   0.094   7.150  1.1843  2.2364 -1.2238
   68MOL   H55538209   1.642   0.055   7.062 -0.7042  1.8043 -1.4895
   68MOL   H55638210   1.582   7.956   7.163 -1.0785 -0.2463 -0.6288
   68MOL   H55738211   1.711   8.043   7.248 -0.1738 -1.9680 -0.9840
   68MOL   H55838212   1.225   7.890   7.500 -0.0877 -1.7393  2.0604
   68MOL   H55938213   1.154   7.901   7.731 -0.5654  0.8505  0.0132
   68MOL   H56038214   1.435   0.093   7.824 -1.4314  0.1391 -0.0395
   68MOL   H56138215   1.515   0.107   7.584 -0.2754  0.1902 -0.2524
   68MOL   H56238216   1.196   7.974   7.963  0.0979 -1.4256 -1.0939
   69MOL     O138217   2.504   2.199   6.042 -0.2212 -0.2986  0.3241
   69MOL     C238218   2.569   2.072   6.037  0.1553 -0.7673  0.4874
   69MOL     C338219   2.534   1.991   6.166 -0.1694 -0.5746  0.2111
   69MOL     C438220   2.383   1.976   6.194 -0.5306 -0.2077  0.2912
   69MOL     C538221   2.351   1.888   6.309 -0.0139 -0.0708  0.2532
   69MOL     O638222   2.219   1.911   6.356 -0.8374  0.2837  0.2078
   69MOL     C738223   2.166   1.834   6.447  0.0421  0.5128  0.1360
   69MOL     O838224   2.217   1.729   6.476 -0.2340  0.2812 -0.0426
   69MOL     C938225   2.043   1.880   6.515  0.1119  0.2590  0.5276
   69MOL    C1038226   1.978   1.997   6.472  0.3729 -0.3342  0.0987
   69MOL    C1138227   1.862   2.052   6.530  0.6149 -0.9289  0.5679
   69MOL    C1238228   1.808   1.982   6.643 -0.3163 -0.1616  0.5574
   69MOL    C1338229   1.687   2.025   6.712  0.3627  0.4189 -1.1938
   69MOL    O1438230   1.593   2.081   6.648  0.1728  0.8235 -0.0074
   69MOL    C1538231   1.861   1.853   6.680  0.1378 -0.6451 -0.3096
   69MOL    C1638232   1.977   1.806   6.620  0.2229 -0.2125 -0.5238
   69MOL    H1738233   2.537   2.020   5.947 -1.3943 -1.9457  1.6698
   69MOL    H1838234   2.676   2.089   6.028 -0.0617  0.0838 -0.4915
   69MOL    H1938235   2.582   2.040   6.251  0.0320  1.1701 -0.8816
   69MOL    H2038236   2.581   1.895   6.146  1.0839  0.3386 -1.3475
   69MOL    H2138237   2.343   2.076   6.213  1.0769 -0.0779  3.1796
   69MOL    H2238238   2.323   1.943   6.109  0.6782  1.6837 -1.3515
   69MOL    H2338239   2.366   1.781   6.292 -1.1958 -0.0150 -1.1874
   69MOL    H2438240   2.414   1.908   6.396  0.0243  0.0857  0.1899
   69MOL    H2538241   2.007   2.049   6.382 -0.0845 -1.1890 -0.5520
   69MOL    H2638242   1.809   2.144   6.510 -0.0441 -1.8413 -2.0201
   69MOL    H2738243   1.811   1.799   6.759 -3.2435  0.0776 -1.8993
   69MOL    H2838244   1.996   1.707   6.657 -0.9279 -0.0980  0.4013
   69MOL    H2938245   2.515   2.234   6.129 -1.2818 -0.2763  0.4572
   69MOL    O3038246   1.682   1.998   6.850 -0.3456  0.4817  0.1770
   69MOL    C3138247   1.575   2.036   6.934 -1.0292 -0.3690  0.2883
   69MOL    C3238248   1.601   2.185   6.983  0.3312  0.5345  0.1801
   69MOL    C3338249   1.733   2.214   7.054  0.1056 -0.5433  0.1888
   69MOL    C3438250   1.765   2.129   7.180  0.4012  0.0154  0.3094
   69MOL    O3538251   1.786   1.993   7.138  0.3305 -0.5106 -0.4568
   69MOL    C3638252   1.915   1.952   7.102 -0.2048  0.4469  0.2509
   69MOL    O3738253   2.020   2.017   7.119  0.7843 -0.0300 -0.0900
   69MOL    C3838254   1.919   1.810   7.051  0.2392  0.1795 -0.3871
   69MOL    C3938255   1.800   1.739   7.032 -0.4873  0.5666 -0.2481
   69MOL    C4038256   1.803   1.607   6.979 -0.5257  0.7463  0.5203
   69MOL    C4138257   1.927   1.556   6.937 -0.0352  0.2033  0.3789
   69MOL    C4238258   1.939   1.427   6.873 -0.6306 -0.0377  0.3710
   69MOL    O4338259   1.839   1.361   6.857 -0.1947  0.3390 -0.0164
   69MOL    C4438260   2.048   1.625   6.970 -0.1338 -0.8768 -0.1983
   69MOL    C4538261   2.042   1.753   7.027 -0.3217  0.2028  0.0156
   69MOL    H4638262   1.485   2.046   6.873 -1.0263  0.1626  0.3739
   69MOL    H4738263   1.580   1.967   7.018  2.8601 -0.3887  0.1412
   69MOL    H4838264   1.521   2.207   7.054 -0.4949 -0.4081 -0.4543
   69MOL    H4938265   1.595   2.248   6.894 -2.8756  2.0488  1.3637
   69MOL    H5038266   1.808   2.197   6.977 -0.0426 -1.5550  0.2617
   69MOL    H5138267   1.738   2.319   7.083 -1.7244  0.1441 -1.8893
   69MOL    H5238268   1.853   2.162   7.235  0.1468 -1.1257  1.4102
   69MOL    H5338269   1.682   2.134   7.251 -0.0407 -1.7492 -0.0513
   69MOL    H5438270   1.707   1.780   7.068 -1.0061  0.0619 -0.9819
   69MOL    H5538271   1.715   1.548   6.960  0.5810 -0.9552  0.5423
   69MOL    H5638272   2.141   1.573   6.950 -0.4766 -1.8241  0.6511
   69MOL    H5738273   2.135   1.806   7.041  1.2924 -1.7177 -2.8115
   69MOL    O5838274   2.056   1.388   6.827 -0.3959 -0.4065  0.3262
   69MOL    C5938275   2.074   1.265   6.756  0.5500 -0.4390 -0.2233
   69MOL    C6038276   2.204   1.259   6.680 -0.8087  0.7244  0.1880
   69MOL    C6138277   2.206   1.360   6.573 -0.6589 -0.5383  0.2559
   69MOL    C6238278   2.342   1.389   6.513  0.0227 -0.0394 -0.7161
   69MOL    O6338279   2.374   1.288   6.421 -0.0843  0.3470 -0.0373
   69MOL    C6438280   2.505   1.274   6.382  0.1772 -0.2280  0.0652
   69MOL    O6538281   2.592   1.348   6.419  1.1059  0.4324 -0.2636
   69MOL    C6638282   2.523   1.159   6.294 -0.5285  0.8012 -0.7163
   69MOL    C6738283   2.420   1.060   6.273 -0.2651 -0.3485 -1.0590
   69MOL    C6838284   2.446   0.947   6.194  0.0690 -0.3739 -0.0476
   69MOL    C6938285   2.567   0.909   6.139 -0.2866  0.7501  0.1090
   69MOL    C7038286   2.600   0.782   6.060 -0.7680  0.1448  0.3853
   69MOL    O7138287   2.703   0.761   5.999  0.5366 -0.0994 -0.6121
   69MOL    C7238288   2.674   1.005   6.164 -0.4426  0.5522 -0.2215
   69MOL    C7338289   2.649   1.128   6.242 -0.5360  0.3911 -0.0354
   69MOL    H7438290   2.067   1.184   6.828 -0.2658  0.8551  1.1875
   69MOL    H7538291   1.994   1.246   6.685 -1.6199  1.4738  1.6418
   69MOL    H7638292   2.213   1.160   6.634  1.3447  1.4496 -1.0077
   69MOL    H7738293   2.295   1.268   6.739 -1.1104  0.2315  0.7446
   69MOL    H7838294   2.131   1.347   6.495 -2.0345 -1.1898  1.6616
   69MOL    H7938295   2.187   1.458   6.618  2.1722  1.4213 -2.5716
   69MOL    H8038296   2.345   1.487   6.465  0.5323 -0.0361 -0.6840
   69MOL    H8138297   2.423   1.387   6.586  1.6349 -2.3599 -2.4801
   69MOL    H8238298   2.319   1.072   6.309 -0.5376  1.0338 -2.2387
   69MOL    H8338299   2.366   0.874   6.193 -0.3971  0.0761  1.7964
   69MOL    H8438300   2.776   0.986   6.133  0.0744  0.6902  1.3407
   69MOL    H8538301   2.733   1.194   6.261 -0.4477  0.4114 -0.4931
   69MOL    O8638302   2.491   0.700   6.056 -0.3619  0.0709 -0.2195
   69MOL    C8738303   2.491   0.591   5.965  0.6715  0.4177  0.0071
   69MOL    C8838304   2.352   0.520   5.988 -0.0891  0.2811  0.8926
   69MOL    C8938305   2.337   0.401   5.902  0.0267 -0.3063 -0.8696
   69MOL    C9038306   2.313   0.422   5.753 -0.0970  0.0685 -0.1385
   69MOL    O9138307   2.205   0.508   5.731  0.4427 -0.6158 -0.5284
   69MOL    C9238308   2.142   0.531   5.614  0.4405 -0.7345 -0.3145
   69MOL    O9338309   2.167   0.475   5.508 -0.2564 -0.3348  0.1126
   69MOL    C9438310   2.022   0.621   5.622 -0.0882  0.1526  0.1539
   69MOL    C9538311   2.001   0.704   5.728 -0.2562  0.1748 -0.0379
   69MOL    C9638312   1.885   0.781   5.734  0.2085 -0.2666 -0.1580
   69MOL    C9738313   1.788   0.764   5.634 -0.1551 -0.0543 -0.6004
   69MOL    C9838314   1.660   0.842   5.638 -0.0911  0.4929  0.6229
   69MOL    O9938315   1.621   0.914   5.725 -0.3090  0.3947 -0.2666
   69MOL   C10038316   1.810   0.684   5.521 -0.1083 -0.2445 -0.3620
   69MOL   C10138317   1.925   0.607   5.521  0.5317 -0.6665  0.0654
   69MOL   H10238318   2.505   0.631   5.865 -1.2170  0.7493 -0.1527
   69MOL   H10338319   2.582   0.535   5.984  0.5524 -0.4365 -1.8985
   69MOL   H10438320   2.273   0.591   5.963 -0.6969 -0.4356  0.7581
   69MOL   H10538321   2.349   0.486   6.092 -1.3044 -2.5178 -0.0138
   69MOL   H10638322   2.415   0.325   5.904 -0.0649 -0.3833  0.4283
   69MOL   H10738323   2.245   0.349   5.930 -0.6061  0.5150 -1.4005
   69MOL   H10838324   2.402   0.455   5.700 -0.9697  1.0867 -0.9809
   69MOL   H10938325   2.291   0.322   5.714  0.6843 -1.4681  3.1863
   69MOL   H11038326   2.074   0.727   5.804 -2.0294  1.8398  1.1874
   69MOL   H11138327   1.870   0.833   5.827 -0.9876  0.9172 -0.9936
   69MOL   H11238328   1.738   0.669   5.441  0.9444 -2.0702 -1.0062
   69MOL   H11338329   1.949   0.540   5.440  1.6590  1.9644 -1.8386
   69MOL   O11438330   1.600   0.837   5.515 -1.0629  0.4530 -0.3278
   69MOL   C11538331   1.470   0.887   5.488 -0.1485  0.0811 -0.2999
   69MOL   C11638332   1.455   0.883   5.338 -0.4990  0.1717  0.3281
   69MOL   C11738333   1.415   0.742   5.299  0.4030 -0.3778  0.2086
   69MOL   C11838334   1.442   0.713   5.148 -0.4340  0.0348  0.0549
   69MOL   O11938335   1.361   0.784   5.058  0.0583  0.3134 -0.0106
   69MOL   C12038336   1.248   0.716   5.008 -0.3589 -0.2520  0.1086
   69MOL   O12138337   1.214   0.601   5.034 -0.1229 -0.1224  0.2180
   69MOL   C12238338   1.180   0.799   4.907 -1.0888 -1.1033 -0.4423
   69MOL   C12338339   1.063   0.741   4.843 -0.4734  0.5503 -0.0579
   69MOL   C12438340   1.004   0.809   4.730  0.2808 -0.1546  0.1327
   69MOL   C12538341   1.049   0.938   4.690 -0.3243  0.6532 -0.5408
   69MOL   C12638342   0.979   1.009   4.579 -0.0181  0.1246 -0.1011
   69MOL   O12738343   0.880   0.963   4.518 -0.3889 -0.0852 -0.7157
   69MOL   C12838344   1.159   0.993   4.760  0.0526  0.1869  0.4375
   69MOL   C12938345   1.225   0.926   4.867  0.0147 -0.1953  0.4252
   69MOL   H13038346   1.395   0.823   5.536  0.3214  0.2652  0.6886
   69MOL   H13138347   1.449   0.989   5.520 -3.2905 -0.2053 -1.2697
   69MOL   H13238348   1.548   0.917   5.293  0.2716 -1.6782  0.4840
   69MOL   H13338349   1.385   0.955   5.294  0.9956  0.8421 -1.0091
   69MOL   H13438350   1.469   0.667   5.356  0.1847 -0.3995  0.3902
   69MOL   H13538351   1.308   0.735   5.320  0.2047  1.2425 -0.1735
   69MOL   H13638352   1.542   0.742   5.115 -0.9898 -0.4165 -2.0694
   69MOL   H13738353   1.444   0.606   5.128 -0.9163  0.2684 -1.2781
   69MOL   H13838354   1.026   0.644   4.873  1.2471  0.5651  2.3069
   69MOL   H13938355   0.919   0.770   4.677  0.2313  0.2105 -0.0574
   69MOL   H14038356   1.195   1.089   4.728 -0.0218  0.1464  0.2295
   69MOL   H14138357   1.304   0.978   4.919 -0.8026  1.7883 -0.2556
   69MOL   O14238358   1.041   1.119   4.543 -0.0358 -0.8193 -0.2354
   69MOL   C14338359   0.999   1.180   4.428  0.6921  0.1075  0.1812
   69MOL   C14438360   1.095   1.296   4.388  0.0671  0.2608 -0.2066
   69MOL   C14538361   1.072   1.347   4.240  0.9116 -0.3460 -0.8296
   69MOL   C14638362   1.158   1.458   4.186  0.6642  0.2973  0.1311
   69MOL   O14738363   1.292   1.411   4.187 -0.4090 -0.3711  0.1229
   69MOL   C14838364   1.370   1.431   4.080  0.2107 -0.0107 -0.0936
   69MOL   O14938365   1.330   1.470   3.970  0.3637 -0.0190  0.3774
   69MOL   C15038366   1.509   1.392   4.109 -0.1767 -1.3509  0.8029
   69MOL   C15138367   1.530   1.285   4.196 -0.0701 -0.4264  0.1149
   69MOL   C15238368   1.660   1.250   4.227  0.0966  0.0330  0.8020
   69MOL   C15338369   1.775   1.324   4.180  0.4109  0.3933 -0.1320
   69MOL   C15438370   1.914   1.298   4.237  0.0336  0.3399  0.3227
   69MOL   O15538371   2.015   1.343   4.189 -0.5660  0.0332 -0.5471
   69MOL   C15638372   1.748   1.433   4.090 -0.3807  0.7445  0.4397
   69MOL   C15738373   1.612   1.464   4.053 -0.0226 -0.1429 -0.1672
   69MOL   H15838374   0.989   1.106   4.349 -0.7311  0.2196  0.2547
   69MOL   H15938375   0.903   1.227   4.450  1.9851  2.1630  1.6057
   69MOL   H16038376   1.196   1.265   4.413  0.9105  0.8174 -2.7420
   69MOL   H16138377   1.068   1.380   4.453  1.2706  0.0906  0.5275
   69MOL   H16238378   1.060   1.252   4.188 -1.5920  0.0339 -1.0074
   69MOL   H16338379   0.975   1.396   4.237  2.0530  2.0773 -0.0409
   69MOL   H16438380   1.117   1.473   4.086 -0.2418  1.8899  0.7166
   69MOL   H16538381   1.143   1.551   4.241 -1.0827  2.0347 -3.1011
   69MOL   H16638382   1.449   1.229   4.240 -2.1652  2.9543  0.7332
   69MOL   H16738383   1.678   1.165   4.291  1.3078  0.0628  0.5114
   69MOL   H16838384   1.830   1.495   4.058  1.1179 -1.1575  0.5569
   69MOL   H16938385   1.594   1.540   3.979 -0.2277 -1.7380 -1.7803
   69MOL   O17038386   1.909   1.215   4.350 -0.4294  0.0821  0.2336
   69MOL   C17138387   2.016   1.215   4.434  0.6951 -1.0281 -0.1707
   69MOL   C17238388   1.991   1.172   4.573 -0.6072 -0.7607 -0.6214
   69MOL   C17338389   2.118   1.137   4.638 -0.0125 -0.4036 -1.0173
   69MOL   C17438390   2.101   1.155   4.791  0.6314  0.6483 -0.0023
   69MOL   O17538391   2.219   1.137   4.867 -0.2258 -0.2589  0.1698
   69MOL   C17638392   2.301   1.236   4.873  0.5407 -0.2487 -0.3138
   69MOL   O17738393   2.302   1.332   4.802 -0.4855 -0.2089 -0.1025
   69MOL   C17838394   2.412   1.207   4.970  0.3257  0.0117  0.1635
   69MOL   C17938395   2.425   1.084   5.034 -0.5071  0.5939 -0.5810
   69MOL   C18038396   2.534   1.049   5.112  0.1879 -0.1805  0.3249
   69MOL   C18138397   2.633   1.150   5.136 -0.0018  0.3018 -0.3193
   69MOL   C18238398   2.747   1.124   5.236  0.1362  0.3078  0.7402
   69MOL   O18338399   2.780   1.012   5.273  0.3929  0.0395 -0.2877
   69MOL   C18438400   2.623   1.277   5.069 -0.8939 -0.6523 -0.5457
   69MOL   C18538401   2.516   1.298   4.977 -0.7490  0.7131 -0.2522
   69MOL   H18638402   2.098   1.164   4.384 -1.0301 -1.6325 -2.4371
   69MOL   H18738403   2.048   1.318   4.451 -1.0122 -0.8846  2.5564
   69MOL   H18838404   1.916   1.093   4.583 -0.8408 -0.6127 -1.1970
   69MOL   H18938405   1.932   1.248   4.623  1.1206  0.4009 -0.2713
   69MOL   H19038406   2.136   1.029   4.641 -1.8408 -0.7123 -0.7776
   69MOL   H19138407   2.205   1.189   4.598 -0.3463 -0.3207 -1.6459
   69MOL   H19238408   2.048   1.248   4.814  2.4550  1.2643  1.8189
   69MOL   H19338409   2.024   1.086   4.826  0.2896 -0.0247 -2.0089
   69MOL   H19438410   2.351   1.005   5.036  1.6631 -1.5008  1.0444
   69MOL   H19538411   2.547   0.951   5.154  0.7836 -0.5585 -0.7219
   69MOL   H19638412   2.696   1.355   5.088 -0.6220 -0.9677 -0.2900
   69MOL   H19738413   2.522   1.392   4.924 -1.3424  1.5254  1.1006
   69MOL   O19838414   2.809   1.241   5.271  0.5911 -0.1202  0.4248
   69MOL   C19938415   2.923   1.240   5.345 -0.0099  0.4883  0.1275
   69MOL   C20038416   2.952   1.380   5.409 -0.2655  0.4412  0.0784
   69MOL   C20138417   3.065   1.368   5.513  0.1111  0.1654 -0.6720
   69MOL   C20238418   3.098   1.516   5.553 -0.3619 -0.1145  0.3054
   69MOL   O20338419   3.201   1.509   5.655  0.0549 -0.1998  0.4038
   69MOL   C20438420   3.185   1.599   5.750  0.5587 -0.1961 -0.1816
   69MOL   O20538421   3.130   1.705   5.730  0.2045 -0.5287 -0.3854
   69MOL   C20638422   3.254   1.573   5.876 -0.0276 -0.6464 -0.3015
   69MOL   C20738423   3.332   1.457   5.897 -0.5454  0.2033 -0.0470
   69MOL   C20838424   3.401   1.433   6.018 -0.3974 -0.1100 -0.5039
   69MOL   C20938425   3.396   1.528   6.122 -0.2776 -0.7832  0.3774
   69MOL   C21038426   3.474   1.509   6.250  0.9881 -0.6878 -0.3023
   69MOL   O21138427   3.470   1.591   6.340  0.7354 -0.3884 -0.5519
   69MOL   C21238428   3.323   1.646   6.102  0.2969  0.0430  0.5843
   69MOL   C21338429   3.252   1.667   5.983  0.0495 -0.0366  0.3939
   69MOL   H21438430   2.911   1.167   5.425 -0.5046 -0.9180 -1.2033
   69MOL   H21538431   3.005   1.216   5.278 -0.8033  0.4009 -0.8198
   69MOL   H21638432   2.865   1.424   5.456 -1.7943 -2.2574 -0.1167
   69MOL   H21738433   2.990   1.450   5.334 -1.1092  0.1017 -0.6731
   69MOL   H21838434   3.027   1.298   5.587 -0.3950 -0.4102 -1.4726
   69MOL   H21938435   3.151   1.325   5.462 -0.6928 -1.0808 -1.0060
   69MOL   H22038436   3.140   1.564   5.464 -2.4137  0.4923 -0.3700
   69MOL   H22138437   3.008   1.571   5.580  0.5992  0.5902  2.0936
   69MOL   H22238438   3.329   1.383   5.819 -0.4129 -1.6741  1.6869
   69MOL   H22338439   3.461   1.345   6.033  0.6425  0.7079  0.2481
   69MOL   H22438440   3.310   1.723   6.177  0.5543  0.1449  0.5260
   69MOL   H22538441   3.198   1.761   5.977 -0.7598 -0.4890  0.6418
   69MOL   O22638442   3.546   1.398   6.257  0.1766  0.4359 -0.4446
   69MOL   C22738443   3.628   1.374   6.369  0.4149  0.2884  0.4355
   69MOL   C22838444   3.583   1.248   6.451 -0.0569  0.5023  0.2411
   69MOL   C22938445   3.660   1.227   6.587 -0.5053  0.2653  0.0597
   69MOL   C23038446   3.812   1.219   6.567  0.4259 -0.1118  0.5347
   69MOL   O23138447   3.840   1.077   6.539 -0.5791 -0.3291  0.5161
   69MOL   C23238448   3.968   1.035   6.518 -1.0979 -0.4286 -0.4285
   69MOL   O23338449   4.069   1.107   6.523  0.6932  0.6230  0.7367
   69MOL   C23438450   3.972   0.886   6.499  0.2172 -0.0059  0.1301
   69MOL   C23538451   4.093   0.830   6.458  0.8071  0.3337 -0.7572
   69MOL   C23638452   4.099   0.690   6.427  0.0187  0.2149 -0.3701
   69MOL   C23738453   3.989   0.604   6.453  0.0730  0.5630  0.7494
   69MOL   C23838454   3.998   0.456   6.437  0.4127 -0.5019 -0.8120
   69MOL   O23938455   3.914   0.378   6.482 -0.3042 -0.0313  0.4452
   69MOL   C24038456   3.870   0.663   6.497 -0.1291  0.5053  0.6988
   69MOL   C24138457   3.859   0.805   6.519  0.1902  0.1149  0.7439
   69MOL   H24238458   3.729   1.342   6.343 -0.1330 -2.3379  1.3994
   69MOL   H24338459   3.639   1.462   6.433 -2.1608 -0.1903  1.6074
   69MOL   H24438460   3.611   1.170   6.380 -1.6239 -1.7686  2.0673
   69MOL   H24538461   3.476   1.247   6.468 -0.0021 -2.1288  0.7017
   69MOL   H24638462   3.642   1.313   6.651 -1.8666 -0.1343  0.2304
   69MOL   H24738463   3.633   1.133   6.635 -0.8880  0.2830 -0.1226
   69MOL   H24838464   3.836   1.286   6.485  1.0635  1.3885  1.9176
   69MOL   H24938465   3.855   1.240   6.665  3.4879 -0.9852 -0.5614
   69MOL   H25038466   4.168   0.904   6.433  0.8879 -0.3036 -2.5346
   69MOL   H25138467   4.197   0.665   6.388  1.1878  2.3512  1.0615
   69MOL   H25238468   3.787   0.594   6.502 -0.0486  0.5238  2.7531
   69MOL   H25338469   3.764   0.844   6.550  0.1830  0.4040  0.3737
   69MOL   O25438470   4.113   0.415   6.373  0.2039  0.0006  0.0709
   69MOL   C25538471   4.132   0.281   6.333  0.1474  0.5638 -0.4921
   69MOL   C25638472   4.272   0.288   6.253 -0.3514  0.5617 -0.1313
   69MOL   C25738473   4.277   0.367   6.121  0.9057  0.8746 -0.1060
   69MOL   C25838474   4.286   0.521   6.150 -0.4048  0.2604 -0.4736
   69MOL   O25938475   4.296   0.593   6.032 -0.0507 -0.3714  0.2189
   69MOL   C26038476   4.194   0.674   5.985 -0.5097  0.3555 -0.3387
   69MOL   O26138477   4.094   0.696   6.053  0.0003  0.0792  0.4260
   69MOL   C26238478   4.215   0.729   5.844  0.0588 -0.7579 -0.3669
   69MOL   C26338479   4.098   0.789   5.782  0.2028 -0.4077 -0.5204
   69MOL   C26438480   4.113   0.844   5.656  0.2484  0.5223  0.1144
   69MOL   C26538481   4.237   0.835   5.581  0.3692 -0.1237 -0.8618
   69MOL   C26638482   4.246   0.870   5.437 -0.0022  0.2564  0.6663
   69MOL   O26738483   4.332   0.828   5.360  0.2319  1.0296  0.2434
   69MOL   C26838484   4.350   0.773   5.641  0.6610  0.1540  0.1320
   69MOL   C26938485   4.341   0.722   5.773  0.4243 -0.4209  0.1020
   69MOL   H27038486   4.124   0.212   6.417  0.0590  0.2177 -0.7815
   69MOL   H27138487   4.045   0.253   6.275  0.0364  0.6039 -0.3415
   69MOL   H27238488   4.291   0.186   6.217 -2.2336 -0.0680  0.6130
   69MOL   H27338489   4.346   0.319   6.326 -0.3129 -1.2766  0.6272
   69MOL   H27438490   4.358   0.332   6.057 -0.3303 -0.5625 -0.9104
   69MOL   H27538491   4.191   0.340   6.060 -0.3837 -0.4242  2.2325
   69MOL   H27638492   4.203   0.551   6.214  0.1734 -1.4918  1.1527
   69MOL   H27738493   4.375   0.550   6.205 -1.3893  1.2973  0.6042
   69MOL   H27838494   4.003   0.794   5.833  0.5123  0.9038 -0.0465
   69MOL   H27938495   4.030   0.884   5.600  0.1762 -1.4822 -1.2693
   69MOL   H28038496   4.442   0.771   5.585  0.5480  1.1020 -0.1014
   69MOL   H28138497   4.425   0.665   5.811  0.1830 -1.0288 -0.2517
   69MOL   O28238498   4.142   0.947   5.396 -0.3565 -0.1746  0.0822
   69MOL   C28338499   4.147   1.023   5.272  0.3724  0.6168  0.4758
   69MOL   C28438500   4.014   1.089   5.259 -0.0115 -0.2509 -0.1033
   69MOL   C28538501   3.904   1.002   5.207  0.4837 -0.0764  0.7576
   69MOL   C28638502   3.925   0.964   5.058 -0.4253 -0.7101  0.7520
   69MOL   O28738503   3.809   0.898   5.013  0.1116 -0.3414 -0.4938
   69MOL   C28838504   3.800   0.879   4.882  0.1839  0.2080  0.3720
   69MOL   O28938505   3.879   0.910   4.799 -0.6866  0.0254 -0.3667
   69MOL   C29038506   3.674   0.809   4.843 -0.6239 -0.0475 -0.6283
   69MOL   C29138507   3.644   0.793   4.705  0.1604  0.3472  0.9288
   69MOL   C29238508   3.526   0.727   4.654  0.3146  0.3436 -0.0385
   69MOL   C29338509   3.432   0.680   4.754  0.6311  0.8672  0.1560
   69MOL   C29438510   3.310   0.612   4.702  0.0788 -0.4081  0.2016
   69MOL   O29538511   3.298   0.557   4.594 -0.4841  0.1592  0.2492
   69MOL   C29638512   3.470   0.683   4.889 -0.2913  0.0143 -0.3143
   69MOL   C29738513   3.581   0.752   4.935  0.1500  0.4498 -0.3800
   69MOL   H29838514   4.229   1.094   5.259  1.3387 -0.3421  1.1971
   69MOL   H29938515   4.165   0.954   5.189  1.8354 -0.8353  1.9466
   69MOL   H30038516   4.018   1.180   5.198  0.9178  1.0843  1.9062
   69MOL   H30138517   3.993   1.133   5.357  3.4023  0.3417  0.4060
   69MOL   H30238518   3.901   0.921   5.280 -0.5909  0.2893  1.1281
   69MOL   H30338519   3.807   1.049   5.222  0.1034 -1.0318  1.3112
   69MOL   H30438520   3.937   1.062   5.013 -1.6410 -1.1585 -0.5588
   69MOL   H30538521   4.012   0.899   5.046  0.6730  0.7745  0.6027
   69MOL   H30638522   3.710   0.828   4.627 -0.4606 -1.8696 -0.6587
   69MOL   H30738523   3.508   0.717   4.548 -2.0182 -3.6077  0.6208
   69MOL   H30838524   3.406   0.638   4.964  0.8826 -1.1308  0.0243
   69MOL   H30938525   3.597   0.764   5.041  0.3937  1.1148 -0.4849
   69MOL   O31038526   3.211   0.614   4.791 -0.1997 -0.3587  0.0323
   69MOL   C31138527   3.076   0.596   4.754 -0.3973 -0.1953 -0.5348
   69MOL   C31238528   3.011   0.489   4.839  0.4336 -0.2519 -0.6166
   69MOL   C31338529   3.085   0.352   4.844 -0.6573 -0.1714  0.1965
   69MOL   C31438530   3.074   0.265   4.718 -0.5294  0.2869 -0.2745
   69MOL   O31538531   2.947   0.203   4.686 -0.1979  0.0783  0.4303
   69MOL   C31638532   2.939   0.092   4.616  1.3569 -0.1201  0.1327
   69MOL   O31738533   3.036   0.056   4.551  0.2721  0.2217  0.4341
   69MOL   C31838534   2.802   0.021   4.619 -0.1684  0.2878 -0.1746
   69MOL   C31938535   2.706   0.037   4.722  0.2758  0.1489  0.2061
   69MOL   C32038536   2.579   8.065   4.720 -0.8782 -0.4486  0.0049
   69MOL   C32138537   2.552   7.972   4.617  0.8698 -0.1657  0.7580
   69MOL   C32238538   2.418   7.905   4.604 -0.7953  0.2182 -0.4230
   69MOL   O32338539   2.391   7.823   4.524 -0.2542  0.2256 -0.2279
   69MOL   C32438540   2.652   7.948   4.521  0.3289 -0.4466  0.3384
   69MOL   C32538541   2.772   8.020   4.524  0.4635 -0.1867 -0.1327
   69MOL   H32638542   3.023   0.689   4.777  0.0050 -0.0863 -0.0404
   69MOL   H32738543   3.063   0.585   4.646 -0.4237  0.1336 -0.5679
   69MOL   H32838544   2.908   0.466   4.811  0.5836 -0.5379 -0.9351
   69MOL   H32938545   3.023   0.535   4.937  2.4923  1.4215 -1.6077
   69MOL   H33038546   3.189   0.377   4.866 -0.6094  0.9408 -1.2001
   69MOL   H33138547   3.052   0.284   4.922 -1.9582 -1.6609 -1.6076
   69MOL   H33238548   3.097   0.335   4.637  1.2908 -1.1178 -0.9949
   69MOL   H33338549   3.159   0.198   4.715 -0.6191  0.1183  0.7327
   69MOL   H33438550   2.719   0.111   4.799 -1.8215 -1.1186  1.8213
   69MOL   H33538551   2.504   8.080   4.795  0.2680  0.3656  1.0115
   69MOL   H33638552   2.641   7.866   4.452 -1.8785 -1.2645  1.6153
   69MOL   H33738553   2.842   7.996   4.444 -0.3301 -2.2526 -0.2410
   69MOL   O33838554   2.330   7.962   4.690  0.2974 -0.1681 -0.1162
   69MOL   C33938555   2.205   7.897   4.711 -0.8407 -0.0335 -0.2220
   69MOL   C34038556   2.158   7.899   4.854 -0.7410 -0.2883 -0.4211
   69MOL   C34138557   2.023   7.841   4.865 -0.0366  0.0063 -0.0614
   69MOL   C34238558   1.960   7.858   5.005 -0.0089 -0.0868  0.1202
   69MOL   O34338559   1.835   7.924   4.990 -0.0582  0.3795  0.3447
   69MOL   C34438560   1.782   7.982   5.096  0.7096  0.1045  0.2217
   69MOL   O34538561   1.823   7.963   5.210  0.1212 -0.3402 -0.5125
   69MOL   C34638562   1.670   8.069   5.064  0.5545  0.4550 -0.1844
   69MOL   C34738563   1.581   0.001   5.174  0.0884 -0.0092  0.2304
   69MOL   C34838564   1.467   0.084   5.147  0.2149 -0.1831 -0.2847
   69MOL   C34938565   1.454   0.154   5.026 -0.1390 -0.0161 -0.0467
   69MOL   C35038566   1.338   0.239   4.997 -0.2734 -0.4873  0.2878
   69MOL   O35138567   1.264   0.285   5.081  0.7132  0.4550 -0.0255
   69MOL   C35238568   1.546   0.129   4.921  0.3139 -0.0133 -0.4518
   69MOL   C35338569   1.645   0.033   4.939  0.1637 -0.0186 -0.3808
   69MOL   H35438570   2.134   7.955   4.651 -0.0242 -1.1272 -2.2817
   69MOL   H35538571   2.212   7.794   4.676  0.5573  0.1989 -0.6143
   69MOL   H35638572   2.156   8.001   4.892 -0.5916 -0.3006 -0.3823
   69MOL   H35738573   2.237   7.844   4.904  0.3598  0.7991 -0.9354
   69MOL   H35838574   1.954   7.878   4.788  0.1323 -1.7802 -1.1171
   69MOL   H35938575   2.025   7.733   4.854 -1.4366 -0.2143  1.6900
   69MOL   H36038576   1.937   7.760   5.046 -1.6181 -0.7914 -2.3178
   69MOL   H36138577   2.028   7.907   5.075 -0.3396 -0.4202  0.6806
   69MOL   H36238578   1.594   8.063   5.275  0.2030  0.7786  0.5109
   69MOL   H36338579   1.393   0.107   5.223  0.0880  2.5987 -1.1972
   69MOL   H36438580   1.541   0.181   4.827 -0.5933 -1.0755 -1.0119
   69MOL   H36538581   1.717   0.017   4.860  0.5626  1.6357 -0.3783
   69MOL   O36638582   1.337   0.271   4.867 -0.4760  0.4152  0.1969
   69MOL   C36738583   1.230   0.352   4.814 -0.0453 -1.0230 -0.5078
   69MOL   C36838584   1.311   0.456   4.731  0.6945  0.2732 -0.5674
   69MOL   C36938585   1.222   0.518   4.623 -0.1991 -0.3407  0.2688
   69MOL   C37038586   1.313   0.606   4.528  0.3588  0.2062  0.3294
   69MOL   O37138587   1.242   0.681   4.430  0.0417 -0.1174 -0.3593
   69MOL   C37238588   1.283   0.796   4.383  0.5886  0.3607 -1.3057
   69MOL   O37338589   1.391   0.847   4.411 -0.7371 -0.3563 -0.2742
   69MOL   C37438590   1.203   0.860   4.275  0.1637  0.2842  0.5052
   69MOL   C37538591   1.268   0.971   4.207  0.1682 -0.2274 -0.3511
   69MOL   C37638592   1.202   1.033   4.101  0.1560 -0.3452  0.6168
   69MOL   C37738593   1.077   0.983   4.057 -0.6404 -0.8081 -0.6025
   69MOL   C37838594   1.014   1.046   3.937 -0.0493  0.5138 -0.5859
   69MOL   O37938595   1.046   1.157   3.898 -0.2911  0.4886 -0.0462
   69MOL   C38038596   1.016   0.868   4.114  0.0221  0.0137  0.5334
   69MOL   C38138597   1.082   0.812   4.223 -0.5145 -0.2169 -0.8045
   69MOL   H38238598   1.163   0.303   4.743 -0.5658  1.0554 -1.4875
   69MOL   H38338599   1.158   0.383   4.890 -0.5143 -0.1502 -1.3090
   69MOL   H38438600   1.399   0.407   4.689  0.4498 -0.0167 -0.7455
   69MOL   H38538601   1.336   0.535   4.802 -0.1702 -1.0851  1.2907
   69MOL   H38638602   1.188   0.443   4.551 -0.2726  0.3994 -0.4797
   69MOL   H38738603   1.132   0.569   4.659  0.3754  1.2372 -0.4882
   69MOL   H38838604   1.355   0.679   4.597  3.1100 -1.3818  0.4282
   69MOL   H38938605   1.387   0.542   4.478 -1.7027 -3.4622  1.7415
   69MOL   H39038606   1.368   1.006   4.226  0.1120 -1.3446  2.2950
   69MOL   H39138607   1.246   1.120   4.053 -0.5622 -0.2636  0.1093
   69MOL   H39238608   0.918   0.833   4.088  0.6895 -2.1437  0.7867
   69MOL   H39338609   1.039   0.736   4.286  0.0556 -0.3007 -0.5108
   69MOL   O39438610   0.923   0.969   3.882 -0.3733 -0.1397 -0.3795
   69MOL   C39538611   0.842   1.012   3.777  0.5288 -0.3948  0.6133
   69MOL   C39638612   0.723   0.915   3.772 -0.9211 -0.5312  0.0657
   69MOL   C39738613   0.609   0.966   3.690 -0.9380 -0.6552  0.5039
   69MOL   C39838614   0.501   0.859   3.644 -0.3402  0.3025  0.4796
   69MOL   O39938615   0.396   0.840   3.747 -0.0169  0.3254 -0.2706
   69MOL   C40038616   0.270   0.871   3.733 -0.3017 -0.6604 -0.2967
   69MOL   O40138617   0.211   0.889   3.628 -0.4879 -0.5468 -0.0501
   69MOL   C40238618   0.198   0.863   3.869  0.3122  0.1027  0.2114
   69MOL   C40338619   0.262   0.828   3.991  0.1768  0.1654 -0.0292
   69MOL   C40438620   0.181   0.830   4.108 -0.4264 -1.1121 -0.9039
   69MOL   C40538621   0.040   0.848   4.113  0.1702  0.1583 -0.1178
   69MOL   C40638622   8.054   0.837   4.234  0.0739 -0.4444 -0.1644
   69MOL   O40738623   7.937   0.885   4.241  1.0599  0.5015  0.3778
   69MOL   C40838624   8.083   0.881   3.989 -0.1038 -0.6944 -0.6165
   69MOL   C40938625   0.058   0.889   3.873  0.1178 -0.5277  0.5128
   69MOL   H41038626   0.823   1.117   3.798 -0.8371 -0.8888  1.8697
   69MOL   H41138627   0.896   1.017   3.682 -0.7810 -0.4317 -0.1485
   69MOL   H41238628   0.693   0.897   3.876 -0.3815 -1.5197  0.0566
   69MOL   H41338629   0.763   0.824   3.728 -1.9925 -0.5173 -0.9456
   69MOL   H41438630   0.573   1.057   3.739 -0.4928 -0.8186  1.1395
   69MOL   H41538631   0.668   0.999   3.605 -0.4378 -2.8199 -0.0284
   69MOL   H41638632   0.468   0.885   3.544  0.6553 -2.1683 -0.5354
   69MOL   H41738633   0.561   0.768   3.642 -0.1931  0.3932  0.7489
   69MOL   H41838634   0.367   0.807   3.995  0.4860  1.0059 -2.7090
   69MOL   H41938635   0.232   0.816   4.202  0.0168 -0.0119 -0.9714
   69MOL   H42038636   7.976   0.896   3.980 -0.1122  0.1493  0.7670
   69MOL   H42138637   0.005   0.910   3.781  0.3058  0.5125  0.6432
   69MOL   O42238638   0.013   0.772   4.333 -0.2158 -0.1588  0.5486
   69MOL   C42338639   8.049   0.766   4.460 -0.6708  0.2984  0.4481
   69MOL   C42438640   8.087   0.890   4.536 -0.5372 -0.8429  0.1758
   69MOL   C42538641   0.141   0.918   4.551  0.0725  0.2961  0.4468
   69MOL   C42638642   0.169   1.042   4.642 -0.2913 -0.1441 -0.3393
   69MOL   O42738643   0.140   1.016   4.779 -0.0845 -0.3771  0.9085
   69MOL   C42838644   0.192   1.094   4.880  0.3584  0.5634 -0.8301
   69MOL   O42938645   0.286   1.168   4.861  0.2005 -0.4269 -0.2424
   69MOL   C43038646   0.133   1.071   5.013  0.5571  0.2975  0.2814
   69MOL   C43138647   0.202   1.118   5.126 -0.2497  0.2328  0.3573
   69MOL   C43238648   0.160   1.082   5.255  0.3171  0.0757  0.1554
   69MOL   C43338649   0.044   1.004   5.280 -0.2550 -0.3333  0.3187
   69MOL   C43438650   8.092   0.988   5.424 -0.5559  0.2271  0.3831
   69MOL   O43538651   0.054   1.039   5.524 -0.8122  0.1751 -0.1281
   69MOL   C43638652   8.076   0.953   5.164 -0.0933  0.1102 -0.3524
   69MOL   C43738653   0.021   0.987   5.032 -0.3007 -0.4202 -0.4797
   69MOL   H43838654   7.943   0.750   4.442 -1.0333  0.8593  1.9486
   69MOL   H43938655   8.091   0.679   4.511  0.8275  1.1482  0.6946
   69MOL   H44038656   8.052   0.877   4.638  0.4489 -1.5951  0.4212
   69MOL   H44138657   8.035   0.970   4.484  1.6162 -0.4682 -1.4620
   69MOL   H44238658   0.190   0.831   4.594  0.7863  0.1193 -0.6864
   69MOL   H44338659   0.185   0.943   4.454 -1.9700  1.9029 -0.1194
   69MOL   H44438660   0.277   1.055   4.633 -0.1885 -0.2887  0.5557
   69MOL   H44538661   0.110   1.126   4.607 -0.3944 -0.1679 -0.2253
   69MOL   H44638662   0.285   1.185   5.110  1.1237 -1.8127 -1.3212
   69MOL   H44738663   0.214   1.124   5.339 -0.0731 -0.3466  0.6209
   69MOL   H44838664   7.986   0.894   5.179 -1.5236  2.3691  0.2263
   69MOL   H44938665   8.066   0.952   4.945  1.1424 -0.0193 -1.5596
   69MOL   O45038666   7.977   0.925   5.428 -0.2409  0.0314  0.0208
   69MOL   C45138667   7.908   0.913   5.551 -0.6254  0.7367 -0.1171
   69MOL   C45238668   7.787   0.826   5.516  0.3450  0.3900  0.0470
   69MOL   C45338669   7.817   0.676   5.480 -0.0555 -0.0948 -0.1775
   69MOL   C45438670   7.708   0.595   5.409  0.6213  0.2394  0.0022
   69MOL   O45538671   7.680   0.675   5.296 -0.0259  0.9086 -0.1304
   69MOL   C45638672   7.663   0.622   5.169 -0.6229 -0.2648  0.4404
   69MOL   O45738673   7.627   0.508   5.147 -0.3347  0.7878 -0.1947
   69MOL   C45838674   7.682   0.719   5.063  0.3234 -0.5339 -0.0132
   69MOL   C45938675   7.694   0.858   5.083 -0.1573 -0.7935 -0.7153
   69MOL   C46038676   7.708   0.947   4.971 -0.7291  0.1666  0.0861
   69MOL   C46138677   7.727   0.895   4.837 -0.2946  0.3147  0.5315
   69MOL   C46238678   7.733   0.987   4.716 -0.1516  0.1069 -0.0944
   69MOL   O46338679   7.794   1.092   4.716  0.3703  0.5654  0.0739
   69MOL   C46438680   7.724   0.753   4.823 -0.1015  0.1175 -0.2015
   69MOL   C46538681   7.695   0.669   4.934  0.1736 -0.2416 -0.1635
   69MOL   H46638682   7.977   0.871   5.624 -2.2113 -0.2503  0.8473
   69MOL   H46738683   7.887   1.013   5.590  3.8000  1.3266  1.0832
   69MOL   H46838684   7.731   0.869   5.434  0.9450  0.7723 -0.1655
   69MOL   H46938685   7.713   0.834   5.596  0.1462 -1.6714  0.1051
   69MOL   H47038686   7.898   0.675   5.408  0.5077  1.3456  0.4072
   69MOL   H47138687   7.849   0.633   5.575 -1.0391  1.5035  0.9175
   69MOL   H47238688   7.771   0.510   5.385  0.7012  1.0450 -2.7824
   69MOL   H47338689   7.620   0.572   5.469  0.8610  1.3068  0.7803
   69MOL   H47438690   7.700   0.900   5.182  1.1352 -0.8968 -0.7533
   69MOL   H47538691   7.730   1.052   4.984  0.8044 -0.0627 -0.5564
   69MOL   H47638692   7.709   0.706   4.728 -0.7689 -0.6551  0.2847
   69MOL   H47738693   7.673   0.566   4.910 -1.2118 -0.4168  1.7675
   69MOL   O47838694   7.665   0.941   4.613 -0.6525  1.4028 -0.1920
   69MOL   C47938695   7.649   1.033   4.502  0.2407  0.8725 -0.9286
   69MOL   C48038696   7.541   0.972   4.411 -0.4637 -0.1775 -0.1249
   69MOL   C48138697   7.393   1.016   4.443  0.7300  0.5258 -0.1365
   69MOL   C48238698   7.363   0.992   4.587  0.1561 -0.7879 -0.1364
   69MOL   O48338699   7.395   1.115   4.655  0.1591 -0.4077  0.3397
   69MOL   C48438700   7.424   1.118   4.780  0.3426 -0.6107  0.1790
   69MOL   O48538701   7.434   1.019   4.854 -0.1894  0.7326 -0.8079
   69MOL   C48638702   7.453   1.263   4.828 -0.1990 -0.3786 -0.5727
   69MOL   C48738703   7.513   1.277   4.954 -0.4638 -0.0578  0.3703
   69MOL   C48838704   7.528   1.409   5.000  0.1100 -0.7170  0.1135
   69MOL   C48938705   7.483   1.523   4.918  0.7465 -0.3400 -0.7347
   69MOL   C49038706   7.491   1.653   4.969  0.1548  0.1932 -0.6288
   69MOL   O49138707   7.496   1.676   5.091 -0.1338 -0.2144 -0.3910
   69MOL   C49238708   7.416   1.501   4.801 -0.6809 -0.2201  0.5758
   69MOL   C49338709   7.395   1.372   4.755  0.3764 -0.0435 -0.4292
   69MOL   H49438710   7.617   1.125   4.551  0.4106  0.2835  0.3061
   69MOL   H49538711   7.745   1.057   4.457  0.7773 -1.3785 -1.0278
   69MOL   H49638712   7.539   0.864   4.392 -0.3870 -0.2037  0.0156
   69MOL   H49738713   7.562   1.018   4.315  1.0392 -0.4135  0.0850
   69MOL   H49838714   7.384   1.121   4.414  0.0024  0.4282 -0.2849
   69MOL   H49938715   7.339   0.958   4.368  1.3987 -0.2418 -0.0307
   69MOL   H50038716   7.260   0.963   4.607 -0.6316  0.8747 -1.6222
   69MOL   H50138717   7.419   0.906   4.624 -1.0116 -1.1533  0.8172
   69MOL   H50238718   7.542   1.196   5.020  3.0182  1.0534  0.3162
   69MOL   H50338719   7.570   1.437   5.095 -1.2440  2.2138 -0.0939
   69MOL   H50438720   7.366   1.581   4.748 -2.6926 -1.6818  0.1857
   69MOL   H50538721   7.347   1.351   4.660  0.7975  1.9480 -1.1089
   69MOL   O50638722   7.493   1.748   4.870 -0.2501 -0.6314 -1.1099
   69MOL   C50738723   7.511   1.876   4.907 -0.0311 -0.7861 -0.2571
   69MOL   C50838724   7.385   1.953   4.949  0.2796 -1.1573 -0.3206
   69MOL   C50938725   7.403   2.099   4.998  0.2431  0.1343 -0.5483
   69MOL   C51038726   7.527   2.140   5.082  0.3343 -0.1835 -0.4281
   69MOL   O51138727   7.640   2.149   4.999  0.2086 -0.0622  0.0742
   69MOL   C51238728   7.758   2.134   5.053  0.0708  0.5284 -0.6874
   69MOL   O51338729   7.775   2.118   5.173  0.5186 -0.3020 -0.3143
   69MOL   C51438730   7.864   2.136   4.955 -0.8673  0.0458 -0.2810
   69MOL   C51538731   7.847   2.123   4.816  0.0382  0.2053 -0.1516
   69MOL   C51638732   7.958   2.120   4.732 -0.4131 -0.1641  0.2760
   69MOL   C51738733   8.089   2.114   4.780 -0.8851 -0.0130 -0.2194
   69MOL   C51838734   0.105   2.105   4.683  0.2949  0.1826 -0.7519
   69MOL   O51938735   0.091   2.115   4.560 -0.9278  0.2106 -0.4089
   69MOL   C52038736   0.001   2.135   4.919 -0.7956 -0.1909 -0.5791
   69MOL   C52138737   7.993   2.149   5.004  0.1091  0.5493 -0.5227
   69MOL   H52238738   7.593   1.894   4.977  0.0678  1.2061 -0.8414
   69MOL   H52338739   7.546   1.928   4.818  3.0581 -0.7666  0.9310
   69MOL   H52438740   7.348   1.883   5.024  0.1173  0.2666  0.9672
   69MOL   H52538741   7.310   1.953   4.869  1.7409  0.0714 -1.7132
   69MOL   H52638742   7.400   2.157   4.905  0.6789 -0.8473 -1.1810
   69MOL   H52738743   7.316   2.139   5.050 -1.1354 -0.7281 -2.1452
   69MOL   H52838744   7.485   2.220   5.142 -0.9681 -0.8717 -0.4029
   69MOL   H52938745   7.547   2.061   5.154  0.2763 -1.3420 -1.6568
   69MOL   H53038746   7.755   2.109   4.761  0.3873 -0.1954 -0.6325
   69MOL   H53138747   7.942   2.103   4.627  0.3146 -2.2245  0.4612
   69MOL   H53238748   0.100   2.157   4.956  0.0098  0.9512 -3.2309
   69MOL   H53338749   8.022   2.148   5.108 -2.4502 -0.7154  0.2164
   69MOL   O53438750   0.211   2.070   4.743  0.0735  0.2579 -0.0508
   69MOL   C53538751   0.331   2.046   4.680 -1.5141  0.1472  0.1784
   69MOL   C53638752   0.427   2.167   4.710 -1.0562 -0.8140 -0.3526
   69MOL   C53738753   0.378   2.306   4.663  0.0904 -0.3849  0.7965
   69MOL   C53838754   0.367   2.304   4.511  0.1874  0.1352 -0.0098
   69MOL   O53938755   0.500   2.292   4.461 -0.3267 -0.4160 -0.4713
   69MOL   C54038756   0.516   2.247   4.338  0.1237  0.7091 -0.0746
   69MOL   O54138757   0.428   2.252   4.249  0.5009 -0.5229 -0.1631
   69MOL   C54238758   0.650   2.186   4.316  0.0975 -0.0565  0.2454
   69MOL   C54338759   0.687   2.127   4.190 -0.5013 -0.8188  0.2385
   69MOL   C54438760   0.814   2.071   4.172 -0.3103  0.4046 -0.0160
   69MOL   C54538761   0.900   2.063   4.280  0.1276  0.4602 -0.1760
   69MOL   C54638762   1.033   1.994   4.274  0.0347  0.2153  0.1573
   69MOL   O54738763   1.123   2.000   4.362  0.5434  0.4037 -0.0372
   69MOL   C54838764   0.861   2.109   4.409 -0.1209  0.2030  0.6801
   69MOL   C54938765   0.737   2.172   4.425  0.1746  0.1596 -0.3965
   69MOL   H55038766   0.373   1.958   4.727  1.6008  1.2846 -0.3715
   69MOL   H55138767   0.328   2.012   4.577  2.5816 -2.0312  0.6809
   69MOL   H55238768   0.533   2.159   4.687 -0.2258  2.2575  2.1691
   69MOL   H55338769   0.425   2.175   4.818  3.1823  0.7919 -0.3106
   69MOL   H55438770   0.283   2.342   4.702 -0.3372 -0.8711  0.2258
   69MOL   H55538771   0.452   2.381   4.690 -1.2088  0.8498  0.9743
   69MOL   H55638772   0.296   2.226   4.484  1.5872 -0.9109 -0.7494
   69MOL   H55738773   0.313   2.391   4.475  1.3710  1.3762  1.1368
   69MOL   H55838774   0.624   2.128   4.102 -0.5493 -1.3299  0.2667
   69MOL   H55938775   0.834   2.028   4.074 -1.2500 -2.7095  1.1108
   69MOL   H56038776   0.922   2.084   4.494  0.5876  0.1108  0.1511
   69MOL   H56138777   0.717   2.211   4.524 -0.2446  0.2381 -0.5091
   69MOL   H56238778   1.048   1.939   4.182  0.2944 -1.0787  0.9587
   70MOL     O138779   2.013   2.972   2.442 -0.3282 -0.1191 -0.3470
   70MOL     C238780   2.127   3.047   2.479  0.0270  0.3429 -0.0338
   70MOL     C338781   2.251   3.031   2.388  0.7021 -0.0884  0.1180
   70MOL     C438782   2.217   3.053   2.236  0.2804 -0.4659  0.0939
   70MOL     C538783   2.306   2.973   2.144 -0.4571  0.6266 -0.4674
   70MOL     O638784   2.445   2.995   2.167  0.8098  0.2756 -0.0754
   70MOL     C738785   2.508   3.106   2.121 -0.1948 -0.4879  0.2371
   70MOL     O838786   2.456   3.187   2.048  0.6174 -0.5716  0.3097
   70MOL     C938787   2.642   3.117   2.170 -0.7087 -0.0234 -0.1008
   70MOL    C1038788   2.679   3.037   2.279 -0.0140  0.3024 -0.3953
   70MOL    C1138789   2.810   3.048   2.321 -0.1862 -0.4489 -0.8114
   70MOL    C1238790   2.903   3.138   2.265  0.1833 -0.3067  0.0797
   70MOL    C1338791   3.049   3.137   2.308 -0.9665 -0.1061 -0.7391
   70MOL    O1438792   3.134   3.202   2.253 -0.1980  0.3840 -0.7159
   70MOL    C1538793   2.866   3.199   2.145  0.7197  0.4110  0.0282
   70MOL    C1638794   2.734   3.185   2.097  0.0233 -1.0723  0.1680
   70MOL    H1738795   2.091   3.150   2.482  0.5857  0.5295  0.6905
   70MOL    H1838796   2.141   3.014   2.582 -0.6901  0.9116  0.2482
   70MOL    H1938797   2.302   2.935   2.388 -2.1219 -1.6298 -0.1517
   70MOL    H2038798   2.336   3.093   2.417  1.3485 -0.1293 -1.5902
   70MOL    H2138799   2.115   3.021   2.214 -1.0484  0.1748  4.8042
   70MOL    H2238800   2.219   3.159   2.213  1.5289 -0.3437  0.7172
   70MOL    H2338801   2.285   2.866   2.150  3.1685 -0.0298  2.1698
   70MOL    H2438802   2.283   2.990   2.038  0.5489  0.3037 -0.7456
   70MOL    H2538803   2.610   2.975   2.334  1.6666 -1.6101 -0.3779
   70MOL    H2638804   2.843   2.990   2.406  0.9067  1.2269 -0.0609
   70MOL    H2738805   2.931   3.267   2.092  0.2974  0.7011 -0.1215
   70MOL    H2838806   2.710   3.238   2.007  1.8913  0.5909  0.6084
   70MOL    H2938807   2.032   2.880   2.447  0.9247  0.0445 -1.7815
   70MOL    O3038808   3.072   3.049   2.400 -0.5653 -0.0908  0.2724
   70MOL    C3138809   3.205   3.030   2.447 -0.1614  0.1958  0.3391
   70MOL    C3238810   3.241   3.103   2.581 -0.2589 -1.0303 -0.1498
   70MOL    C3338811   3.288   3.247   2.549  0.5623 -0.1629  1.1005
   70MOL    C3438812   3.325   3.341   2.673  0.2435  0.3238 -0.5801
   70MOL    O3538813   3.214   3.337   2.764 -0.4420  0.0180 -0.0410
   70MOL    C3638814   3.211   3.415   2.876 -0.4400 -0.4509  0.1949
   70MOL    O3738815   3.312   3.478   2.919 -0.2668  0.3686  0.0460
   70MOL    C3838816   3.086   3.393   2.963 -0.2387  0.2589 -0.6191
   70MOL    C3938817   3.068   3.464   3.081  0.2731 -0.0508 -0.5965
   70MOL    C4038818   2.965   3.433   3.171  0.0690  0.4786  0.0796
   70MOL    C4138819   2.868   3.333   3.139  0.1968  1.0481  0.7371
   70MOL    C4238820   2.756   3.302   3.230  0.0237 -0.0133 -0.6583
   70MOL    O4338821   2.672   3.213   3.211  0.1239 -0.5117 -0.2263
   70MOL    C4438822   2.883   3.268   3.018  0.1863 -0.0882  0.3253
   70MOL    C4538823   2.988   3.299   2.929  0.4282 -0.1797 -0.5657
   70MOL    H4638824   3.213   2.922   2.455 -0.2776  0.2392  1.1542
   70MOL    H4738825   3.285   3.040   2.373  2.6812 -1.6303  3.0359
   70MOL    H4838826   3.306   3.035   2.637 -0.3503 -1.3965 -0.4865
   70MOL    H4938827   3.150   3.101   2.640  0.1537 -2.1637  0.4640
   70MOL    H5038828   3.373   3.233   2.482 -1.5822 -1.5801 -1.4282
   70MOL    H5138829   3.211   3.295   2.490 -0.1198 -2.0780  0.3716
   70MOL    H5238830   3.408   3.290   2.723  0.6370  2.4218  0.9918
   70MOL    H5338831   3.355   3.441   2.641  1.3904  0.6018  1.2922
   70MOL    H5438832   3.151   3.530   3.103 -1.4728  1.6576  0.9862
   70MOL    H5538833   2.958   3.492   3.261  2.1365  0.3298  0.3620
   70MOL    H5638834   2.808   3.199   2.980  1.2723 -1.2932  0.3172
   70MOL    H5738835   2.995   3.253   2.832  2.6576 -0.9565 -0.0485
   70MOL    O5838836   2.759   3.381   3.344  0.5684 -0.0505  0.1254
   70MOL    C5938837   2.672   3.344   3.451  0.2548 -0.3675  0.7683
   70MOL    C6038838   2.728   3.368   3.595  0.5637 -0.0818  0.4527
   70MOL    C6138839   2.786   3.501   3.617 -0.4218  0.3846  0.1848
   70MOL    C6238840   2.685   3.616   3.591  0.2320  0.3275 -0.2936
   70MOL    O6338841   2.595   3.634   3.695  0.3817 -0.3885 -0.2709
   70MOL    C6438842   2.478   3.698   3.671 -0.0684  0.2419 -0.1420
   70MOL    O6538843   2.447   3.733   3.561 -0.0037  0.1893  0.3466
   70MOL    C6638844   2.401   3.726   3.794  0.3092  0.0183 -1.0626
   70MOL    C6738845   2.271   3.777   3.785  0.5692  0.0150 -0.2108
   70MOL    C6838846   2.195   3.803   3.901  0.6038  0.2537  0.5408
   70MOL    C6938847   2.246   3.769   4.031 -0.3130  0.7244 -0.2053
   70MOL    C7038848   2.168   3.778   4.155 -0.4205  0.0783 -0.5614
   70MOL    O7138849   2.215   3.742   4.265 -0.8136  0.4210  0.2429
   70MOL    C7238850   2.377   3.722   4.037  0.1494 -0.2293  0.4411
   70MOL    C7338851   2.456   3.701   3.919  0.0994  0.5971  0.8348
   70MOL    H7438852   2.586   3.409   3.436  2.2697  2.2798  0.4200
   70MOL    H7538853   2.643   3.239   3.445  1.1735 -0.6261  0.7927
   70MOL    H7638854   2.809   3.295   3.607 -0.4166 -1.9081 -3.3104
   70MOL    H7738855   2.642   3.351   3.661 -0.2783  0.0656 -0.6030
   70MOL    H7838856   2.826   3.502   3.719  1.1996  2.1549 -0.4290
   70MOL    H7938857   2.868   3.505   3.545 -0.6061  0.4779 -0.0168
   70MOL    H8038858   2.736   3.712   3.574 -2.3727  1.5352 -1.4535
   70MOL    H8138859   2.639   3.590   3.496  1.3519  0.9796 -1.0345
   70MOL    H8238860   2.227   3.787   3.687  0.9701  1.4174 -0.2570
   70MOL    H8338861   2.099   3.852   3.895  0.9797  0.6871 -2.4863
   70MOL    H8438862   2.426   3.691   4.128  1.5799  0.6710 -0.0221
   70MOL    H8538863   2.554   3.656   3.927  1.0671  2.1342 -1.5786
   70MOL    O8638864   2.041   3.825   4.139  0.2230 -0.5480 -0.0495
   70MOL    C8738865   1.966   3.856   4.256  0.1301 -0.5261 -0.5535
   70MOL    C8838866   1.965   4.009   4.279  0.1683 -0.0937 -0.5487
   70MOL    C8938867   2.080   4.052   4.366 -0.1401 -0.3552  1.5832
   70MOL    C9038868   2.093   4.203   4.372  0.9289 -0.1675 -0.1641
   70MOL    O9138869   2.165   4.235   4.490  0.5443  0.1674  0.0391
   70MOL    C9238870   2.303   4.231   4.493  0.6539 -0.0974 -0.5657
   70MOL    O9338871   2.369   4.168   4.408  0.2972 -0.2696  0.1614
   70MOL    C9438872   2.361   4.282   4.620 -0.3810  0.4487  0.1230
   70MOL    C9538873   2.498   4.306   4.632 -0.0518 -0.1056  0.1735
   70MOL    C9638874   2.557   4.372   4.737  0.7333 -0.3096 -0.5581
   70MOL    C9738875   2.477   4.413   4.848 -0.3597 -0.0661  0.0922
   70MOL    C9838876   2.533   4.499   4.954 -0.1859  0.6775  0.3744
   70MOL    O9938877   2.472   4.544   5.046  0.0865  0.1818 -0.4788
   70MOL   C10038878   2.334   4.392   4.841  0.5753 -0.1008 -0.0002
   70MOL   C10138879   2.280   4.329   4.729  0.1958 -0.5205  0.1063
   70MOL   H10238880   1.862   3.828   4.237  0.0661 -0.9306  0.3516
   70MOL   H10338881   2.002   3.788   4.334  0.3839  1.0353  0.7207
   70MOL   H10438882   1.866   4.040   4.313 -0.1163 -0.2578 -1.2201
   70MOL   H10538883   1.971   4.053   4.179  0.2651 -0.0396 -0.5197
   70MOL   H10638884   2.074   4.003   4.463 -1.6970  0.1543  1.7713
   70MOL   H10738885   2.166   4.009   4.317 -1.8248  0.4555 -2.3073
   70MOL   H10838886   2.138   4.255   4.287  3.0752  0.7171  1.4663
   70MOL   H10938887   1.989   4.231   4.386  0.2296 -1.1459 -3.0373
   70MOL   H11038888   2.562   4.289   4.547 -2.6128 -0.7404 -1.7129
   70MOL   H11138889   2.660   4.403   4.728  0.5379  0.0189 -1.7072
   70MOL   H11238890   2.269   4.415   4.924  1.2052  1.0186  0.1930
   70MOL   H11338891   2.173   4.313   4.732  0.2232 -1.2514 -1.8635
   70MOL   O11438892   2.666   4.507   4.943 -1.1627 -0.5632  0.2294
   70MOL   C11538893   2.742   4.602   5.023  0.0885 -0.0454 -0.3225
   70MOL   C11638894   2.793   4.723   4.937  0.1448 -0.4857  0.2845
   70MOL   C11738895   2.697   4.837   4.908  0.0037 -0.2920 -1.3197
   70MOL   C11838896   2.587   4.817   4.800  0.4706  0.0529  0.7533
   70MOL   O11938897   2.523   4.939   4.766 -0.7181  0.4839 -0.2672
   70MOL   C12038898   2.584   5.020   4.679 -0.3106  0.2723 -0.2718
   70MOL   O12138899   2.682   4.989   4.616 -0.1963  0.3169 -0.1522
   70MOL   C12238900   2.507   5.150   4.650  0.1462 -0.2992  0.2600
   70MOL   C12338901   2.570   5.252   4.585 -1.0031  0.3342 -0.4942
   70MOL   C12438902   2.509   5.381   4.560 -0.1399  0.1216 -0.8743
   70MOL   C12538903   2.382   5.412   4.612 -0.1143 -0.4951 -0.0664
   70MOL   C12638904   2.330   5.555   4.601 -0.4746  0.0656 -0.1198
   70MOL   O12738905   2.382   5.645   4.533 -0.2098  0.1324  0.3244
   70MOL   C12838906   2.319   5.301   4.674 -0.3514 -0.1011  0.5567
   70MOL   C12938907   2.376   5.173   4.692  0.7354  0.3466 -0.4635
   70MOL   H13038908   2.681   4.647   5.102  0.1083 -0.2658 -0.1819
   70MOL   H13138909   2.833   4.567   5.071 -0.2577 -1.3464 -0.5911
   70MOL   H13238910   2.849   4.689   4.849  0.1608 -0.3061  0.2262
   70MOL   H13338911   2.870   4.773   4.995  0.2892 -0.6333  0.2218
   70MOL   H13438912   2.635   4.863   4.993 -1.7878 -3.0382 -1.7479
   70MOL   H13538913   2.763   4.920   4.880  1.5787 -0.0768  2.7111
   70MOL   H13638914   2.616   4.771   4.706  1.0506  0.4052  0.7578
   70MOL   H13738915   2.512   4.751   4.842 -1.4995 -0.8183 -3.7934
   70MOL   H13838916   2.666   5.243   4.536 -0.4922 -0.8176  0.6802
   70MOL   H13938917   2.561   5.461   4.509 -0.9082  1.4010  0.3344
   70MOL   H14038918   2.219   5.318   4.710  0.0441  2.8245  0.4095
   70MOL   H14138919   2.326   5.097   4.750  1.4340  0.4663  0.3002
   70MOL   O14238920   2.205   5.564   4.661 -0.0793  0.0954  0.3321
   70MOL   C14338921   2.129   5.682   4.646  0.7369 -0.3638  0.0727
   70MOL   C14438922   1.981   5.652   4.627  0.1377  1.0807 -0.2263
   70MOL   C14538923   1.900   5.619   4.750  0.2224 -0.2386 -0.2722
   70MOL   C14638924   1.950   5.503   4.841 -0.6175  0.3624  0.5081
   70MOL   O14738925   2.067   5.544   4.917  0.1504  0.7061 -0.0251
   70MOL   C14838926   2.074   5.555   5.058  0.7985 -0.2828 -0.2105
   70MOL   O14938927   1.967   5.534   5.119 -0.7233 -0.0148  0.1669
   70MOL   C15038928   2.209   5.591   5.117  0.1035 -0.2190  0.0545
   70MOL   C15138929   2.321   5.589   5.037 -0.2632 -0.2316 -0.4994
   70MOL   C15238930   2.445   5.616   5.100 -0.8551  0.5428  0.0404
   70MOL   C15338931   2.453   5.645   5.237  0.4448  0.1352  0.7349
   70MOL   C15438932   2.584   5.686   5.298  0.1889 -0.2359  0.3956
   70MOL   O15538933   2.693   5.685   5.240 -0.1666 -0.4868 -0.1788
   70MOL   C15638934   2.335   5.638   5.315 -0.1449 -0.4355  0.1875
   70MOL   C15738935   2.210   5.614   5.257  0.1445 -0.1250 -0.2478
   70MOL   H15838936   2.137   5.728   4.745  0.1059  0.5391 -0.2969
   70MOL   H15938937   2.172   5.730   4.558 -0.6106  0.6057 -0.0720
   70MOL   H16038938   1.977   5.570   4.556 -2.1567 -0.0734  1.1695
   70MOL   H16138939   1.922   5.723   4.569 -2.2605  0.4797  1.3962
   70MOL   H16238940   1.878   5.704   4.816 -1.0724 -1.5406  1.0097
   70MOL   H16338941   1.799   5.601   4.716 -0.4737  1.4871  0.8143
   70MOL   H16438942   1.869   5.473   4.907  0.2223  0.7534  1.7464
   70MOL   H16538943   1.982   5.412   4.790  0.4060  1.5484 -1.0021
   70MOL   H16638944   2.308   5.568   4.932 -0.8971 -2.7195  0.0252
   70MOL   H16738945   2.535   5.622   5.041 -0.9402  0.3064 -0.1135
   70MOL   H16838946   2.342   5.649   5.422  2.6763 -2.8289  0.3150
   70MOL   H16938947   2.122   5.610   5.320 -0.6080 -1.2376 -1.3397
   70MOL   O17038948   2.565   5.740   5.427  0.1725  0.2547 -0.1570
   70MOL   C17138949   2.672   5.798   5.494  0.1166 -0.4629  0.1180
   70MOL   C17238950   2.615   5.825   5.638  0.0082 -0.7271 -0.0246
   70MOL   C17338951   2.530   5.952   5.629 -0.2256  0.9551  0.4011
   70MOL   C17438952   2.505   6.010   5.766  0.1732  0.6270 -0.5888
   70MOL   O17538953   2.381   5.954   5.827 -0.3493 -0.3884  0.3482
   70MOL   C17638954   2.408   5.846   5.893  0.2960 -0.1499  0.1543
   70MOL   O17738955   2.520   5.801   5.918 -0.1125 -0.2170  0.1786
   70MOL   C17838956   2.284   5.779   5.934 -0.4607  0.3573  0.4806
   70MOL   C17938957   2.150   5.824   5.903  0.2718  0.2699 -0.6658
   70MOL   C18038958   2.033   5.757   5.937  0.1069  0.6830 -0.3474
   70MOL   C18138959   2.044   5.637   6.013 -0.8731 -0.5372  0.4310
   70MOL   C18238960   1.927   5.572   6.068  0.2491  0.2872 -0.6273
   70MOL   O18338961   1.823   5.629   6.075  0.8189 -0.0448  0.3788
   70MOL   C18438962   2.176   5.596   6.052  0.0387 -0.3096 -0.4227
   70MOL   C18538963   2.296   5.661   6.013  0.4806  0.0958 -0.3152
   70MOL   H18638964   2.760   5.734   5.502  0.5224  0.1509  0.6614
   70MOL   H18738965   2.709   5.886   5.441 -2.0921  1.4386  1.6395
   70MOL   H18838966   2.693   5.852   5.709 -1.3230  0.9693  0.8194
   70MOL   H18938967   2.565   5.734   5.672  0.1718 -0.9506 -0.3664
   70MOL   H19038968   2.584   6.032   5.578 -0.4126  1.2640  0.6823
   70MOL   H19138969   2.438   5.936   5.573 -0.9493 -0.0435  1.8374
   70MOL   H19238970   2.589   6.011   5.835 -0.4853 -0.4421  0.2481
   70MOL   H19338971   2.485   6.114   5.740  0.6660  0.4033 -1.8899
   70MOL   H19438972   2.134   5.911   5.840 -0.6593  0.8639  0.3615
   70MOL   H19538973   1.940   5.786   5.889  0.7147  0.8557 -1.4350
   70MOL   H19638974   2.172   5.517   6.125 -1.2188  0.6979  0.6441
   70MOL   H19738975   2.394   5.632   6.047 -0.1159 -1.1759  0.3271
   70MOL   O19838976   1.939   5.438   6.090  0.2166 -0.5473  0.1328
   70MOL   C19938977   1.837   5.355   6.144 -0.2437  0.2090  0.4267
   70MOL   C20038978   1.890   5.310   6.282  0.5281 -0.8538 -0.8076
   70MOL   C20138979   1.870   5.410   6.402  0.6311  0.7237  0.0865
   70MOL   C20238980   1.912   5.341   6.532  0.2333 -0.8330 -0.1603
   70MOL   O20338981   2.042   5.275   6.524  0.3939 -0.0279  0.2984
   70MOL   C20438982   2.152   5.342   6.518 -0.1978  0.9627 -0.0602
   70MOL   O20538983   2.158   5.462   6.527  0.5850  0.1918 -0.3429
   70MOL   C20638984   2.273   5.247   6.499  0.3498 -0.6921 -0.7137
   70MOL   C20738985   2.255   5.114   6.458  0.3590  0.0977 -0.2377
   70MOL   C20838986   2.371   5.029   6.454  0.1559  0.5863 -0.5794
   70MOL   C20938987   2.498   5.070   6.497  1.0414 -0.3716  0.0274
   70MOL   C21038988   2.607   4.977   6.495  0.0925  0.0836 -0.1365
   70MOL   O21138989   2.593   4.868   6.439 -0.0493 -0.8105  0.4031
   70MOL   C21238990   2.512   5.205   6.531  0.0579 -0.3069 -0.6053
   70MOL   C21338991   2.401   5.294   6.545 -0.2199  0.2085  0.7128
   70MOL   H21438992   1.746   5.415   6.149 -1.6256 -1.6559 -1.4209
   70MOL   H21538993   1.822   5.275   6.071  1.0440  0.5814 -0.2609
   70MOL   H21638994   1.995   5.281   6.286 -0.0571 -2.8159  1.4124
   70MOL   H21738995   1.826   5.226   6.311 -1.9223  0.7720 -1.3982
   70MOL   H21838996   1.920   5.505   6.384  1.0244  0.6192  0.6363
   70MOL   H21938997   1.764   5.436   6.407  0.6878  1.7305 -2.7039
   70MOL   H22038998   1.896   5.416   6.610  0.2142  1.1128 -1.9602
   70MOL   H22138999   1.836   5.270   6.563  0.4269 -0.9684  0.0018
   70MOL   H22239000   2.163   5.072   6.420  1.2836 -1.3456 -0.9156
   70MOL   H22339001   2.355   4.924   6.437 -0.6986  0.3816  1.3459
   70MOL   H22439002   2.607   5.238   6.571 -0.6284 -0.7384  1.4381
   70MOL   H22539003   2.404   5.392   6.590 -3.1915 -0.3104  2.1881
   70MOL   O22639004   2.721   5.021   6.563 -0.0855 -0.2581 -0.6494
   70MOL   C22739005   2.839   4.951   6.543  1.1673 -0.2022 -0.0663
   70MOL   C22839006   2.957   5.043   6.502 -0.2156  0.1459 -0.1994
   70MOL   C22939007   2.945   5.115   6.363  0.1608 -0.0147  0.6092
   70MOL   C23039008   2.926   5.029   6.244  0.2637 -0.1853 -0.1877
   70MOL   O23139009   3.037   4.946   6.217 -0.3639 -0.3434 -0.3461
   70MOL   C23239010   3.034   4.836   6.145 -0.6000 -0.0780  0.3134
   70MOL   O23339011   2.950   4.816   6.058  0.0956  0.0538  0.6272
   70MOL   C23439012   3.152   4.748   6.153 -0.8800 -0.0284 -0.1216
   70MOL   C23539013   3.243   4.759   6.257 -0.3648 -0.0412  0.0028
   70MOL   C23639014   3.361   4.680   6.269 -0.4300 -0.1306  0.2921
   70MOL   C23739015   3.380   4.579   6.173  0.0031 -0.4149  0.2648
   70MOL   C23839016   3.501   4.495   6.171 -0.0286 -0.4756  0.5184
   70MOL   O23939017   3.536   4.425   6.071 -0.3004  0.4906  0.2488
   70MOL   C24039018   3.291   4.565   6.060 -0.0086 -0.1998  0.9237
   70MOL   C24139019   3.177   4.646   6.059 -0.3551  0.7455 -0.5415
   70MOL   H24239020   2.865   4.891   6.630 -1.8061 -1.0027  0.3270
   70MOL   H24339021   2.827   4.884   6.458  0.4993 -0.2332  0.0566
   70MOL   H24439022   3.042   4.976   6.492 -0.5042 -0.0169 -1.6703
   70MOL   H24539023   2.980   5.113   6.582 -0.5613  0.4182 -0.3381
   70MOL   H24639024   2.852   5.167   6.386  1.4977  1.3975  3.0986
   70MOL   H24739025   3.022   5.192   6.351 -2.6669  2.4821 -2.1238
   70MOL   H24839026   2.837   4.969   6.263  0.0393 -0.3235 -1.6179
   70MOL   H24939027   2.914   5.090   6.155 -1.1494  1.1694  0.9016
   70MOL   H25039028   3.226   4.836   6.331  1.3195  0.0708  0.3004
   70MOL   H25139029   3.434   4.707   6.344 -0.5445 -2.5442  1.3009
   70MOL   H25239030   3.300   4.493   5.980 -1.0861  1.4854 -0.7427
   70MOL   H25339031   3.107   4.623   5.980  1.1612 -0.2004 -1.6339
   70MOL   O25439032   3.585   4.511   6.281  0.5187  0.4745  0.2634
   70MOL   C25539033   3.689   4.417   6.313  0.4762 -0.3223  0.4782
   70MOL   C25639034   3.818   4.445   6.232 -0.1442 -0.0338  0.2553
   70MOL   C25739035   3.933   4.355   6.274  0.0932  0.3164  0.1952
   70MOL   C25839036   4.059   4.358   6.189  0.6831 -0.1534 -0.1177
   70MOL   O25939037   4.165   4.290   6.254 -0.4021  0.0115  0.8295
   70MOL   C26039038   4.228   4.193   6.191 -0.4653 -0.1484 -0.4074
   70MOL   O26139039   4.228   4.189   6.070  0.1146  0.2656  0.2094
   70MOL   C26239040   4.310   4.100   6.277  0.5098  0.3832  0.2622
   70MOL   C26339041   4.385   3.994   6.229  0.3247  0.4319 -0.3332
   70MOL   C26439042   4.458   3.913   6.317 -0.0812 -0.0033 -0.2387
   70MOL   C26539043   4.467   3.939   6.452 -0.4119  0.8845  0.1931
   70MOL   C26639044   4.540   3.853   6.547  0.6230 -0.0789 -0.1891
   70MOL   O26739045   4.608   3.750   6.515 -0.2553 -0.7078  0.5019
   70MOL   C26839046   4.393   4.051   6.496  0.1481  0.6027 -0.0001
   70MOL   C26939047   4.322   4.128   6.413  0.1847  0.9238 -0.1042
   70MOL   H27039048   3.704   4.453   6.415  1.0735 -1.6050  0.8531
   70MOL   H27139049   3.639   4.321   6.312 -0.3666  0.1090  0.8665
   70MOL   H27239050   3.846   4.549   6.245 -0.0184  0.0475 -0.6637
   70MOL   H27339051   3.803   4.421   6.127  0.0646 -3.1016  0.8730
   70MOL   H27439052   3.972   4.377   6.373  1.2401  0.5054 -0.2892
   70MOL   H27539053   3.898   4.252   6.278  0.8839  0.0581  0.5108
   70MOL   H27639054   4.024   4.321   6.092 -1.3954  2.2781 -0.3307
   70MOL   H27739055   4.088   4.459   6.161 -0.8216  0.3319  0.0513
   70MOL   H27839056   4.395   3.966   6.125  0.2992 -0.2722 -0.1447
   70MOL   H27939057   4.516   3.831   6.277 -0.3778 -0.5877  0.5090
   70MOL   H28039058   4.383   4.083   6.599  1.1044  0.9795 -0.0096
   70MOL   H28139059   4.252   4.195   6.461  0.6955 -0.4243  2.5996
   70MOL   O28239060   4.534   3.889   6.680 -0.2614  0.5669  0.0202
   70MOL   C28339061   4.611   3.820   6.784  0.1913  0.1151  0.1730
   70MOL   C28439062   4.525   3.778   6.902 -0.0147  0.3295  0.2469
   70MOL   C28539063   4.528   3.882   7.015 -0.1950 -0.3954  0.9698
   70MOL   C28639064   4.453   3.829   7.140  0.4442  0.3862 -0.0293
   70MOL   O28739065   4.448   3.923   7.251 -0.3385  0.0339 -0.2136
   70MOL   C28839066   4.391   3.894   7.370 -0.2021  0.0368 -1.0644
   70MOL   O28939067   4.323   3.792   7.400 -0.3172 -0.1724  0.1129
   70MOL   C29039068   4.409   4.006   7.469  0.1501  0.2236 -0.4850
   70MOL   C29139069   4.480   4.126   7.442  0.0496  0.5354 -0.1392
   70MOL   C29239070   4.496   4.220   7.550 -0.3293 -0.8417  0.0938
   70MOL   C29339071   4.441   4.198   7.680  0.3411 -0.0607 -0.3922
   70MOL   C29439072   4.446   4.304   7.794  0.2526 -0.0265  0.2068
   70MOL   O29539073   4.505   4.412   7.780  0.7999 -0.1648  0.2898
   70MOL   C29639074   4.368   4.078   7.700 -0.2458 -0.5790  0.2409
   70MOL   C29739075   4.351   3.989   7.601  0.2182 -0.5668  0.7888
   70MOL   H29839076   4.672   3.737   6.750 -1.1880 -2.1464  2.9841
   70MOL   H29939077   4.683   3.893   6.822  1.2646 -0.6897 -0.2950
   70MOL   H30039078   4.566   3.681   6.928 -0.5293 -0.1141 -0.5607
   70MOL   H30139079   4.421   3.759   6.874 -0.2041  1.2360  0.3025
   70MOL   H30239080   4.632   3.903   7.039  0.1057  0.6866 -1.1841
   70MOL   H30339081   4.488   3.981   6.994  3.6909  1.1309  0.4154
   70MOL   H30439082   4.356   3.787   7.113  0.9750  0.4820 -2.1937
   70MOL   H30539083   4.495   3.739   7.183  0.6787  0.9442  0.9194
   70MOL   H30639084   4.528   4.165   7.354  0.9388  0.4842  0.3086
   70MOL   H30739085   4.552   4.311   7.533  0.6458 -1.9300 -2.9336
   70MOL   H30839086   4.330   4.054   7.798 -0.6720 -0.4791  0.0991
   70MOL   H30939087   4.305   3.895   7.628  2.1313 -2.3297 -1.8284
   70MOL   O31039088   4.371   4.271   7.906 -0.1937 -0.3486 -0.4466
   70MOL   C31139089   4.386   4.359   8.015  1.0982 -0.3914  0.6613
   70MOL   C31239090   4.302   4.308   0.034 -0.3168  0.0555  0.1714
   70MOL   C31339091   4.363   4.194   0.119  0.4058  0.2669 -0.1095
   70MOL   C31439092   4.381   4.066   0.041  0.3187 -0.0886 -0.5973
   70MOL   O31539093   4.396   3.957   0.129 -0.0199 -0.1110 -0.6929
   70MOL   C31639094   4.430   3.838   0.082 -0.0210 -0.1916  0.2307
   70MOL   O31739095   4.477   3.819   8.071 -0.3373  0.2646 -0.2292
   70MOL   C31839096   4.418   3.733   0.187  0.4412 -0.1554 -0.4198
   70MOL   C31939097   4.369   3.758   0.322 -0.2533  0.4547 -1.1315
   70MOL   C32039098   4.349   3.648   0.409  0.5375  0.6360 -0.3100
   70MOL   C32139099   4.378   3.518   0.374 -0.2542 -0.3784 -0.5431
   70MOL   C32239100   4.344   3.407   0.461  0.8017  0.2285  0.3453
   70MOL   O32339101   4.335   3.287   0.420 -0.0870 -0.1099  0.8958
   70MOL   C32439102   4.431   3.491   0.246  0.1824 -0.0299 -0.5706
   70MOL   C32539103   4.452   3.596   0.153  0.1967 -0.2612  0.2800
   70MOL   H32639104   4.490   4.355   8.048  0.0566 -2.6460  3.9360
   70MOL   H32739105   4.379   4.464   7.987  2.0752 -0.4965  0.0095
   70MOL   H32839106   4.210   4.268   8.090  0.6437 -2.2466  0.1513
   70MOL   H32939107   4.280   4.391   0.100 -2.6844 -1.2605  1.0902
   70MOL   H33039108   4.456   4.224   0.165 -0.4271  2.1887  0.3482
   70MOL   H33139109   4.306   4.162   0.206 -0.3242  0.1966 -0.5989
   70MOL   H33239110   4.307   4.056   8.061 -0.0858  1.0630 -0.3627
   70MOL   H33339111   4.473   4.085   8.083  1.4767 -1.3292  0.8096
   70MOL   H33439112   4.338   3.856   0.354  2.5580 -0.3493  4.5824
   70MOL   H33539113   4.293   3.673   0.498 -0.7376  0.0483 -0.9345
   70MOL   H33639114   4.456   3.389   0.224 -2.4742 -0.4251 -1.9876
   70MOL   H33739115   4.493   3.569   0.057 -0.0457 -0.6080  0.2718
   70MOL   O33839116   4.318   3.453   0.589  0.2176 -0.3859 -0.8201
   70MOL   C33939117   4.267   3.361   0.682  0.5112 -0.0044 -0.1208
   70MOL   C34039118   4.376   3.254   0.725 -0.3278  0.2518 -0.0176
   70MOL   C34139119   4.346   3.162   0.842  0.5940 -0.2286 -0.8299
   70MOL   C34239120   4.211   3.091   0.841  0.0260  0.0411 -0.4285
   70MOL   O34339121   4.205   2.977   0.748  0.1279  1.1467  0.0885
   70MOL   C34439122   4.110   2.979   0.658  0.1044  0.0597  0.2297
   70MOL   O34539123   4.030   3.069   0.638  0.7377  0.0969 -0.3908
   70MOL   C34639124   4.107   2.849   0.578  0.5880  0.5590 -0.1503
   70MOL   C34739125   4.207   2.757   0.595 -0.1831  0.1955  0.3890
   70MOL   C34839126   4.208   2.637   0.525  0.5729 -0.6299  0.7072
   70MOL   C34939127   4.105   2.610   0.429  1.0527 -0.0660  0.2420
   70MOL   C35039128   4.089   2.485   0.361 -0.5030 -0.1243  0.0806
   70MOL   O35139129   4.029   2.470   0.255  0.2215  0.0539 -0.0307
   70MOL   C35239130   4.007   2.710   0.408 -0.1086 -0.3366  0.3605
   70MOL   C35339131   4.008   2.832   0.479  0.0753 -0.0039 -0.0629
   70MOL   H35439132   4.242   3.419   0.771 -0.9063  0.2330 -0.6599
   70MOL   H35539133   4.182   3.316   0.631 -0.1100  2.7950 -1.6501
   70MOL   H35639134   4.469   3.306   0.746 -0.7954  1.5838 -1.2312
   70MOL   H35739135   4.400   3.191   0.639 -0.5287 -0.4083  0.4045
   70MOL   H35839136   4.421   3.084   0.846 -0.4248 -1.2126 -0.8345
   70MOL   H35939137   4.358   3.226   0.929 -0.8965 -0.9221 -0.0959
   70MOL   H36039138   4.198   3.049   0.940 -0.9313 -0.1518 -0.6323
   70MOL   H36139139   4.130   3.164   0.832 -0.8299 -0.1799  4.1871
   70MOL   H36239140   4.285   2.774   0.668  0.5255  3.9161 -1.1445
   70MOL   H36339141   4.276   2.554   0.537  1.2866 -0.0677  0.5910
   70MOL   H36439142   3.922   2.689   0.344 -1.4809  2.5923  1.1416
   70MOL   H36539143   3.925   2.901   0.469  0.4619  0.5043  0.2401
   70MOL   O36639144   4.155   2.381   0.421 -0.5908  0.4686 -0.0234
   70MOL   C36739145   4.147   2.249   0.377 -0.1315 -0.0289 -0.1821
   70MOL   C36839146   4.249   2.245   0.261 -0.1765  0.1005 -0.2243
   70MOL   C36939147   4.265   2.105   0.197 -0.2624 -0.2665  1.1996
   70MOL   C37039148   4.155   2.051   0.095  0.4149  0.3025  0.5988
   70MOL   O37139149   4.088   2.160   0.035  0.0161  0.0734  0.0784
   70MOL   C37239150   3.975   2.135   8.054 -0.2573  0.0539 -0.7749
   70MOL   O37339151   3.933   2.021   8.037  0.5573  0.6695 -0.2679
   70MOL   C37439152   3.916   2.262   7.993 -0.6036  0.1444 -0.9962
   70MOL   C37539153   3.825   2.263   7.890  0.2007 -0.8837  0.5638
   70MOL   C37639154   3.794   2.377   7.816 -0.4356 -0.5247 -0.0137
   70MOL   C37739155   3.837   2.503   7.864  0.3075  0.4431 -0.3131
   70MOL   C37839156   3.795   2.630   7.782 -0.3939 -0.3342  0.1988
   70MOL   O37939157   3.744   2.625   7.669 -0.9509  0.0260 -0.1057
   70MOL   C38039158   3.919   2.511   7.978  0.4428 -0.1653 -0.0579
   70MOL   C38139159   3.963   2.391   8.038  0.0173 -0.6797  0.4103
   70MOL   H38239160   4.178   2.175   0.452  1.7900 -1.2254 -2.1027
   70MOL   H38339161   4.050   2.232   0.331 -0.0620  0.3262 -0.4551
   70MOL   H38439162   4.350   2.261   0.296  0.5548 -0.0756 -2.1635
   70MOL   H38539163   4.231   2.315   0.179  0.1188  0.4758  0.0346
   70MOL   H38639164   4.356   2.112   0.138 -1.5092  0.1754 -0.6964
   70MOL   H38739165   4.300   2.033   0.271 -2.3767 -1.4427  1.1092
   70MOL   H38839166   4.206   1.988   0.022 -0.3340 -0.9448  1.1416
   70MOL   H38939167   4.089   1.992   0.157  0.6006 -0.2801  0.2405
   70MOL   H39039168   3.787   2.165   7.866  0.1305 -0.8976  0.7282
   70MOL   H39139169   3.736   2.377   7.725  1.6171 -0.7660 -1.3477
   70MOL   H39239170   3.951   2.607   8.016 -0.6080  0.3586 -0.4791
   70MOL   H39339171   4.036   2.406   0.017  1.9489  1.8788 -1.8094
   70MOL   O39439172   3.806   2.749   7.848  0.2745  0.1283  0.1123
   70MOL   C39539173   3.747   2.865   7.795 -0.0586 -0.0047  0.6444
   70MOL   C39639174   3.768   2.993   7.875  0.5122 -0.2726  0.5174
   70MOL   C39739175   3.708   3.114   7.791  0.7064 -0.0784 -0.0240
   70MOL   C39839176   3.756   3.249   7.852 -0.1131 -0.3325  0.3601
   70MOL   O39939177   3.724   3.276   7.988 -0.3182 -0.0330 -0.2484
   70MOL   C40039178   3.598   3.297   8.038  0.1885 -0.3780  0.6166
   70MOL   O40139179   3.494   3.324   7.972 -0.2706  0.2896 -0.2326
   70MOL   C40239180   3.597   3.292   0.090  0.3980  0.0111 -0.5029
   70MOL   C40339181   3.709   3.303   0.179  0.1830 -0.1742  1.1523
   70MOL   C40439182   3.694   3.301   0.315 -0.0452  0.3595 -0.1463
   70MOL   C40539183   3.567   3.285   0.375  1.2249 -0.0128  1.0203
   70MOL   C40639184   3.543   3.285   0.521 -0.4554  0.1434  0.4765
   70MOL   O40739185   3.430   3.306   0.572 -0.2500  0.2256  0.4634
   70MOL   C40839186   3.457   3.264   0.295  0.0237 -0.2804  0.9379
   70MOL   C40939187   3.470   3.265   0.154  0.2081 -0.0483 -0.5924
   70MOL   H41039188   3.794   2.884   7.698  2.7662  2.5286  2.4070
   70MOL   H41139189   3.644   2.842   7.765 -0.2952  1.3125  0.4295
   70MOL   H41239190   3.876   3.009   7.879  0.3708  1.6189 -1.9172
   70MOL   H41339191   3.720   2.996   7.973 -1.9584  0.4276 -0.6564
   70MOL   H41439192   3.729   3.106   7.685 -1.9923  0.8804 -0.6794
   70MOL   H41539193   3.599   3.120   7.795  0.7316  0.7161 -0.5246
   70MOL   H41639194   3.863   3.261   7.833 -0.4805  1.4714 -0.7750
   70MOL   H41739195   3.712   3.326   7.788 -0.9331 -0.0119  1.2983
   70MOL   H41839196   3.807   3.333   0.145 -0.2431 -0.0906 -0.0179
   70MOL   H41939197   3.790   3.294   0.362  0.4173  1.2159 -0.9507
   70MOL   H42039198   3.357   3.260   0.336 -0.4755  0.3659 -0.1888
   70MOL   H42139199   3.381   3.257   0.093  1.0595 -1.6430 -1.6475
   70MOL   O42239200   3.655   3.263   0.592 -0.3470  0.2647 -0.4650
   70MOL   C42339201   3.650   3.214   0.726 -0.5069  0.1325  0.3129
   70MOL   C42439202   3.755   3.292   0.801 -0.1342 -0.1261  0.7834
   70MOL   C42539203   3.759   3.269   0.951  0.4892  0.4575 -0.4644
   70MOL   C42639204   3.806   3.135   0.991  0.4838 -0.4175  0.2261
   70MOL   O42739205   3.844   3.129   1.128  0.0299  0.6142 -0.5097
   70MOL   C42839206   3.758   3.086   1.225  1.2563 -0.3446 -0.5222
   70MOL   O42939207   3.648   3.046   1.198  0.1345 -0.3604 -0.3992
   70MOL   C43039208   3.808   3.086   1.361 -0.4138  0.4321 -0.3844
   70MOL   C43139209   3.722   3.083   1.469  0.7442  0.0279  1.0039
   70MOL   C43239210   3.768   3.055   1.597 -0.0515  0.5644 -0.2168
   70MOL   C43339211   3.910   3.041   1.621 -0.0733 -0.0261  0.2500
   70MOL   C43439212   3.965   3.030   1.756  1.1355  0.2691  0.3451
   70MOL   O43539213   4.086   3.007   1.779  0.0022 -0.1541  0.6764
   70MOL   C43639214   4.004   3.047   1.513  0.8682 -0.0215 -0.2035
   70MOL   C43739215   3.952   3.076   1.385 -0.1498 -0.5698  0.3847
   70MOL   H43839216   3.551   3.223   0.771 -1.0836  0.4832 -1.0140
   70MOL   H43939217   3.679   3.109   0.733 -0.1947  0.2334  0.5231
   70MOL   H44039218   3.735   3.399   0.789 -2.4644 -0.7339 -1.1163
   70MOL   H44139219   3.856   3.277   0.764 -0.4048 -0.5319  0.2074
   70MOL   H44239220   3.838   3.334   0.988  1.1627 -0.7921  0.3113
   70MOL   H44339221   3.663   3.288   1.000  1.1543  2.1491  0.2404
   70MOL   H44439222   3.724   3.070   0.960 -1.1234  1.8528 -0.4627
   70MOL   H44539223   3.895   3.108   0.935  0.8472 -0.3072  0.7396
   70MOL   H44639224   3.619   3.103   1.444  0.8733  1.1404  1.3570
   70MOL   H44739225   3.697   3.049   1.678  0.1486 -0.5624 -0.1193
   70MOL   H44839226   4.112   3.047   1.523  0.7240  1.2687  1.4740
   70MOL   H44939227   4.020   3.083   1.301  1.0956  0.7225  1.4822
   70MOL   O45039228   3.863   3.038   1.851  0.6951  0.0278 -0.3387
   70MOL   C45139229   3.892   3.017   1.985 -0.8083 -0.5266  0.4968
   70MOL   C45239230   3.817   2.895   2.043 -0.0919  0.1297 -0.4952
   70MOL   C45339231   3.671   2.914   2.037  0.2153  0.0956 -0.0149
   70MOL   C45439232   3.582   2.818   2.120  0.1688 -0.2538  0.4717
   70MOL   O45539233   3.593   2.845   2.261  0.0066  0.5450  0.4183
   70MOL   C45639234   3.510   2.794   2.348 -0.5619  0.2424  0.4382
   70MOL   O45739235   3.403   2.727   2.318 -0.0871  0.2999  0.5001
   70MOL   C45839236   3.545   2.821   2.494 -0.2201  0.1312 -0.5198
   70MOL   C45939237   3.659   2.901   2.537  0.3160 -0.3084 -0.4274
   70MOL   C46039238   3.679   2.927   2.674 -0.0341  0.1603  0.0594
   70MOL   C46139239   3.592   2.875   2.769  0.7925  0.1103  0.6147
   70MOL   C46239240   3.609   2.923   2.909 -0.5864 -0.9475 -0.1446
   70MOL   O46339241   3.691   3.008   2.941 -0.0688 -0.5624 -0.6786
   70MOL   C46439242   3.492   2.780   2.728  0.3305  0.3227 -0.1349
   70MOL   C46539243   3.463   2.768   2.597 -0.5423 -0.6390  1.0878
   70MOL   H46639244   3.999   3.001   1.994 -0.6330  1.1904  1.8653
   70MOL   H46739245   3.859   3.109   2.033 -0.5934 -0.3932  0.3888
   70MOL   H46839246   3.840   2.885   2.150  0.5071  0.6861 -0.5711
   70MOL   H46939247   3.849   2.798   2.005 -0.3371  0.1708 -0.8064
   70MOL   H47039248   3.649   3.019   2.059 -0.1497  0.2978 -1.2996
   70MOL   H47139249   3.652   2.893   1.931 -0.6600 -1.3356  0.4194
   70MOL   H47239250   3.478   2.820   2.087  0.2363  0.1129  0.2788
   70MOL   H47339251   3.611   2.714   2.101  1.5033  0.2764 -0.4729
   70MOL   H47439252   3.721   2.945   2.461 -1.1825  3.1155  0.2328
   70MOL   H47539253   3.760   2.990   2.707  0.4706 -0.2356 -0.4233
   70MOL   H47639254   3.425   2.726   2.794  0.0140 -0.0105 -0.7273
   70MOL   H47739255   3.373   2.715   2.569 -0.8718 -0.3947  1.6749
   70MOL   O47839256   3.543   2.842   2.995  0.2654 -0.1275  0.5640
   70MOL   C47939257   3.585   2.837   3.129  0.1225 -0.6232  0.2180
   70MOL   C48039258   3.577   2.694   3.190  0.4334 -0.4360 -0.4595
   70MOL   C48139259   3.451   2.618   3.161  0.3074 -0.1070  0.8866
   70MOL   C48239260   3.429   2.488   3.247 -0.0312 -0.7457 -0.6219
   70MOL   O48339261   3.407   2.530   3.384 -0.3768 -0.9088  0.2832
   70MOL   C48439262   3.343   2.463   3.472 -0.3865 -0.2068 -0.6301
   70MOL   O48539263   3.336   2.339   3.467  0.3187  0.4832 -0.6507
   70MOL   C48639264   3.276   2.539   3.584  0.4553  0.3261  0.3430
   70MOL   C48739265   3.262   2.678   3.575  0.3994  0.0820  0.7683
   70MOL   C48839266   3.183   2.749   3.661  0.2202  0.2484 -0.4622
   70MOL   C48939267   3.129   2.691   3.777 -0.2454 -0.3750  0.4708
   70MOL   C49039268   3.053   2.775   3.878  0.3183 -0.0498  0.8636
   70MOL   O49139269   2.996   2.739   3.978 -0.1456  0.2971  0.0440
   70MOL   C49239270   3.156   2.555   3.799 -0.6312 -0.0559 -0.5127
   70MOL   C49339271   3.223   2.479   3.703  0.1715 -0.5152  0.6933
   70MOL   H49439272   3.687   2.870   3.144  0.7127 -1.8516 -0.9549
   70MOL   H49539273   3.529   2.910   3.188  2.8687  0.4402  1.6074
   70MOL   H49639274   3.573   2.706   3.298 -0.6010  1.3750 -0.6776
   70MOL   H49739275   3.669   2.644   3.161 -0.2574 -0.8933 -1.8892
   70MOL   H49839276   3.365   2.684   3.172  0.8157  0.4383  1.6410
   70MOL   H49939277   3.458   2.596   3.054 -1.4995 -0.7036  0.8844
   70MOL   H50039278   3.342   2.437   3.207 -0.6159 -0.0579 -0.2458
   70MOL   H50139279   3.518   2.425   3.246  0.2050 -0.3986 -1.8400
   70MOL   H50239280   3.310   2.729   3.494  0.0577  0.7114  0.9610
   70MOL   H50339281   3.168   2.851   3.628 -1.5109 -0.1058 -0.8367
   70MOL   H50439282   3.112   2.507   3.886 -0.9360  2.4670  0.7708
   70MOL   H50539283   3.236   2.373   3.719 -0.9188 -0.6804  0.5320
   70MOL   O50639284   3.045   2.905   3.834  0.5357  0.0505 -0.0607
   70MOL   C50739285   2.976   3.000   3.920  0.3106 -0.2327  0.0596
   70MOL   C50839286   3.013   3.142   3.888 -0.1027 -0.3937 -0.3835
   70MOL   C50939287   3.151   3.177   3.943 -0.4390  0.8665  0.1322
   70MOL   C51039288   3.259   3.115   3.858 -0.4429  0.2963 -0.4303
   70MOL   O51139289   3.278   3.191   3.740  0.3617 -0.1126  0.2835
   70MOL   C51239290   3.391   3.259   3.716 -0.0511  0.3114 -0.1442
   70MOL   O51339291   3.500   3.244   3.774 -0.2657 -0.2368 -0.0121
   70MOL   C51439292   3.372   3.354   3.603 -1.0556 -0.2319  0.0344
   70MOL   C51539293   3.474   3.435   3.551  0.6182 -0.5923  0.2521
   70MOL   C51639294   3.448   3.535   3.448  0.3194 -0.1333 -0.1749
   70MOL   C51739295   3.311   3.544   3.402 -0.2446  0.2194 -0.7444
   70MOL   C51839296   3.266   3.658   3.314 -0.2126  0.5165 -0.8844
   70MOL   O51939297   3.149   3.674   3.283  0.3345 -0.1597 -0.7731
   70MOL   C52039298   3.214   3.454   3.446 -0.0013 -0.2436  0.6436
   70MOL   C52139299   3.241   3.359   3.543 -0.1675 -0.1455  0.1927
   70MOL   H52239300   2.869   2.978   3.910  0.8928 -3.2209 -0.0729
   70MOL   H52339301   2.986   2.972   4.025 -1.3863  2.2571  0.9627
   70MOL   H52439302   2.937   3.210   3.928  1.5055  2.1609 -1.5441
   70MOL   H52539303   3.015   3.150   3.779  2.7783  1.1903 -0.2730
   70MOL   H52639304   3.167   3.285   3.933  1.4488  0.5816  0.0060
   70MOL   H52739305   3.167   3.153   4.048  1.9637  2.1202  0.0981
   70MOL   H52839306   3.358   3.106   3.902 -0.3802 -0.6099 -0.7424
   70MOL   H52939307   3.233   3.014   3.827  0.1794  0.1575 -0.4944
   70MOL   H53039308   3.576   3.420   3.586  0.8238  0.9696  0.3545
   70MOL   H53139309   3.524   3.597   3.403 -0.9254  1.3385 -0.3078
   70MOL   H53239310   3.116   3.452   3.402  0.1554 -1.1744  0.3295
   70MOL   H53339311   3.158   3.293   3.563  0.0990  0.0148  1.9066
   70MOL   O53439312   3.364   3.739   3.290 -0.4614 -0.1513  0.1658
   70MOL   C53539313   3.344   3.859   3.218 -0.7595  0.4936  0.2501
   70MOL   C53639314   3.338   3.839   3.068 -0.4153  0.0989 -0.0438
   70MOL   C53739315   3.473   3.783   3.006 -0.4205  0.0071  0.4529
   70MOL   C53839316   3.476   3.784   2.847 -0.2785  0.4951  0.0625
   70MOL   O53939317   3.603   3.760   2.800 -0.0820  0.0630 -0.2638
   70MOL   C54039318   3.618   3.729   2.672  0.2829  0.3109 -0.4838
   70MOL   O54139319   3.531   3.735   2.586 -0.1914  0.0079  0.2339
   70MOL   C54239320   3.761   3.708   2.641  0.0469  1.1132  0.7969
   70MOL   C54339321   3.793   3.665   2.511 -0.2246  0.2309  0.0678
   70MOL   C54439322   3.924   3.626   2.486 -0.0323  0.0354  0.1122
   70MOL   C54539323   4.024   3.652   2.580  0.0231 -0.1775  0.3498
   70MOL   C54639324   4.165   3.624   2.549  0.6587 -0.7877 -0.6320
   70MOL   O54739325   4.201   3.587   2.438  0.2854  0.2554  0.2980
   70MOL   C54839326   3.996   3.705   2.705  0.3007 -0.4385 -0.7769
   70MOL   C54939327   3.858   3.735   2.739 -0.2439 -0.0689 -0.4246
   70MOL   H55039328   3.253   3.906   3.253 -0.9033  0.6448 -0.3177
   70MOL   H55139329   3.420   3.934   3.239  0.1578 -0.3129 -0.1242
   70MOL   H55239330   3.332   3.939   3.025  0.5574  0.7755  1.3618
   70MOL   H55339331   3.251   3.779   3.043  0.6617 -1.2608 -0.5972
   70MOL   H55439332   3.557   3.847   3.030 -0.4133  0.4594 -0.7321
   70MOL   H55539333   3.478   3.679   3.039 -0.8181 -0.7669 -1.8263
   70MOL   H55639334   3.412   3.705   2.806 -1.5307  1.3586  0.3372
   70MOL   H55739335   3.452   3.881   2.804  0.6886 -0.1098 -1.9143
   70MOL   H55839336   3.711   3.643   2.445 -1.2098 -1.8256  1.9093
   70MOL   H55939337   3.949   3.591   2.387 -1.7218 -1.5270  0.2278
   70MOL   H56039338   4.074   3.739   2.771  0.2250 -2.1000  0.1944
   70MOL   H56139339   3.846   3.761   2.843  1.5062 -1.2666  0.1197
   70MOL   H56239340   4.228   3.628   2.637 -2.2493 -0.0784  1.5079
   71MOL     O139341   8.033   2.510   6.384  0.2505 -0.6186  0.2194
   71MOL     C239342   7.943   2.403   6.380 -0.2582 -0.4616 -0.0743
   71MOL     C339343   7.806   2.441   6.444 -0.2936  0.4104 -0.0694
   71MOL     C439344   7.687   2.343   6.432 -0.5028 -0.1562  0.2581
   71MOL     C539345   7.611   2.359   6.299  0.3919 -0.1727 -0.9850
   71MOL     O639346   7.478   2.314   6.304  0.2288  0.4718  0.1350
   71MOL     C739347   7.398   2.325   6.196  0.3603  0.0173  0.2480
   71MOL     O839348   7.432   2.355   6.080  0.5715  0.1016 -0.2358
   71MOL     C939349   7.259   2.295   6.222 -0.9951 -0.7055  0.2251
   71MOL    C1039350   7.228   2.210   6.331 -0.1989  0.1122  0.1999
   71MOL    C1139351   7.096   2.168   6.345  0.2798  0.0138  0.0051
   71MOL    C1239352   6.994   2.204   6.255  0.8268  0.1019 -0.1511
   71MOL    C1339353   6.850   2.146   6.269 -0.2761  0.0276  0.4158
   71MOL    O1439354   6.818   2.070   6.353 -0.2790 -0.4924 -0.4593
   71MOL    C1539355   7.026   2.294   6.150  0.6148  0.0784 -0.2510
   71MOL    C1639356   7.162   2.339   6.132 -0.2276 -0.0104 -0.0566
   71MOL    H1739357   7.924   2.370   6.277  2.6171 -1.9999 -0.1608
   71MOL    H1839358   7.985   2.320   6.436 -1.4631 -1.7621 -1.0387
   71MOL    H1939359   7.765   2.532   6.399 -2.2338 -0.3049  0.1762
   71MOL    H2039360   7.828   2.463   6.548  1.0294  0.8030 -0.4223
   71MOL    H2139361   7.715   2.238   6.440 -0.2298 -0.1682 -0.7612
   71MOL    H2239362   7.615   2.360   6.511 -1.8518  0.5908 -1.1036
   71MOL    H2339363   7.599   2.460   6.260 -1.6336 -0.2821 -0.7186
   71MOL    H2439364   7.658   2.306   6.216  1.2062 -1.4482  0.2762
   71MOL    H2539365   7.303   2.168   6.396  0.3157  2.3413  1.0569
   71MOL    H2639366   7.059   2.111   6.429  3.0915  1.6264  2.4403
   71MOL    H2739367   6.951   2.332   6.083  1.3560  2.4873  0.2208
   71MOL    H2839368   7.190   2.421   6.068 -0.8097 -0.3887 -0.8069
   71MOL    H2939369   8.002   2.577   6.324  1.0924  1.5557  2.1272
   71MOL    O3039370   6.773   2.184   6.173 -0.1349  0.5153  0.1465
   71MOL    C3139371   6.637   2.131   6.157 -0.1899  0.8659  0.5681
   71MOL    C3239372   6.534   2.217   6.231  0.5205  0.0555 -0.0840
   71MOL    C3339373   6.539   2.366   6.197  0.0866  0.2844 -0.4375
   71MOL    C3439374   6.411   2.444   6.231  0.0831  0.1443  0.1863
   71MOL    O3539375   6.439   2.579   6.269  0.4497  0.1822  0.1539
   71MOL    C3639376   6.384   2.626   6.374 -0.4093 -0.1605 -0.1686
   71MOL    O3739377   6.309   2.560   6.449  0.0254 -0.3444  0.5983
   71MOL    C3839378   6.420   2.769   6.398  0.0996  0.2953  0.1807
   71MOL    C3939379   6.321   2.853   6.456 -0.3470  1.5167  1.0764
   71MOL    C4039380   6.347   2.994   6.477  0.1786  0.6221  0.0640
   71MOL    C4139381   6.472   3.047   6.436  0.5406  0.0073  0.3550
   71MOL    C4239382   6.491   3.190   6.468  0.0366 -0.3147 -0.0173
   71MOL    O4339383   6.407   3.264   6.519  0.1369 -0.0284 -0.1229
   71MOL    C4439384   6.569   2.961   6.382  0.7984  0.3074  0.0499
   71MOL    C4539385   6.544   2.822   6.354 -0.2769 -0.5992  0.0774
   71MOL    H4639386   6.619   2.133   6.049  0.7788 -0.1438  0.3751
   71MOL    H4739387   6.636   2.028   6.193 -3.5582  0.1667 -1.2502
   71MOL    H4839388   6.546   2.204   6.339 -1.5985  1.3587  0.3516
   71MOL    H4939389   6.437   2.168   6.219  0.2166  0.7935 -0.6994
   71MOL    H5039390   6.636   2.399   6.236  0.5725 -1.4681 -0.0858
   71MOL    H5139391   6.545   2.376   6.089 -0.7486  0.0243 -0.5058
   71MOL    H5239392   6.333   2.444   6.154  0.2831  0.4715 -0.0167
   71MOL    H5339393   6.368   2.394   6.318  1.8267  1.4707  1.8394
   71MOL    H5439394   6.225   2.816   6.487  0.1442 -1.7612 -1.0459
   71MOL    H5539395   6.274   3.061   6.520  0.0033  1.0095 -0.8143
   71MOL    H5639396   6.666   2.988   6.345  0.0388  0.9672 -1.5138
   71MOL    H5739397   6.619   2.755   6.313  2.2429  0.9426  2.0333
   71MOL    O5839398   6.623   3.229   6.459 -0.4106  0.2121  0.0980
   71MOL    C5939399   6.656   3.361   6.479  0.7697 -0.0357  0.0628
   71MOL    C6039400   6.808   3.381   6.462  0.8480  0.5558  0.6398
   71MOL    C6139401   6.846   3.365   6.317 -0.0268 -0.3039 -0.2932
   71MOL    C6239402   6.992   3.366   6.281  0.4839 -0.7701  0.3759
   71MOL    O6339403   7.063   3.254   6.314  0.7845  0.0961 -0.0964
   71MOL    C6439404   7.068   3.141   6.233 -0.4163 -0.0522  0.4376
   71MOL    O6539405   6.997   3.144   6.129  0.0551  0.1576 -0.4774
   71MOL    C6639406   7.155   3.030   6.285  0.8550  0.1232 -0.2457
   71MOL    C6739407   7.218   3.031   6.410 -0.7977 -0.4625 -0.2287
   71MOL    C6839408   7.287   2.921   6.463 -0.4422 -0.4954  0.2574
   71MOL    C6939409   7.302   2.805   6.385  0.2389 -0.3390  0.0444
   71MOL    C7039410   7.376   2.687   6.435  0.8102  0.1402 -0.4067
   71MOL    O7139411   7.373   2.572   6.387  0.6385 -0.4682  0.1960
   71MOL    C7239412   7.245   2.797   6.251 -0.4271 -0.7731  0.1395
   71MOL    C7339413   7.172   2.912   6.201 -0.6881 -0.3249 -0.9824
   71MOL    H7439414   6.598   3.428   6.415 -0.8720  2.5388  4.0632
   71MOL    H7539415   6.629   3.390   6.580  3.0307  2.1746  0.0729
   71MOL    H7639416   6.861   3.300   6.512  3.4783  1.1204 -1.1340
   71MOL    H7739417   6.859   3.465   6.510 -0.5191  2.2733 -0.8105
   71MOL    H7839418   6.799   3.277   6.274 -0.1875  0.3277 -1.4204
   71MOL    H7939419   6.795   3.444   6.263 -0.4133  0.7949  1.6170
   71MOL    H8039420   6.994   3.376   6.172  0.1316 -2.6563  0.1847
   71MOL    H8139421   7.047   3.451   6.323 -0.3045 -0.4073  0.6762
   71MOL    H8239422   7.201   3.114   6.477 -0.5863 -1.8994  1.6414
   71MOL    H8339423   7.335   2.936   6.559 -0.3037  0.8958 -0.0148
   71MOL    H8439424   7.259   2.707   6.192 -0.5838 -0.9309  0.3408
   71MOL    H8539425   7.137   2.917   6.100 -1.7611  1.0422 -0.5481
   71MOL    O8639426   7.445   2.715   6.549 -0.0873 -0.2661  0.4594
   71MOL    C8739427   7.503   2.606   6.618  0.5075  0.6305 -0.8277
   71MOL    C8839428   7.535   2.638   6.759 -0.3434  0.0320 -0.5908
   71MOL    C8939429   7.408   2.653   6.842  0.2013 -0.0138 -0.0978
   71MOL    C9039430   7.436   2.666   6.996  0.6447 -0.1393  0.4777
   71MOL    O9139431   7.313   2.712   7.061  0.0278  0.3907 -0.5138
   71MOL    C9239432   7.301   2.696   7.200  0.8245 -0.5332  0.0011
   71MOL    O9339433   7.382   2.645   7.274 -0.1437 -0.2819  0.4231
   71MOL    C9439434   7.167   2.744   7.249 -0.0691  0.2458  0.6270
   71MOL    C9539435   7.108   2.865   7.202  0.5319  0.4990  0.1039
   71MOL    C9639436   6.986   2.910   7.245  0.1529 -0.4854 -0.3390
   71MOL    C9739437   6.916   2.830   7.338  0.0345 -0.0312 -0.1654
   71MOL    C9839438   6.786   2.874   7.394 -0.5040  0.6777  0.1320
   71MOL    O9939439   6.721   2.813   7.482  0.1903  0.5488  0.3492
   71MOL   C10039440   6.979   2.717   7.390  0.5210  0.3279  0.9032
   71MOL   C10139441   7.102   2.669   7.342  0.1603 -0.0524 -0.4326
   71MOL   H10239442   7.444   2.515   6.618  1.6252 -0.1021 -0.8905
   71MOL   H10339443   7.600   2.573   6.580  0.7566  0.6155 -0.1947
   71MOL   H10439444   7.576   2.739   6.746 -1.2737  0.3444 -1.0982
   71MOL   H10539445   7.606   2.574   6.811 -3.6191 -3.2861 -0.0765
   71MOL   H10639446   7.364   2.749   6.814 -0.2091 -0.5257 -1.2415
   71MOL   H10739447   7.344   2.568   6.818  0.1221  0.3779 -1.3209
   71MOL   H10839448   7.468   2.570   7.036 -0.8829 -0.6186  0.6064
   71MOL   H10939449   7.513   2.739   7.019  1.5625 -1.0536  0.3366
   71MOL   H11039450   7.165   2.919   7.128  0.1726 -0.1639 -0.6734
   71MOL   H11139451   6.940   2.998   7.203  0.7103  0.9380  1.9302
   71MOL   H11239452   6.931   2.660   7.468 -0.5273 -1.6230 -1.1300
   71MOL   H11339453   7.148   2.585   7.390 -0.0053 -0.6261 -1.2605
   71MOL   O11439454   6.749   2.993   7.352  0.6320 -0.3673  0.3641
   71MOL   C11539455   6.640   3.057   7.414 -0.4150 -0.1202  0.1132
   71MOL   C11639456   6.681   3.155   7.523  0.1078 -0.2749  0.4047
   71MOL   C11739457   6.806   3.239   7.494  0.5775 -0.7613 -1.0355
   71MOL   C11839458   6.813   3.315   7.363  0.3152  0.1474 -0.6642
   71MOL   O11939459   6.731   3.432   7.371 -0.0571 -0.4189 -0.3547
   71MOL   C12039460   6.722   3.513   7.267  0.8747 -0.3407  1.2583
   71MOL   O12139461   6.776   3.495   7.161 -0.1315 -0.5107 -0.5919
   71MOL   C12239462   6.623   3.622   7.292  0.1546 -0.0937  0.0220
   71MOL   C12339463   6.534   3.629   7.406 -0.4450  0.0761 -0.3135
   71MOL   C12439464   6.427   3.719   7.416 -0.4165  0.7675  0.3871
   71MOL   C12539465   6.410   3.823   7.323 -1.1513  0.4004  0.0265
   71MOL   C12639466   6.313   3.928   7.346 -0.6378  0.4953  0.2246
   71MOL   O12739467   6.322   4.038   7.290  0.2474  0.1025 -0.6148
   71MOL   C12839468   6.497   3.820   7.209  0.1166  0.2696 -0.2712
   71MOL   C12939469   6.598   3.720   7.195  0.0563  0.4815  0.0446
   71MOL   H13039470   6.590   3.122   7.342 -0.1573 -0.7678 -0.6526
   71MOL   H13139471   6.560   2.989   7.443  0.1152 -0.5389  0.6145
   71MOL   H13239472   6.691   3.106   7.619 -1.7280 -0.1605  0.6679
   71MOL   H13339473   6.602   3.230   7.534 -1.1519 -1.3539 -1.1199
   71MOL   H13439474   6.817   3.313   7.573 -0.6031 -0.5621 -1.0488
   71MOL   H13539475   6.893   3.176   7.510  1.4729  0.3053 -1.6022
   71MOL   H13639476   6.917   3.342   7.347  1.0576 -1.8576  0.6018
   71MOL   H13739477   6.769   3.264   7.277  1.6475  0.1009 -1.3294
   71MOL   H13839478   6.544   3.546   7.474  1.0073 -0.0518 -0.6778
   71MOL   H13939479   6.346   3.712   7.488 -0.3104 -0.3526  0.4050
   71MOL   H14039480   6.465   3.886   7.129 -0.9447 -3.0989 -2.7401
   71MOL   H14139481   6.643   3.721   7.097 -1.9689  0.4984 -0.9093
   71MOL   O14239482   6.210   3.891   7.421  0.1677 -0.1320  0.1018
   71MOL   C14339483   6.087   3.969   7.427 -1.0482  0.4699  0.2424
   71MOL   C14439484   5.993   3.899   7.324  0.0484 -0.0259  1.0166
   71MOL   C14539485   5.857   3.974   7.325 -0.8090  0.2244 -0.7141
   71MOL   C14639486   5.765   3.963   7.200  0.2002  0.0485  0.9563
   71MOL   O14739487   5.781   3.836   7.146 -0.3933 -0.2465 -0.4170
   71MOL   C14839488   5.707   3.726   7.178 -0.2247 -0.3252 -0.6756
   71MOL   O14939489   5.620   3.724   7.270  0.4636  0.8913 -0.1365
   71MOL   C15039490   5.741   3.608   7.097 -0.2928 -0.0646  0.1143
   71MOL   C15139491   5.831   3.615   6.982 -0.3953  0.8560 -0.2095
   71MOL   C15239492   5.870   3.504   6.911  0.7060 -0.1139 -0.3320
   71MOL   C15339493   5.815   3.383   6.943 -0.0804  0.4270 -0.1596
   71MOL   C15439494   5.851   3.260   6.869  0.6555  0.3838 -0.0085
   71MOL   O15539495   5.827   3.146   6.912 -0.2826  0.5847  0.4089
   71MOL   C15639496   5.721   3.370   7.046 -0.1624 -0.4350 -0.2738
   71MOL   C15739497   5.688   3.481   7.127  0.3985 -0.6537  0.0933
   71MOL   H15839498   6.049   3.964   7.529  1.6870  0.6138  1.3177
   71MOL   H15939499   6.116   4.072   7.410  0.5679 -0.1496 -0.8374
   71MOL   H16039500   5.968   3.804   7.371  1.2480  0.3414  2.4525
   71MOL   H16139501   6.046   3.888   7.229 -0.1266 -1.9302  1.1191
   71MOL   H16239502   5.805   3.945   7.417  1.7075  0.2414  0.7739
   71MOL   H16339503   5.875   4.081   7.334  1.0423 -0.1949  0.8771
   71MOL   H16439504   5.660   3.976   7.227  0.2990  0.6632  1.0425
   71MOL   H16539505   5.797   4.033   7.123 -1.3495 -1.3987 -1.0780
   71MOL   H16639506   5.875   3.710   6.953  2.1725  0.5336  2.5141
   71MOL   H16739507   5.945   3.514   6.835  0.0972  2.0734 -0.6919
   71MOL   H16839508   5.679   3.274   7.071 -1.5324  0.5660  1.4272
   71MOL   H16939509   5.626   3.470   7.214 -1.5740  1.6045 -0.9814
   71MOL   O17039510   5.915   3.279   6.751  0.5094 -0.3230 -0.1057
   71MOL   C17139511   5.923   3.178   6.652 -0.2717 -1.0341  0.6605
   71MOL   C17239512   6.046   3.214   6.561  0.9097 -0.1052  0.1419
   71MOL   C17339513   5.998   3.287   6.435  0.8677  0.0774 -0.2117
   71MOL   C17439514   6.117   3.312   6.348  0.4132  0.2752 -0.3572
   71MOL   O17539515   6.083   3.334   6.214 -0.7473 -0.1041  0.1417
   71MOL   C17639516   6.177   3.356   6.121  0.2630  0.8554  0.8580
   71MOL   O17739517   6.298   3.364   6.144 -0.4341 -0.0069  0.0809
   71MOL   C17839518   6.127   3.377   5.979  0.5959  0.4222  0.2808
   71MOL   C17939519   6.218   3.363   5.864  0.6196 -0.4052  0.6654
   71MOL   C18039520   6.165   3.371   5.735  0.5901 -0.0884 -0.1480
   71MOL   C18139521   6.027   3.399   5.709  0.2671 -0.5046 -0.3441
   71MOL   C18239522   5.972   3.416   5.569 -0.0691  0.5641  0.0301
   71MOL   O18339523   6.045   3.416   5.470  0.0212  0.5903  0.0229
   71MOL   C18439524   5.940   3.419   5.819 -0.0679 -0.7250 -0.0744
   71MOL   C18539525   5.987   3.402   5.952 -0.0394  0.5749 -0.5984
   71MOL   H18639526   5.944   3.079   6.693  0.0323 -1.0158  0.5502
   71MOL   H18739527   5.831   3.174   6.594 -0.1455  2.6853  0.1004
   71MOL   H18839528   6.092   3.123   6.523  1.1119 -0.0686  0.3002
   71MOL   H18939529   6.119   3.279   6.609 -0.7105  3.4794 -2.0376
   71MOL   H19039530   5.923   3.231   6.380 -0.6461  2.4644 -0.6772
   71MOL   H19139531   5.947   3.382   6.453 -0.9131 -0.7437 -0.8841
   71MOL   H19239532   6.177   3.392   6.393 -0.1637 -0.5664  2.0261
   71MOL   H19339533   6.184   3.226   6.347  0.3820  0.1354  2.7165
   71MOL   H19439534   6.322   3.342   5.883  1.2846  2.2989  0.1038
   71MOL   H19539535   6.222   3.360   5.644 -1.2278 -0.5000 -1.2581
   71MOL   H19639536   5.836   3.445   5.809 -0.6327 -3.0220 -0.3990
   71MOL   H19739537   5.917   3.409   6.033 -0.4675 -0.5818 -0.8602
   71MOL   O19839538   5.837   3.432   5.560  0.1576 -0.3447 -0.1565
   71MOL   C19939539   5.770   3.452   5.438 -0.0680 -0.2950  0.1953
   71MOL   C20039540   5.684   3.336   5.396 -0.7408 -0.1028  0.4472
   71MOL   C20139541   5.761   3.222   5.352  0.6542  0.0736 -0.0489
   71MOL   C20239542   5.684   3.088   5.355  0.1292  0.2140 -0.1520
   71MOL   O20339543   5.573   3.105   5.272  0.1068  0.0018 -0.4410
   71MOL   C20439544   5.481   3.006   5.269  0.3716 -0.4095 -0.4455
   71MOL   O20539545   5.498   2.896   5.329 -0.0012 -0.2518  0.8569
   71MOL   C20639546   5.361   3.028   5.180  0.3191 -0.1429 -0.5879
   71MOL   C20739547   5.290   2.917   5.127 -0.3352  0.6478  0.1381
   71MOL   C20839548   5.177   2.929   5.037 -0.2649 -0.3216 -0.3234
   71MOL   C20939549   5.137   3.059   4.994  0.4659  0.0557  1.2052
   71MOL   C21039550   5.029   3.079   4.891  0.7746  0.2073 -0.3813
   71MOL   O21139551   5.008   3.183   4.829  0.1103 -0.3342 -1.0586
   71MOL   C21239552   5.212   3.170   5.041  0.9781 -0.0145 -0.3768
   71MOL   C21339553   5.319   3.159   5.136 -0.5304  0.0127  0.3856
   71MOL   H21439554   5.697   3.532   5.454 -0.6806 -0.9171  0.5700
   71MOL   H21539555   5.841   3.490   5.364  0.6852 -1.7264  0.1605
   71MOL   H21639556   5.602   3.357   5.328 -0.3241  2.2929  0.6324
   71MOL   H21739557   5.638   3.293   5.485 -0.5516 -2.5370 -0.6009
   71MOL   H21839558   5.794   3.241   5.250  0.6280 -0.3777 -0.1396
   71MOL   H21939559   5.847   3.209   5.418 -0.2166 -1.8423  0.7330
   71MOL   H22039560   5.745   3.004   5.321 -1.6234 -0.5718 -1.4249
   71MOL   H22139561   5.650   3.066   5.457 -0.0360  0.4309 -0.1586
   71MOL   H22239562   5.328   2.819   5.152 -5.4925 -1.3799  0.6006
   71MOL   H22339563   5.131   2.838   5.001  1.1928 -0.3657 -2.1391
   71MOL   H22439564   5.196   3.263   4.988  2.0832 -0.6893 -1.9240
   71MOL   H22539565   5.372   3.249   5.165  1.6182 -1.3819  0.9047
   71MOL   O22639566   4.969   2.958   4.852  0.0729  0.9848  0.0068
   71MOL   C22739567   4.870   2.945   4.751  0.3827  0.2168  0.5462
   71MOL   C22839568   4.731   3.000   4.792  0.3918  0.8560 -0.1159
   71MOL   C22939569   4.640   3.008   4.672 -0.0376 -0.1956  0.3541
   71MOL   C23039570   4.503   3.062   4.707 -0.4708 -0.0970 -0.5789
   71MOL   O23139571   4.434   3.111   4.593 -0.0522 -0.3617  0.4322
   71MOL   C23239572   4.453   3.233   4.537  0.4856 -0.4089  0.1262
   71MOL   O23339573   4.534   3.313   4.584  0.2121 -0.1239  0.0685
   71MOL   C23439574   4.355   3.255   4.432 -0.6809 -0.1088 -0.7853
   71MOL   C23539575   4.312   3.387   4.412  0.2556 -0.6980  0.3336
   71MOL   C23639576   4.204   3.411   4.324  0.2581 -0.0661 -0.4795
   71MOL   C23739577   4.149   3.311   4.243  0.4701 -0.4924  0.2055
   71MOL   C23839578   4.051   3.336   4.133 -0.6014  0.4538 -0.2824
   71MOL   O23939579   3.997   3.445   4.121  0.6212  0.1567  0.2750
   71MOL   C24039580   4.194   3.178   4.267 -0.2124 -0.6406 -0.0908
   71MOL   C24139581   4.304   3.144   4.358 -0.2336 -0.2314 -0.7631
   71MOL   H24239582   4.910   2.982   4.657 -0.2019  0.7112  0.4938
   71MOL   H24339583   4.865   2.836   4.743  1.8501 -0.0189  2.3605
   71MOL   H24439584   4.739   3.102   4.827  2.5871  1.8465 -3.3012
   71MOL   H24539585   4.682   2.932   4.863  0.7477  0.9882  0.2592
   71MOL   H24639586   4.678   3.083   4.603 -2.0078  2.0709  1.6549
   71MOL   H24739587   4.622   2.918   4.612 -1.8076  0.4914 -0.1946
   71MOL   H24839588   4.445   2.983   4.754  1.1144  0.3097  2.2536
   71MOL   H24939589   4.517   3.149   4.772  0.7352  0.2210 -1.2341
   71MOL   H25039590   4.371   3.461   4.464  0.0566 -0.4218  0.1713
   71MOL   H25139591   4.172   3.512   4.303  0.4911 -0.1956 -1.4492
   71MOL   H25239592   4.143   3.099   4.213 -0.5609 -1.0040  0.7690
   71MOL   H25339593   4.343   3.044   4.370  0.6798  0.1208 -0.7643
   71MOL   O25439594   4.026   3.234   4.051  0.2620 -0.4465  0.0028
   71MOL   C25539595   3.926   3.246   3.952  0.6220 -0.1512 -0.0684
   71MOL   C25639596   3.916   3.112   3.872  0.0160  0.2912  0.0456
   71MOL   C25739597   4.043   3.091   3.788  0.5098 -0.3312 -0.9716
   71MOL   C25839598   4.037   2.967   3.700  0.4031 -0.6286  0.1034
   71MOL   O25939599   4.055   2.849   3.773 -0.5551  0.5814  0.1664
   71MOL   C26039600   4.167   2.773   3.759 -0.1880 -0.4080 -0.1612
   71MOL   O26139601   4.267   2.801   3.691  0.3587 -0.3254  0.3927
   71MOL   C26239602   4.156   2.647   3.843  0.2385 -0.2847  0.2733
   71MOL   C26339603   4.232   2.536   3.805  1.1887  0.3445 -0.8022
   71MOL   C26439604   4.210   2.411   3.867  0.0367  0.0749  0.6346
   71MOL   C26539605   4.118   2.398   3.975 -0.3742 -0.3810 -0.1288
   71MOL   C26639606   4.097   2.281   4.053  0.2007  0.2499 -0.4663
   71MOL   O26739607   4.054   2.283   4.168  0.9843 -0.3401 -0.0798
   71MOL   C26839608   4.041   2.510   4.017  0.1019 -0.1864 -0.9424
   71MOL   C26939609   4.055   2.631   3.946  0.2125  0.1452 -0.0146
   71MOL   H27039610   3.833   3.262   4.006  0.9815  0.7752  0.2883
   71MOL   H27139611   3.947   3.331   3.888  0.9423 -0.2946 -0.1522
   71MOL   H27239612   3.831   3.121   3.805 -0.6885 -0.4023  0.8386
   71MOL   H27339613   3.912   3.039   3.953  0.6023  1.6619  1.3352
   71MOL   H27439614   4.054   3.181   3.729  0.0537  1.2621  1.3215
   71MOL   H27539615   4.124   3.066   3.856  0.3802 -2.4730 -1.5625
   71MOL   H27639616   3.943   2.971   3.646  0.5493 -0.3286 -0.1351
   71MOL   H27739617   4.107   2.972   3.617 -2.3108 -1.5089 -2.2746
   71MOL   H27839618   4.307   2.544   3.727  1.1161  1.1454 -0.7937
   71MOL   H27939619   4.275   2.328   3.844 -0.2828 -0.6765  2.4208
   71MOL   H28039620   3.972   2.503   4.099  0.3990  0.7774 -0.6077
   71MOL   H28139621   3.990   2.717   3.957 -0.2578 -0.2406  0.2031
   71MOL   O28239622   4.133   2.168   3.994 -0.0661  0.2872  0.0047
   71MOL   C28339623   4.133   2.033   4.038 -0.5218 -0.5681  0.6473
   71MOL   C28439624   4.277   1.993   4.045 -0.8378 -0.4051  0.7143
   71MOL   C28539625   4.291   1.850   4.098  0.6511 -0.0464 -0.1697
   71MOL   C28639626   4.439   1.816   4.108 -0.0332  0.2975  0.6552
   71MOL   O28739627   4.505   1.791   3.986  0.6335  0.0087  1.2245
   71MOL   C28839628   4.550   1.668   3.958 -0.0827 -0.4535 -0.6374
   71MOL   O28939629   4.514   1.563   4.010 -0.3211 -0.0909  0.4103
   71MOL   C29039630   4.660   1.673   3.858  0.3371 -0.2818  0.2302
   71MOL   C29139631   4.712   1.798   3.814 -0.4105  0.2855  0.0086
   71MOL   C29239632   4.806   1.804   3.708  0.0090  0.4225 -0.2318
   71MOL   C29339633   4.863   1.687   3.646  0.3817  0.1357  0.1576
   71MOL   C29439634   4.946   1.704   3.532 -0.8567 -0.7120  0.1217
   71MOL   O29539635   4.992   1.810   3.493  0.2727  0.1096  0.0152
   71MOL   C29639636   4.809   1.564   3.695 -0.7162 -0.4778 -0.3970
   71MOL   C29739637   4.712   1.554   3.798  0.3117  0.6710  0.7199
   71MOL   H29839638   4.080   2.028   4.132  0.3959  0.0451  1.2035
   71MOL   H29939639   4.075   1.977   3.964 -1.4605 -1.2341  1.8725
   71MOL   H30039640   4.338   2.066   4.098 -0.9749  1.4458 -1.6046
   71MOL   H30139641   4.311   1.996   3.941 -1.2544 -0.3470  0.5798
   71MOL   H30239642   4.247   1.833   4.197  0.4463 -0.4582 -0.3309
   71MOL   H30339643   4.245   1.776   4.033  2.6693 -0.8876 -0.6707
   71MOL   H30439644   4.496   1.891   4.163  1.4531 -0.9120  0.7958
   71MOL   H30539645   4.438   1.732   4.178  0.3918 -0.6858 -0.4905
   71MOL   H30639646   4.694   1.895   3.857 -1.3858  0.5975 -1.0677
   71MOL   H30739647   4.842   1.900   3.675  3.0068  0.1119  1.8311
   71MOL   H30839648   4.849   1.473   3.651  1.2367 -0.5177  1.3854
   71MOL   H30939649   4.670   1.460   3.831  1.6191  0.9032  3.1365
   71MOL   O31039650   4.976   1.588   3.472  0.5736 -0.3390 -0.3805
   71MOL   C31139651   5.060   1.587   3.355 -0.6968  0.0074 -0.7364
   71MOL   C31239652   4.975   1.594   3.232 -0.0476  0.6594 -0.0961
   71MOL   C31339653   4.876   1.472   3.218 -0.3734 -0.7082 -0.0759
   71MOL   C31439654   4.804   1.482   3.087  0.1233  0.5440  0.2677
   71MOL   O31539655   4.728   1.362   3.082 -0.0060  0.1051 -0.5994
   71MOL   C31639656   4.731   1.282   2.971  0.2433  0.0457  0.7591
   71MOL   O31739657   4.784   1.322   2.862  0.1500  0.3692 -0.4672
   71MOL   C31839658   4.638   1.161   2.978 -0.5781 -0.1123  0.9246
   71MOL   C31939659   4.580   1.100   2.866 -0.7185 -0.7736 -0.1428
   71MOL   C32039660   4.502   0.985   2.881  0.2850 -0.0309 -0.5508
   71MOL   C32139661   4.470   0.934   3.008 -0.0572  0.4137 -0.4688
   71MOL   C32239662   4.389   0.806   3.025  0.3919 -0.2396  0.0851
   71MOL   O32339663   4.297   0.766   2.944 -1.1129 -0.2980  0.2604
   71MOL   C32439664   4.527   0.994   3.118 -0.3726 -0.1777 -0.5595
   71MOL   C32539665   4.608   1.109   3.103 -0.2944  0.0775 -0.3903
   71MOL   H32639666   5.134   1.667   3.357  3.0797 -3.2431 -1.6717
   71MOL   H32739667   5.123   1.498   3.352  1.3036  1.3487  0.1155
   71MOL   H32839668   5.033   1.596   3.140 -0.4476  0.1080 -0.3616
   71MOL   H32939669   4.915   1.684   3.242  0.4270  0.6958  3.1326
   71MOL   H33039670   4.935   1.381   3.227  0.9088  0.1070 -0.0113
   71MOL   H33139671   4.809   1.476   3.304 -1.7607 -0.7855 -1.1479
   71MOL   H33239672   4.735   1.566   3.083  0.0936  0.4922 -0.5947
   71MOL   H33339673   4.861   1.497   2.995 -0.8759 -0.1995 -0.4920
   71MOL   H33439674   4.608   1.128   2.765 -1.3291 -1.0948 -0.4041
   71MOL   H33539675   4.483   0.918   2.799  2.3887  1.4709 -2.3203
   71MOL   H33639676   4.513   0.957   3.218 -0.2276  0.4789 -0.2886
   71MOL   H33739677   4.638   1.154   3.196 -0.8435 -1.8470  0.7621
   71MOL   O33839678   4.428   0.739   3.131  0.8037  0.7258  0.1873
   71MOL   C33939679   4.361   0.619   3.171  0.5881 -0.9915  0.0920
   71MOL   C34039680   4.382   0.601   3.319 -0.0292 -0.4830  0.2907
   71MOL   C34139681   4.335   0.472   3.385  0.0958 -0.5838 -0.1034
   71MOL   C34239682   4.185   0.433   3.374  0.3169 -0.0538 -0.1224
   71MOL   O34339683   4.179   0.299   3.421  0.8491  0.2747 -0.6543
   71MOL   C34439684   4.108   0.254   3.524 -0.2272  0.6557 -0.1245
   71MOL   O34539685   4.042   0.332   3.592  0.2297 -0.1030  0.7019
   71MOL   C34639686   4.125   0.106   3.550 -0.2901  0.2446  0.1299
   71MOL   C34739687   4.194   0.019   3.463  0.2235  0.2068 -0.0578
   71MOL   C34839688   4.214   7.981   3.494 -0.6168 -0.1142  0.2956
   71MOL   C34939689   4.170   7.931   3.618 -0.2698  0.4489  0.7970
   71MOL   C35039690   4.176   7.786   3.651  1.0019  0.0767 -0.5299
   71MOL   O35139691   4.139   7.736   3.756 -0.7292  0.2720  0.6718
   71MOL   C35239692   4.094   8.016   3.705  0.3649 -0.7500  0.6087
   71MOL   C35339693   4.074   0.049   3.670  1.0620 -0.2649  0.2563
   71MOL   H35439694   4.258   0.637   3.141  0.5384 -3.0545 -1.0635
   71MOL   H35539695   4.389   0.531   3.113  1.8419 -0.2282 -0.4628
   71MOL   H35639696   4.352   0.685   3.383 -2.8267 -0.7072 -0.6638
   71MOL   H35739697   4.491   0.597   3.324  0.2029  2.4420 -1.0099
   71MOL   H35839698   4.396   0.386   3.362  0.0292 -0.8624  0.7352
   71MOL   H35939699   4.349   0.483   3.493 -1.6417  0.2491  0.0681
   71MOL   H36039700   4.123   0.504   3.429 -0.8309  1.2627 -3.0266
   71MOL   H36139701   4.160   0.438   3.269  0.1264  0.7001 -0.0447
   71MOL   H36239702   4.242   0.059   3.375 -1.1537  0.1955 -0.8312
   71MOL   H36339703   4.252   7.911   3.421 -3.5027 -0.1276 -1.2669
   71MOL   H36439704   4.055   7.990   3.802 -1.8572  2.6714  0.7544
   71MOL   H36539705   4.019   0.117   3.734 -0.4001 -0.0124 -1.2263
   71MOL   O36639706   4.226   7.709   3.552 -0.7047 -0.4808 -0.2568
   71MOL   C36739707   4.244   7.571   3.568  0.7348 -0.2544  0.0924
   71MOL   C36839708   4.340   7.515   3.455 -0.0125 -0.0829 -0.0823
   71MOL   C36939709   4.485   7.578   3.462  0.2623  0.4023 -0.2746
   71MOL   C37039710   4.493   7.715   3.403 -0.3066 -0.6627  0.1634
   71MOL   O37139711   4.629   7.755   3.407  0.1674  0.2995 -0.0075
   71MOL   C37239712   4.668   7.869   3.344 -0.0690 -0.2513 -0.3329
   71MOL   O37339713   4.586   7.956   3.324 -0.4037  0.3852 -0.2012
   71MOL   C37439714   4.808   7.873   3.299 -0.8274 -0.3382  0.6304
   71MOL   C37539715   4.848   7.977   3.210 -0.5476  0.3314 -0.2360
   71MOL   C37639716   4.986   7.983   3.179  0.2295  0.1765  0.8499
   71MOL   C37739717   5.083   7.897   3.223 -0.6059 -0.1121  0.2521
   71MOL   C37839718   5.221   7.908   3.163  0.2152 -0.0274 -0.3390
   71MOL   O37939719   5.258   7.996   3.087 -0.1131  0.7936 -0.3576
   71MOL   C38039720   5.042   7.787   3.304  0.5910 -0.2896  0.4649
   71MOL   C38139721   4.905   7.778   3.342 -0.0291  0.3458 -0.2615
   71MOL   H38239722   4.301   7.554   3.659  0.3332  1.6390  0.7175
   71MOL   H38339723   4.154   7.510   3.581  1.4158 -0.4434  4.4804
   71MOL   H38439724   4.308   7.540   3.354  2.6238  0.6880 -0.7572
   71MOL   H38539725   4.359   7.408   3.466  1.1000  0.2946  1.8479
   71MOL   H38639726   4.511   7.580   3.568 -0.2186  0.3980 -0.1526
   71MOL   H38739727   4.565   7.519   3.418  1.3020  1.1420  0.6039
   71MOL   H38839728   4.460   7.708   3.300  0.2662  0.3848 -0.0884
   71MOL   H38939729   4.420   7.784   3.446  0.0638 -1.1711  1.6654
   71MOL   H39039730   4.775   8.046   3.171 -0.0132  1.4908  0.7801
   71MOL   H39139731   5.010   8.063   3.111 -0.0476  1.7815  2.6052
   71MOL   H39239732   5.111   7.705   3.320 -0.3386 -1.2591 -0.4299
   71MOL   H39339733   4.861   7.705   3.409 -0.3220  1.9245  1.3078
   71MOL   O39439734   5.297   7.803   3.207 -0.3954 -0.3205 -0.2288
   71MOL   C39539735   5.424   7.793   3.152 -0.7514 -0.4529  0.1873
   71MOL   C39639736   5.507   7.709   3.244  0.0714 -1.3741  0.7289
   71MOL   C39739737   5.651   7.698   3.203  0.3093 -0.4061  0.5764
   71MOL   C39839738   5.737   7.619   3.299 -0.5569 -0.4136  0.4493
   71MOL   O39939739   5.863   7.610   3.229  0.1173  0.4734 -0.5163
   71MOL   C40039740   5.900   7.496   3.170 -0.3024 -0.0668  0.1757
   71MOL   O40139741   5.837   7.390   3.170 -0.4653 -0.5034 -0.6548
   71MOL   C40239742   6.030   7.503   3.095  0.4246  1.1934 -0.5674
   71MOL   C40339743   6.109   7.620   3.092 -0.6671 -0.2544  0.0473
   71MOL   C40439744   6.233   7.634   3.021 -0.0846 -0.0882 -0.2810
   71MOL   C40539745   6.279   7.520   2.944 -0.1231  0.0301  0.7639
   71MOL   C40639746   6.404   7.530   2.863 -0.7190 -0.0406 -1.1565
   71MOL   O40739747   6.418   7.482   2.751  0.1905  0.5886 -0.4609
   71MOL   C40839748   6.200   7.397   2.946  0.6502 -0.4492  0.2032
   71MOL   C40939749   6.074   7.398   3.012 -0.1221 -0.2632 -0.1682
   71MOL   H41039750   5.428   7.745   3.054  1.8112 -3.1100  1.5378
   71MOL   H41139751   5.474   7.888   3.133  1.7442 -1.8544 -0.5581
   71MOL   H41239752   5.479   7.604   3.253  1.8165 -1.7204  2.5937
   71MOL   H41339753   5.501   7.761   3.340 -0.6837  1.0813 -0.6358
   71MOL   H41439754   5.650   7.653   3.104 -2.1257  1.4642 -0.2827
   71MOL   H41539755   5.694   7.796   3.184  0.8496 -1.0012 -1.4645
   71MOL   H41639756   5.748   7.666   3.397 -1.7672  2.3687 -0.7103
   71MOL   H41739757   5.693   7.522   3.321 -0.9403 -0.3130  0.1129
   71MOL   H41839758   6.077   7.702   3.154  0.4939 -0.4893  0.9749
   71MOL   H41939759   6.287   7.727   3.032 -0.3737  0.0453  0.0103
   71MOL   H42039760   6.228   7.308   2.892 -1.6796 -1.4876  0.6571
   71MOL   H42139761   6.012   7.310   3.009  0.2901 -0.6575  2.0311
   71MOL   O42239762   6.499   7.603   2.928 -0.0777 -0.1023 -0.5361
   71MOL   C42339763   6.613   7.634   2.855 -0.0881  0.3665  0.9691
   71MOL   C42439764   6.700   7.737   2.939 -0.4192 -0.2083  0.0967
   71MOL   C42539765   6.807   7.664   3.026 -0.0935  0.1475 -0.0678
   71MOL   C42639766   6.934   7.746   3.053  0.0700 -0.1502  0.6117
   71MOL   O42739767   7.035   7.660   3.107  0.2240 -0.3216 -0.4312
   71MOL   C42839768   7.169   7.653   3.067  0.3762 -0.0097  0.2521
   71MOL   O42939769   7.209   7.713   2.965  0.2087  0.2429  0.3499
   71MOL   C43039770   7.249   7.564   3.154 -0.4839  0.1923  0.6149
   71MOL   C43139771   7.190   7.475   3.239  0.5304  0.5355  0.4829
   71MOL   C43239772   7.263   7.389   3.322 -0.7583  0.4805 -0.8644
   71MOL   C43339773   7.397   7.374   3.304 -0.5357  0.8787 -0.3474
   71MOL   C43439774   7.460   7.263   3.375 -0.6536  0.2532  0.1956
   71MOL   O43539775   7.409   7.152   3.390 -0.6017 -0.2240  0.7245
   71MOL   C43639776   7.464   7.460   3.208 -0.9350 -0.5505 -0.1506
   71MOL   C43739777   7.391   7.559   3.136  0.2528 -0.3239 -0.4989
   71MOL   H43839778   6.678   7.549   2.830  0.5175  1.4373 -1.1619
   71MOL   H43939779   6.574   7.693   2.773  2.1789 -1.0805 -1.2280
   71MOL   H44039780   6.636   7.803   2.998  1.6908  0.0189  2.2015
   71MOL   H44139781   6.750   7.810   2.876 -1.2309 -0.2145 -0.5734
   71MOL   H44239782   6.753   7.610   3.104 -1.6993 -0.0311 -1.2892
   71MOL   H44339783   6.841   7.585   2.959  5.8853  1.6201  0.9286
   71MOL   H44439784   6.969   7.793   2.961  2.6039 -3.0142  0.0470
   71MOL   H44539785   6.913   7.838   3.108 -0.8288  0.0001  0.0471
   71MOL   H44639786   7.084   7.466   3.257  0.7575 -0.1976  1.5254
   71MOL   H44739787   7.211   7.338   3.401 -0.4332  1.4482 -0.0194
   71MOL   H44839788   7.570   7.448   3.191 -0.9472 -1.0994  0.1361
   71MOL   H44939789   7.439   7.616   3.059 -2.4147 -1.8618 -3.4165
   71MOL   O45039790   7.590   7.283   3.416 -0.1357  0.1002  0.0276
   71MOL   C45139791   7.675   7.174   3.457  0.3755  0.4682  0.2954
   71MOL   C45239792   7.745   7.113   3.343 -0.0359 -0.4692  0.7071
   71MOL   C45339793   7.804   6.979   3.373 -0.2367 -0.0003 -0.3913
   71MOL   C45439794   7.937   6.999   3.456 -0.2351  0.2540 -0.7650
   71MOL   O45539795   8.005   6.876   3.473 -0.6890  0.5143 -0.9127
   71MOL   C45639796   7.971   6.800   3.584  0.0124  0.5324  0.2025
   71MOL   O45739797   7.887   6.829   3.674 -0.0690  0.9319 -0.4436
   71MOL   C45839798   8.058   6.680   3.585 -0.6974  0.3920 -0.1615
   71MOL   C45939799   8.021   6.570   3.672 -0.2414 -0.3156 -0.5979
   71MOL   C46039800   8.096   6.448   3.679  0.0316  0.1421  0.2057
   71MOL   C46139801   0.119   6.434   3.608 -0.4950 -0.2181  0.0071
   71MOL   C46239802   0.196   6.311   3.626 -0.2415  0.1928 -0.3145
   71MOL   O46339803   0.163   6.219   3.701  0.5715 -0.3308  0.1232
   71MOL   C46439804   0.154   6.543   3.524 -0.4793  0.0687 -1.1100
   71MOL   C46539805   0.083   6.666   3.516  0.1606 -0.4368 -0.4422
   71MOL   H46639806   7.745   7.205   3.535  0.9094  1.2198 -0.4768
   71MOL   H46739807   7.620   7.100   3.516  1.0007 -0.9548 -0.8802
   71MOL   H46839808   7.826   7.178   3.311 -1.9017  1.6224  0.1623
   71MOL   H46939809   7.670   7.099   3.266 -0.7734 -1.9376  1.6599
   71MOL   H47039810   7.728   6.924   3.427 -1.3388  2.3372  0.5093
   71MOL   H47139811   7.805   6.918   3.283  0.0375 -1.6341  0.7002
   71MOL   H47239812   8.015   7.056   3.405 -0.6307  3.3583  1.9524
   71MOL   H47339813   7.916   7.049   3.551  0.3343 -1.2028  0.1367
   71MOL   H47439814   7.935   6.577   3.737 -1.4919 -0.1502 -2.2389
   71MOL   H47539815   8.068   6.362   3.739  2.6583  0.4830  1.9683
   71MOL   H47639816   0.245   6.532   3.467  0.6929 -0.7025  0.8588
   71MOL   H47739817   0.113   6.739   3.442  0.3828 -0.8666 -0.7772
   71MOL   O47839818   0.300   6.300   3.542 -0.4572 -0.0767 -0.1452
   71MOL   C47939819   0.369   6.172   3.534  0.0837  0.1282 -0.6406
   71MOL   C48039820   0.295   6.076   3.439  0.1675 -0.2044  0.1198
   71MOL   C48139821   0.276   6.131   3.295  0.1908  0.3257 -0.4899
   71MOL   C48239822   0.221   6.033   3.188  0.2235 -0.4975 -0.2975
   71MOL   O48339823   0.085   6.004   3.213 -0.2423 -0.2261  0.5138
   71MOL   C48439824   0.020   5.914   3.129 -0.9484  0.6229 -0.3062
   71MOL   O48539825   0.078   5.825   3.061  0.2515 -0.6707 -0.3582
   71MOL   C48639826   7.973   5.930   3.136  0.6789 -0.2475 -0.1306
   71MOL   C48739827   7.890   5.874   3.039 -0.5906 -0.3897 -0.0324
   71MOL   C48839828   7.748   5.885   3.037 -0.0920 -0.1077 -0.0949
   71MOL   C48939829   7.681   5.966   3.135  0.1943 -0.6446  0.0152
   71MOL   C49039830   7.538   6.005   3.120  0.2353 -0.3575 -0.2234
   71MOL   O49139831   7.469   5.962   3.024  0.4438 -0.5491 -0.7672
   71MOL   C49239832   7.764   6.022   3.239 -0.6076 -0.1841 -0.0246
   71MOL   C49339833   7.906   6.003   3.237  0.1229 -0.8120 -0.3673
   71MOL   H49439834   0.467   6.191   3.491  0.3252 -0.0114 -0.1627
   71MOL   H49539835   0.398   6.145   3.636 -0.1680  2.1445 -0.0188
   71MOL   H49639836   0.197   6.042   3.473 -0.8719  1.0835 -1.4975
   71MOL   H49739837   0.345   5.980   3.429 -1.6616 -1.0102 -1.6418
   71MOL   H49839838   0.237   6.232   3.291  0.4322  0.4275 -0.3024
   71MOL   H49939839   0.380   6.152   3.270  0.1849  1.8464  0.7201
   71MOL   H50039840   0.225   6.080   3.090  1.1959 -0.4468 -0.2341
   71MOL   H50139841   0.292   5.951   3.189  0.6327 -0.1412  0.7788
   71MOL   H50239842   7.932   5.812   2.961 -1.7296 -0.0477 -0.9136
   71MOL   H50339843   7.697   5.845   2.950  0.3220 -0.7437 -0.0473
   71MOL   H50439844   7.720   6.082   3.317 -1.2986  2.3227 -2.2641
   71MOL   H50539845   7.964   6.062   3.307  0.2152  1.8420 -2.5797
   71MOL   O50639846   7.497   6.088   3.226  0.5830  0.2404 -0.4473
   71MOL   C50739847   7.361   6.135   3.235 -0.2848  0.3491  0.0200
   71MOL   C50839848   7.336   6.255   3.141 -0.2388  0.6138 -0.3802
   71MOL   C50939849   7.208   6.334   3.143 -0.2570 -0.3555  0.0132
   71MOL   C51039850   7.087   6.258   3.084 -0.6357  0.1355  0.1872
   71MOL   O51139851   7.049   6.163   3.185  0.3331  0.0862 -0.1816
   71MOL   C51239852   7.002   6.046   3.144 -0.1903  0.7824 -0.5300
   71MOL   O51339853   7.003   6.008   3.025  0.2480 -0.1717  0.2980
   71MOL   C51439854   6.957   5.964   3.262  0.0832 -0.4293 -0.8287
   71MOL   C51539855   6.995   6.004   3.396  0.2040  0.3820  0.2506
   71MOL   C51639856   6.929   5.939   3.503 -0.1944  0.4616  0.0763
   71MOL   C51739857   6.830   5.840   3.475 -0.3664  0.8465  1.4815
   71MOL   C51839858   6.762   5.766   3.583  0.4380  0.5015  0.2050
   71MOL   O51939859   6.805   5.771   3.701  0.2893  0.1700  0.1737
   71MOL   C52039860   6.810   5.789   3.343 -0.2160  0.4560 -0.4404
   71MOL   C52139861   6.864   5.855   3.236 -0.0701  0.0528  0.1616
   71MOL   H52239862   7.289   6.053   3.231  1.0999 -0.8380 -1.4104
   71MOL   H52339863   7.349   6.184   3.331  0.1899  1.5674 -0.5274
   71MOL   H52439864   7.368   6.223   3.041 -1.0664  0.5905 -0.6354
   71MOL   H52539865   7.415   6.325   3.168  0.1059 -0.1321  0.5656
   71MOL   H52639866   7.201   6.363   3.248 -1.5697  1.7024 -0.6244
   71MOL   H52739867   7.232   6.417   3.078 -1.8473 -0.7390 -1.0845
   71MOL   H52839868   6.995   6.314   3.067  0.8057  4.0090  4.1120
   71MOL   H52939869   7.108   6.224   2.983 -2.4709  1.5250 -0.7056
   71MOL   H53039870   7.067   6.084   3.410 -2.7396  3.6302 -2.1890
   71MOL   H53139871   6.945   5.963   3.607  1.7534 -0.8618  0.1084
   71MOL   H53239872   6.735   5.714   3.325 -0.6620  1.2479 -1.9733
   71MOL   H53339873   6.848   5.822   3.135  1.8421 -1.7301  0.4067
   71MOL   O53439874   6.675   5.677   3.540  0.0355 -0.1718 -0.2927
   71MOL   C53539875   6.603   5.591   3.628  0.0140  0.2016 -0.0761
   71MOL   C53639876   6.476   5.557   3.556 -0.4530  0.1389 -0.4136
   71MOL   C53739877   6.410   5.454   3.643  0.0064  0.3553  0.5275
   71MOL   C53839878   6.305   5.378   3.557  0.2792  0.5168 -0.1385
   71MOL   O53939879   6.208   5.472   3.536 -0.4642 -0.0499  0.2783
   71MOL   C54039880   6.098   5.432   3.456  1.0569  0.4612  0.4887
   71MOL   O54139881   6.083   5.317   3.401 -0.0428 -0.5684  0.0431
   71MOL   C54239882   6.002   5.543   3.458 -0.5188 -0.6227 -0.2748
   71MOL   C54339883   6.048   5.674   3.479 -0.8057  0.1567 -0.5070
   71MOL   C54439884   5.963   5.787   3.480  0.0220  0.4058 -0.4546
   71MOL   C54539885   5.828   5.766   3.457  0.2983 -0.2000 -0.1637
   71MOL   C54639886   5.734   5.874   3.449 -0.1117 -0.7822  0.1954
   71MOL   O54739887   5.741   5.987   3.501  0.4873 -0.3482  0.4083
   71MOL   C54839888   5.782   5.639   3.420 -0.3130 -0.1862 -0.3119
   71MOL   C54939889   5.870   5.528   3.421  0.9397  0.4358  0.1214
   71MOL   H55039890   6.662   5.500   3.638 -1.5697 -0.6578  1.5976
   71MOL   H55139891   6.584   5.631   3.727 -2.1504 -1.5406  0.2427
   71MOL   H55239892   6.514   5.527   3.458 -1.1434 -0.3507 -0.5345
   71MOL   H55339893   6.419   5.649   3.541 -0.3292  0.4558  1.0186
   71MOL   H55439894   6.477   5.375   3.679 -1.2003 -0.3016  1.3744
   71MOL   H55539895   6.356   5.482   3.733 -3.4241 -0.4331 -1.2174
   71MOL   H55639896   6.356   5.330   3.474  0.0961 -1.9457  1.1186
   71MOL   H55739897   6.255   5.297   3.610  0.8976  0.5423  0.4985
   71MOL   H55839898   6.154   5.690   3.493 -0.2247 -2.1067 -2.1255
   71MOL   H55939899   6.004   5.887   3.492 -1.7665  1.0430  0.5726
   71MOL   H56039900   5.688   5.624   3.368 -0.7987 -1.6063  0.9277
   71MOL   H56139901   5.835   5.429   3.396  1.7051  0.3964 -0.8594
   71MOL   H56239902   5.651   5.851   3.382 -1.6815  0.6046  1.6276
   72MOL     O139903   2.592   4.115   3.342 -0.4967  0.1185 -0.4019
   72MOL     C239904   2.554   3.985   3.355  0.2702  0.1860  0.2649
   72MOL     C339905   2.670   3.893   3.333 -0.0705  0.4121  0.6684
   72MOL     C439906   2.725   3.874   3.193 -0.4253  0.0572  0.5571
   72MOL     C539907   2.866   3.820   3.173 -0.1199 -0.6626  0.7350
   72MOL     O639908   2.880   3.785   3.036  0.5385 -0.1248  0.1793
   72MOL     C739909   2.981   3.844   2.968 -0.4715  0.6513 -0.0748
   72MOL     O839910   3.046   3.936   3.012 -0.4585  0.2710 -0.3664
   72MOL     C939911   3.013   3.776   2.831  0.5184 -0.3671 -0.9051
   72MOL    C1039912   2.945   3.656   2.801 -0.1110  0.1635  0.6388
   72MOL    C1139913   2.971   3.591   2.681 -0.0495  0.7020 -0.4691
   72MOL    C1239914   3.065   3.645   2.587  0.0606 -0.5084  1.1330
   72MOL    C1339915   3.074   3.577   2.455 -0.0309  0.5498 -0.2523
   72MOL    O1439916   3.000   3.482   2.422 -0.2380  0.3772 -0.0708
   72MOL    C1539917   3.129   3.764   2.622  0.6700  0.8307 -0.5783
   72MOL    C1639918   3.109   3.828   2.745 -0.1714 -0.3441 -0.2453
   72MOL    H1739919   2.523   3.966   3.457  0.8356  1.1960  0.6354
   72MOL    H1839920   2.470   3.958   3.292  2.0333  0.1071 -2.1461
   72MOL    H1939921   2.638   3.798   3.375 -0.9437  1.5257  2.5909
   72MOL    H2039922   2.748   3.941   3.392  0.8453  0.2519 -0.3937
   72MOL    H2139923   2.662   3.807   3.134  0.2493 -0.7197  0.7128
   72MOL    H2239924   2.702   3.972   3.150 -0.7937 -0.2136  0.1239
   72MOL    H2339925   2.935   3.889   3.221 -0.4259 -1.1048  1.8209
   72MOL    H2439926   2.882   3.724   3.222  1.4231 -0.3029  0.9378
   72MOL    H2539927   2.877   3.607   2.869 -1.3406  1.4243  0.3363
   72MOL    H2639928   2.918   3.499   2.663 -0.1310  0.0861  2.7347
   72MOL    H2739929   3.202   3.814   2.560  1.3053 -0.4934 -0.8977
   72MOL    H2839930   3.166   3.915   2.775 -3.3616  1.4984  0.6766
   72MOL    H2939931   2.522   4.164   3.302 -1.1105  0.1432  0.6796
   72MOL    O3039932   3.173   3.625   2.381  0.1136  0.1105  0.3966
   72MOL    C3139933   3.206   3.594   2.249  0.2155  0.4029  0.1148
   72MOL    C3239934   3.334   3.495   2.248 -0.1125  0.0457  0.8342
   72MOL    C3339935   3.465   3.579   2.266  0.1342  1.1352 -0.1635
   72MOL    C3439936   3.526   3.624   2.134 -0.1021 -0.1051  0.1965
   72MOL    O3539937   3.644   3.703   2.159  0.1477 -0.2632 -0.2469
   72MOL    C3639938   3.728   3.740   2.057  0.9991 -0.0579 -0.0206
   72MOL    O3739939   3.704   3.723   1.941 -0.6842  0.0617 -0.4174
   72MOL    C3839940   3.855   3.815   2.102  1.1917  0.1818  0.6092
   72MOL    C3939941   3.982   3.809   2.037  0.0241  0.4414  0.0959
   72MOL    C4039942   4.091   3.880   2.089  0.7321  0.5025 -0.0660
   72MOL    C4139943   4.073   3.953   2.208  0.0211  0.7370 -0.7219
   72MOL    C4239944   4.189   4.034   2.264 -0.1648  0.1687  0.2260
   72MOL    O4339945   4.180   4.122   2.346  0.7394 -0.3146 -0.5288
   72MOL    C4439946   3.952   3.951   2.281  0.4285 -0.1989 -0.0253
   72MOL    C4539947   3.842   3.888   2.226 -0.5585  0.3190 -0.7030
   72MOL    H4639948   3.119   3.554   2.198  1.2416  0.5653 -1.8071
   72MOL    H4739949   3.240   3.685   2.199  1.1985  0.4310  0.8158
   72MOL    H4839950   3.348   3.428   2.163 -1.7422 -0.2128  0.7574
   72MOL    H4939951   3.321   3.433   2.337  0.6048 -1.4566 -0.0758
   72MOL    H5039952   3.445   3.663   2.332  0.1939  2.1243 -1.3891
   72MOL    H5139953   3.536   3.508   2.310 -0.7183 -0.5309 -1.4096
   72MOL    H5239954   3.545   3.538   2.068 -1.1323  0.8949 -1.4339
   72MOL    H5339955   3.448   3.677   2.081 -1.6081 -0.2464  2.2356
   72MOL    H5439956   3.989   3.757   1.942 -0.3444 -0.0355  0.3257
   72MOL    H5539957   4.187   3.877   2.039  0.8254 -2.2629  0.2296
   72MOL    H5639958   3.942   3.994   2.379 -0.3885 -1.7705  0.5984
   72MOL    H5739959   3.747   3.897   2.276 -1.0890  1.2693 -1.8866
   72MOL    O5839960   4.303   4.002   2.199  0.0755 -0.0631  0.2850
   72MOL    C5939961   4.419   4.088   2.214  0.3967  0.4612 -0.5473
   72MOL    C6039962   4.397   4.205   2.125  0.2967 -0.3816  0.3898
   72MOL    C6139963   4.417   4.162   1.975 -0.1555 -0.2206 -0.3593
   72MOL    C6239964   4.357   4.265   1.882 -0.3640  0.0596 -0.4199
   72MOL    O6339965   4.216   4.245   1.886 -0.1174 -0.5159 -0.0257
   72MOL    C6439966   4.137   4.332   1.834  0.2674  0.1857  0.0229
   72MOL    O6539967   4.179   4.439   1.791  0.6132  0.0174 -0.4341
   72MOL    C6639968   3.996   4.290   1.839  0.2062  0.3032  0.1845
   72MOL    C6739969   3.883   4.374   1.792  0.3075 -1.1723  0.2286
   72MOL    C6839970   3.755   4.334   1.795  0.3810 -0.3278 -0.4342
   72MOL    C6939971   3.729   4.212   1.864 -0.1049 -0.3401  0.3442
   72MOL    C7039972   3.585   4.186   1.900  0.3505  0.3471  0.6421
   72MOL    O7139973   3.492   4.224   1.827  0.1357 -0.4793  0.3529
   72MOL    C7239974   3.834   4.120   1.897 -0.0924  0.2971 -0.3745
   72MOL    C7339975   3.967   4.154   1.884 -0.1182 -0.7890 -0.1551
   72MOL    H7439976   4.441   4.133   2.311  1.7094 -0.4170 -0.4129
   72MOL    H7539977   4.514   4.036   2.202  0.3585  0.7252 -2.0889
   72MOL    H7639978   4.467   4.282   2.156  0.6188 -0.2915 -0.5358
   72MOL    H7739979   4.296   4.243   2.138  0.3125 -0.9879  2.4617
   72MOL    H7839980   4.520   4.132   1.955 -0.9060 -1.9778 -1.7722
   72MOL    H7939981   4.357   4.073   1.956  0.5555 -0.7134 -0.3542
   72MOL    H8039982   4.394   4.360   1.919  0.9247  0.1455 -1.8555
   72MOL    H8139983   4.385   4.265   1.776 -0.2635  0.0628 -0.3937
   72MOL    H8239984   3.915   4.473   1.761 -0.5423 -1.4516 -1.6182
   72MOL    H8339985   3.668   4.397   1.784  0.5510  0.0617  0.3552
   72MOL    H8439986   3.791   4.028   1.935 -0.4070  0.8255  0.5532
   72MOL    H8539987   4.052   4.093   1.911  2.0800  2.2892  0.2206
   72MOL    O8639988   3.573   4.109   2.010 -0.7545 -0.1746  0.2297
   72MOL    C8739989   3.449   4.056   2.052 -0.4542  0.5728 -0.2933
   72MOL    C8839990   3.458   3.981   2.182 -0.2110  0.4421 -0.1588
   72MOL    C8939991   3.448   4.075   2.305 -0.2082 -0.3369 -0.0783
   72MOL    C9039992   3.463   3.998   2.433 -0.0420  0.0186  0.1197
   72MOL    O9139993   3.434   4.075   2.553 -0.1998  0.5809  0.4220
   72MOL    C9239994   3.526   4.107   2.647  0.0048 -0.0491 -0.3692
   72MOL    O9339995   3.648   4.069   2.649 -0.2496 -0.6993  0.2737
   72MOL    C9439996   3.475   4.199   2.753 -0.0447 -0.4602 -0.6814
   72MOL    C9539997   3.548   4.223   2.868 -0.3475 -0.2499  0.7026
   72MOL    C9639998   3.497   4.312   2.970  0.2168 -0.3947  0.0293
   72MOL    C9739999   3.366   4.375   2.953 -0.3707 -0.3360 -1.5635
   72MOL    C9840000   3.308   4.457   3.060 -0.6781 -0.5357  0.0331
   72MOL    O9940001   3.347   4.463   3.175 -0.6485 -0.3286  0.1372
   72MOL   C10040002   3.295   4.357   2.831  0.2744 -0.2806  0.5490
   72MOL   C10140003   3.352   4.274   2.733 -0.4198 -0.2989 -0.5009
   72MOL   H10240004   3.380   4.140   2.057  0.6147  1.4547 -0.2168
   72MOL   H10340005   3.413   3.984   1.979  0.0600  1.2428 -1.2132
   72MOL   H10440006   3.551   3.925   2.184  0.1137  0.9530 -1.0848
   72MOL   H10540007   3.377   3.908   2.181  0.3733 -0.2211 -3.9816
   72MOL   H10640008   3.525   4.152   2.306 -0.1889 -0.2862 -2.0425
   72MOL   H10740009   3.354   4.129   2.303 -1.7886 -3.0033 -0.3822
   72MOL   H10840010   3.397   3.912   2.433  3.4050 -2.7284 -0.7805
   72MOL   H10940011   3.563   3.955   2.443 -1.2993 -3.0410 -0.2032
   72MOL   H11040012   3.642   4.171   2.878  0.6650  1.2512 -0.8088
   72MOL   H11140013   3.559   4.332   3.056 -2.0096  1.3929  1.3022
   72MOL   H11240014   3.199   4.407   2.823 -0.3475 -1.4037  0.9779
   72MOL   H11340015   3.283   4.255   2.652 -2.0533  0.8096  0.5911
   72MOL   O11440016   3.193   4.530   3.033 -0.9967 -0.3701 -0.1927
   72MOL   C11540017   3.144   4.625   3.128 -0.5210 -0.3147 -0.3589
   72MOL   C11640018   3.003   4.661   3.077 -0.1154  0.3097  0.1010
   72MOL   C11740019   2.915   4.724   3.184  0.4627  0.1345  0.3078
   72MOL   C11840020   2.953   4.868   3.219 -0.4489  0.1413  0.6201
   72MOL   O11940021   2.877   4.961   3.150 -0.1851 -0.1214 -0.1412
   72MOL   C12040022   2.855   5.085   3.201  0.0346  0.0846 -0.1356
   72MOL   O12140023   2.902   5.114   3.313 -0.5479 -0.1333 -0.3901
   72MOL   C12240024   2.775   5.179   3.119 -0.3092  0.3429 -0.2174
   72MOL   C12340025   2.719   5.131   2.996 -0.7155 -0.1541 -0.2056
   72MOL   C12440026   2.632   5.215   2.927  0.0218  0.1589 -0.3417
   72MOL   C12540027   2.599   5.348   2.970 -0.0755  0.2713  0.5869
   72MOL   C12640028   2.506   5.431   2.889  0.0631 -0.5511 -0.3353
   72MOL   O12740029   2.494   5.548   2.909  0.0546  0.4317 -0.1655
   72MOL   C12840030   2.651   5.395   3.089  0.4595  0.3907 -0.0339
   72MOL   C12940031   2.741   5.310   3.166 -0.9086 -0.4477 -0.7254
   72MOL   H13040032   3.140   4.564   3.219  1.5953 -1.3121 -0.8903
   72MOL   H13140033   3.206   4.712   3.145 -1.0402  0.1813 -1.0146
   72MOL   H13240034   2.954   4.571   3.042  0.4935 -0.4416  1.1587
   72MOL   H13340035   3.013   4.742   3.005  0.1141 -0.3348 -0.5943
   72MOL   H13440036   2.808   4.706   3.175  0.9669 -2.3482 -1.0103
   72MOL   H13540037   2.953   4.668   3.269  0.2944 -1.4259 -0.6331
   72MOL   H13640038   2.934   4.877   3.326  2.4546  2.2550  1.0100
   72MOL   H13740039   3.061   4.880   3.213 -0.3149 -1.7001 -1.1198
   72MOL   H13840040   2.736   5.031   2.959 -1.2323 -0.3089 -0.0317
   72MOL   H13940041   2.596   5.173   2.834  0.0718 -1.0919  0.1932
   72MOL   H14040042   2.623   5.492   3.127 -0.3450  0.0870  0.1574
   72MOL   H14140043   2.781   5.346   3.260 -1.6047 -0.6790 -0.3386
   72MOL   O14240044   2.444   5.367   2.793  0.1178 -0.4632 -0.0693
   72MOL   C14340045   2.364   5.427   2.690  0.4340  0.1573 -0.5974
   72MOL   C14440046   2.218   5.366   2.699 -0.7847  0.0233  0.5056
   72MOL   C14540047   2.145   5.404   2.824 -0.0057  0.0146 -0.5215
   72MOL   C14640048   1.990   5.378   2.799 -0.6061 -0.7190 -0.3169
   72MOL   O14740049   1.915   5.393   2.915  0.4968 -0.3168 -0.5128
   72MOL   C14840050   1.777   5.392   2.904  0.2196 -0.3500  0.0100
   72MOL   O14940051   1.719   5.355   2.800  0.1254  0.0229 -0.3134
   72MOL   C15040052   1.695   5.434   3.024 -0.2294 -0.1870 -0.5031
   72MOL   C15140053   1.554   5.428   3.016  0.7881 -0.3153  0.0374
   72MOL   C15240054   1.473   5.452   3.132 -0.9817 -0.3547 -0.4141
   72MOL   C15340055   1.537   5.496   3.248 -0.0802  0.2249 -0.2233
   72MOL   C15440056   1.452   5.505   3.373 -1.0842  0.2485  0.3681
   72MOL   O15540057   1.333   5.480   3.366 -0.6440 -1.3391  0.0857
   72MOL   C15640058   1.676   5.510   3.250 -0.3154 -1.0735  0.4046
   72MOL   C15740059   1.751   5.477   3.138  0.2333 -0.2734 -0.8002
   72MOL   H15840060   2.357   5.535   2.701 -0.7941  0.0206  0.0209
   72MOL   H15940061   2.395   5.397   2.590 -0.4221  0.5586 -0.9958
   72MOL   H16040062   2.239   5.259   2.695  0.3553  0.2050  1.5238
   72MOL   H16140063   2.170   5.399   2.607  1.8543 -0.9975 -1.3032
   72MOL   H16240064   2.185   5.348   2.909 -0.4975  1.0337  0.3815
   72MOL   H16340065   2.154   5.511   2.843 -1.9261  0.1466 -0.3308
   72MOL   H16440066   1.958   5.447   2.721 -0.1787 -2.0787 -1.7096
   72MOL   H16540067   1.983   5.277   2.760  0.0999 -1.4206  1.3085
   72MOL   H16640068   1.503   5.404   2.924 -1.0129  0.1687  0.8838
   72MOL   H16740069   1.366   5.441   3.129 -1.2764  2.4063 -1.3463
   72MOL   H16840070   1.721   5.555   3.337 -1.5389  0.6079  0.1807
   72MOL   H16940071   1.858   5.480   3.150  0.1500  0.6841 -0.2929
   72MOL   O17040072   1.515   5.568   3.472 -0.6215 -0.2517 -0.5223
   72MOL   C17140073   1.453   5.581   3.597 -0.4268  0.0442 -0.3885
   72MOL   C17240074   1.556   5.633   3.708 -0.7921  0.3711 -1.2074
   72MOL   C17340075   1.564   5.787   3.703  0.3904  0.6846 -0.4184
   72MOL   C17440076   1.637   5.840   3.572 -0.3398 -0.5533 -0.3454
   72MOL   O17540077   1.655   5.978   3.586  0.5253  0.2960 -0.0235
   72MOL   C17640078   1.642   6.072   3.486  0.0142 -0.3533  0.8004
   72MOL   O17740079   1.615   6.044   3.367  0.3685  0.2917  0.3632
   72MOL   C17840080   1.682   6.211   3.533  0.5568 -0.1510  0.0704
   72MOL   C17940081   1.728   6.242   3.666  0.3887  0.0460 -0.6488
   72MOL   C18040082   1.763   6.376   3.707  0.4774  0.6488  0.5596
   72MOL   C18140083   1.762   6.481   3.611  0.4296 -0.0105 -0.0226
   72MOL   C18240084   1.827   6.609   3.648  0.4698 -0.2510  0.1241
   72MOL   O18340085   1.866   6.635   3.765 -0.0149 -0.1375 -0.0191
   72MOL   C18440086   1.717   6.451   3.480 -0.2220 -0.1450  1.1503
   72MOL   C18540087   1.676   6.322   3.445  0.3900 -0.3411 -0.5230
   72MOL   H18640088   1.372   5.653   3.590 -2.8685 -2.2251  3.0916
   72MOL   H18740089   1.419   5.480   3.617 -1.2427  0.4844  0.4819
   72MOL   H18840090   1.656   5.590   3.716 -1.7148 -1.1712  3.1218
   72MOL   H18940091   1.527   5.589   3.803  2.2234 -2.1488 -1.3792
   72MOL   H19040092   1.463   5.826   3.710  0.6215  1.5688 -1.8294
   72MOL   H19140093   1.624   5.816   3.790 -1.0983 -0.2586  0.9651
   72MOL   H19240094   1.736   5.796   3.580  0.3155  0.6996 -1.4238
   72MOL   H19340095   1.590   5.819   3.475  0.7066  0.8109 -1.1633
   72MOL   H19440096   1.730   6.163   3.739 -1.4760 -1.5136 -2.2532
   72MOL   H19540097   1.801   6.397   3.806  2.6238 -1.4222  0.2117
   72MOL   H19640098   1.712   6.521   3.399  0.1472 -2.3923 -0.8629
   72MOL   H19740099   1.643   6.301   3.344 -1.4412 -0.3081  0.0549
   72MOL   O19840100   1.830   6.691   3.545 -0.3872 -0.1565  0.3046
   72MOL   C19940101   1.876   6.825   3.573  0.1232  0.4089 -0.9281
   72MOL   C20040102   1.767   6.929   3.547 -0.2249  0.0181  0.3410
   72MOL   C20140103   1.678   6.943   3.671  0.6216 -0.1362 -0.3820
   72MOL   C20240104   1.547   7.019   3.639 -0.5917 -0.5460  0.5136
   72MOL   O20340105   1.591   7.143   3.583 -0.7906 -0.2130  0.3684
   72MOL   C20440106   1.558   7.271   3.627 -0.0052 -0.2966  0.4622
   72MOL   O20540107   1.498   7.285   3.726 -0.1744 -0.3034  0.7215
   72MOL   C20640108   1.626   7.370   3.548 -0.1981 -0.0674 -0.1050
   72MOL   C20740109   1.616   7.508   3.582 -1.1354 -0.8247 -0.5853
   72MOL   C20840110   1.690   7.605   3.507 -1.2635 -0.4732  0.2050
   72MOL   C20940111   1.769   7.567   3.395 -0.0434  0.0880 -0.6786
   72MOL   C21040112   1.830   7.677   3.314  0.3798  0.6822 -0.0236
   72MOL   O21140113   1.816   7.798   3.339 -0.3549 -0.5303 -0.2531
   72MOL   C21240114   1.783   7.423   3.366 -0.7178 -0.0847  0.1114
   72MOL   C21340115   1.720   7.330   3.448  0.1495 -0.4140  0.1081
   72MOL   H21440116   1.916   6.851   3.671  0.2982 -0.5227 -0.7407
   72MOL   H21540117   1.962   6.835   3.506  1.1258  2.1347  0.5841
   72MOL   H21640118   1.711   6.886   3.464 -0.9564  1.5096  0.0455
   72MOL   H21740119   1.801   7.025   3.509  0.0195  0.2137  1.0570
   72MOL   H21840120   1.662   6.841   3.706  0.0237 -0.1990 -0.8221
   72MOL   H21940121   1.735   6.993   3.749 -0.8998  0.7963  0.1466
   72MOL   H22040122   1.487   6.972   3.561 -0.8043  0.8095 -0.1460
   72MOL   H22140123   1.491   7.033   3.731  0.7894 -1.5736  1.5479
   72MOL   H22240124   1.549   7.535   3.663 -0.2026  0.9004 -0.3751
   72MOL   H22340125   1.677   7.707   3.540 -1.1759 -0.5284  0.4133
   72MOL   H22440126   1.840   7.383   3.282  1.3422  1.3993  0.7627
   72MOL   H22540127   1.730   7.228   3.415 -0.1136 -0.1955 -0.6586
   72MOL   O22640128   1.906   7.628   3.214  0.1257  0.4577 -0.1414
   72MOL   C22740129   1.941   7.722   3.113 -0.5167  0.3632 -0.6864
   72MOL   C22840130   1.821   7.765   3.029 -0.0531 -0.3815  0.1848
   72MOL   C22940131   1.869   7.827   2.893  0.5259  1.0458  0.4481
   72MOL   C23040132   1.754   7.891   2.806  0.2636 -0.4448  0.6769
   72MOL   O23140133   1.809   7.942   2.683  0.0934  0.1558 -0.0722
   72MOL   C23240134   1.738   8.003   2.592  0.1620 -0.6309  0.3848
   72MOL   O23340135   1.614   8.015   2.601 -1.0002 -0.0862 -0.2697
   72MOL   C23440136   1.818   8.058   2.483 -0.2513  0.1632  0.0367
   72MOL   C23540137   1.958   8.036   2.484 -0.0603  0.2734 -0.3537
   72MOL   C23640138   2.043   8.096   2.401 -0.0898  0.2709  0.7462
   72MOL   C23740139   1.993   0.081   2.296 -0.3091 -0.0821 -0.1406
   72MOL   C23840140   2.092   0.140   2.204  0.2352 -0.7611  0.2597
   72MOL   O23940141   2.211   0.153   2.230  0.2728 -0.2059  0.4544
   72MOL   C24040142   1.853   0.095   2.284 -0.0497 -0.2578 -0.3389
   72MOL   C24140143   1.761   0.034   2.374 -0.0184  0.3307  0.1724
   72MOL   H24240144   1.996   7.803   3.160 -1.5973 -0.6168  2.3656
   72MOL   H24340145   2.011   7.664   3.054 -0.2760 -0.8331  0.7450
   72MOL   H24440146   1.763   7.845   3.075  1.4032  1.3170 -0.8641
   72MOL   H24540147   1.749   7.685   3.011  0.5714 -1.3593  1.9379
   72MOL   H24640148   1.952   7.896   2.905  1.7730 -0.4633  0.6280
   72MOL   H24740149   1.910   7.740   2.842 -2.6610 -0.9886  1.2152
   72MOL   H24840150   1.672   7.827   2.772  2.3717 -1.7940 -2.0054
   72MOL   H24940151   1.720   7.977   2.863  2.8744 -0.0021  1.6357
   72MOL   H25040152   2.003   7.962   2.549  2.9793  1.1122 -1.4167
   72MOL   H25140153   2.149   8.077   2.412 -0.3637 -0.7171  1.7114
   72MOL   H25240154   1.817   0.166   2.211 -1.4767  0.1342  0.7180
   72MOL   H25340155   1.654   0.046   2.375  0.2568  3.0640  1.5708
   72MOL   O25440156   2.036   0.173   2.091 -0.2178 -0.2028  0.2155
   72MOL   C25540157   2.101   0.273   2.011 -0.1824 -0.1130 -0.0608
   72MOL   C25640158   2.106   0.239   1.859  0.1546 -0.6125 -0.2400
   72MOL   C25740159   1.966   0.253   1.799  0.1230 -0.4050  0.1710
   72MOL   C25840160   1.978   0.246   1.644  0.2703  0.1986  0.2404
   72MOL   O25940161   2.021   0.119   1.596 -0.4163 -0.3134 -0.0830
   72MOL   C26040162   1.966   0.057   1.480  0.1759 -0.7492 -1.1272
   72MOL   O26140163   1.882   0.112   1.415  0.3224 -0.1706  0.1499
   72MOL   C26240164   2.033   8.026   1.443 -0.0734 -0.5429 -0.1856
   72MOL   C26340165   2.124   7.961   1.536  0.0656 -0.0307  0.7015
   72MOL   C26440166   2.165   7.833   1.508  0.3934  0.2934 -0.3498
   72MOL   C26540167   2.116   7.760   1.394 -0.0548  0.0791 -0.3102
   72MOL   C26640168   2.153   7.620   1.361  0.2492 -0.0298  0.2331
   72MOL   O26740169   2.117   7.565   1.257 -0.5801  0.0054  0.2412
   72MOL   C26840170   2.037   7.823   1.302  0.6157  0.0105 -1.0493
   72MOL   C26940171   1.995   7.955   1.327  0.3538  0.4850  0.8839
   72MOL   H27040172   2.044   0.366   2.022 -1.0949 -0.5265 -1.2885
   72MOL   H27140173   2.204   0.301   2.033  0.3256  0.3769 -2.9093
   72MOL   H27240174   2.156   0.145   1.838 -0.3801 -1.1422  0.8334
   72MOL   H27340175   2.170   0.311   1.807  0.4696 -0.5480  0.2341
   72MOL   H27440176   1.910   0.166   1.834 -2.7485 -0.1794 -3.5451
   72MOL   H27540177   1.896   0.333   1.825  2.5387  1.4710  1.0361
   72MOL   H27640178   1.879   0.274   1.609  0.0587 -0.4314  0.3297
   72MOL   H27740179   2.054   0.313   1.603  0.1525  0.0407 -0.2453
   72MOL   H27840180   2.141   8.004   1.634  3.4407  1.0619 -0.2798
   72MOL   H27940181   2.228   7.787   1.582 -0.8990  0.6953  1.0242
   72MOL   H28040182   2.010   7.766   1.214 -1.2967 -0.5155 -0.1442
   72MOL   H28140183   1.933   7.999   1.250  0.5788  0.1420  0.5098
   72MOL   O28240184   2.218   7.559   1.458  0.5474  0.7847  0.0625
   72MOL   C28340185   2.293   7.437   1.432 -0.6143 -0.0639  0.4936
   72MOL   C28440186   2.365   7.417   1.562 -0.3948 -0.4810 -0.4706
   72MOL   C28540187   2.464   7.528   1.591 -0.1173 -0.1161  0.1967
   72MOL   C28640188   2.566   7.573   1.475 -0.4904  0.3136 -0.2480
   72MOL   O28740189   2.632   7.466   1.410 -0.1460 -0.2792 -0.2357
   72MOL   C28840190   2.752   7.413   1.451  0.5778 -0.1530  0.2426
   72MOL   O28940191   2.810   7.453   1.547 -0.2393  0.1908 -0.1992
   72MOL   C29040192   2.809   7.295   1.376  0.0558  0.9056  0.3070
   72MOL   C29140193   2.919   7.211   1.420 -0.4334  0.6395  0.2622
   72MOL   C29240194   2.952   7.093   1.353  0.0363  0.1256 -0.2730
   72MOL   C29340195   2.893   7.067   1.228  0.2709  0.3373 -0.2329
   72MOL   C29440196   2.943   6.956   1.146  0.1989 -0.0280 -0.1951
   72MOL   O29540197   3.022   6.867   1.179  0.3320 -0.0199 -0.0553
   72MOL   C29640198   2.788   7.151   1.184  0.3898 -0.0357 -0.5976
   72MOL   C29740199   2.744   7.257   1.256 -0.2172  0.0945 -0.0410
   72MOL   H29840200   2.223   7.358   1.403  0.2546 -1.1300  1.2789
   72MOL   H29940201   2.362   7.454   1.349 -1.0281  0.2194  0.1989
   72MOL   H30040202   2.408   7.317   1.564  0.6445 -0.0778 -1.6980
   72MOL   H30140203   2.293   7.419   1.643  1.5146  2.0993  1.2292
   72MOL   H30240204   2.402   7.613   1.619 -0.5482  0.7745 -3.2527
   72MOL   H30340205   2.525   7.502   1.678  2.6321 -1.0595 -1.9441
   72MOL   H30440206   2.521   7.630   1.394  1.7885 -0.8764 -2.4316
   72MOL   H30540207   2.646   7.629   1.524 -1.4523  0.3629  1.3064
   72MOL   H30640208   2.967   7.232   1.514  2.8548 -0.7842 -1.0184
   72MOL   H30740209   3.027   7.029   1.397  2.4087  2.2952 -1.0460
   72MOL   H30840210   2.744   7.124   1.089  2.7875  2.0540 -2.3433
   72MOL   H30940211   2.659   7.312   1.217 -0.3070  0.8295  1.1502
   72MOL   O31040212   2.874   6.946   1.029 -0.1660  0.0996  0.0836
   72MOL   C31140213   2.904   6.842   0.935  0.5248  0.6239 -0.2258
   72MOL   C31240214   3.010   6.873   0.828 -0.2455 -0.3783 -0.3796
   72MOL   C31340215   2.987   7.010   0.758  0.1029  0.5451 -0.1574
   72MOL   C31440216   3.097   7.039   0.661 -0.1111  0.4717  1.0871
   72MOL   O31540217   3.092   6.953   0.551  0.2241  0.4348  0.4225
   72MOL   C31640218   3.205   6.888   0.509  0.1404  0.4000  0.3195
   72MOL   O31740219   3.316   6.896   0.560 -0.4309 -0.5433 -0.4212
   72MOL   C31840220   3.185   6.816   0.383  0.4841  0.1476  0.3848
   72MOL   C31940221   3.297   6.766   0.309 -0.7106 -0.2880 -0.6351
   72MOL   C32040222   3.278   6.694   0.189  0.6332  0.6666 -0.3714
   72MOL   C32140223   3.148   6.695   0.130 -0.3557  0.2503  0.2194
   72MOL   C32240224   3.147   6.638   8.090  0.2710 -0.3031  0.5646
   72MOL   O32340225   3.246   6.604   8.026 -0.5945 -0.8641 -0.5491
   72MOL   C32440226   3.034   6.752   0.193  0.4405 -0.7096 -0.0133
   72MOL   C32540227   3.055   6.799   0.329  0.1261 -0.9000 -0.0590
   72MOL   H32640228   2.924   6.744   0.980  1.8062  1.3925  0.9370
   72MOL   H32740229   2.817   6.816   0.876  0.5688  0.1232 -0.0731
   72MOL   H32840230   3.005   6.797   0.749  2.8823 -1.9255  0.8299
   72MOL   H32940231   3.106   6.871   0.880 -0.7937  0.3120  0.6629
   72MOL   H33040232   2.883   7.017   0.724  0.2121 -0.1064 -0.6311
   72MOL   H33140233   2.997   7.081   0.840 -1.4293  0.3517  0.2046
   72MOL   H33240234   3.077   7.141   0.626  2.7095  0.4608 -0.7021
   72MOL   H33340235   3.195   7.036   0.709 -0.3814 -2.1560  1.5477
   72MOL   H33440236   3.395   6.787   0.350 -0.8908  0.4353 -0.5633
   72MOL   H33540237   3.368   6.663   0.138 -0.8720 -3.0595 -0.9606
   72MOL   H33640238   2.939   6.761   0.143  0.1711 -2.1390  0.2328
   72MOL   H33740239   2.973   6.839   0.388  1.9636 -0.9604  2.6199
   72MOL   O33840240   3.025   6.632   8.049 -0.5575  0.3236 -0.1076
   72MOL   C33940241   2.991   6.577   7.925  0.2432 -0.2510  0.4460
   72MOL   C34040242   2.842   6.535   7.921 -0.1930  0.3415  0.1942
   72MOL   C34140243   2.804   6.427   8.025  0.6182  0.3269  0.0437
   72MOL   C34240244   2.660   6.392   8.014  0.2539 -0.3581  0.4975
   72MOL   O34340245   2.577   6.502   8.048 -0.4024 -0.0407 -0.3280
   72MOL   C34440246   2.439   6.498   8.040  0.1061  0.3989 -0.0519
   72MOL   O34540247   2.378   6.397   7.997  0.1493 -0.3159 -0.3270
   72MOL   C34640248   2.375   6.628   8.083 -0.8321 -0.2423 -0.6492
   72MOL   C34740249   2.459   6.736   0.037 -0.0549  0.6517 -0.1788
   72MOL   C34840250   2.407   6.847   0.106 -0.3603 -0.3775 -0.6894
   72MOL   C34940251   2.268   6.873   0.112  0.2800 -0.2380  1.3110
   72MOL   C35040252   2.217   7.002   0.167 -0.0230 -0.7787 -0.9913
   72MOL   O35140253   2.288   7.094   0.202 -0.1655  0.1129  0.1095
   72MOL   C35240254   2.183   6.779   0.047  0.3426 -0.1424 -0.1381
   72MOL   C35340255   2.238   6.655   8.089 -0.2171  0.1620 -1.1704
   72MOL   H35440256   3.014   6.655   7.852 -0.7593 -0.2849  0.0881
   72MOL   H35540257   3.061   6.497   7.902  0.9981  0.2510  0.9768
   72MOL   H35640258   2.807   6.515   7.820  0.9218 -1.4741  0.1280
   72MOL   H35740259   2.781   6.623   7.939  1.5610  1.6475 -0.1640
   72MOL   H35840260   2.868   6.340   8.012 -0.3251 -0.5562  1.2404
   72MOL   H35940261   2.805   6.469   0.027  0.4919  2.0351 -0.6421
   72MOL   H36040262   2.635   6.353   7.915  0.9059 -1.6514  0.8296
   72MOL   H36140263   2.636   6.305   8.075  1.6287 -0.9941  0.1492
   72MOL   H36240264   2.565   6.722   0.047 -0.1661 -0.1879 -0.1431
   72MOL   H36340265   2.469   6.918   0.159 -0.1564 -0.3829 -0.9224
   72MOL   H36440266   2.076   6.794   0.041 -0.1079 -3.0704  0.0987
   72MOL   H36540267   2.171   6.579   8.052  0.1793  0.7195 -3.1028
   72MOL   O36640268   2.086   7.006   0.160  0.7287 -0.3491  0.4048
   72MOL   C36740269   2.008   7.120   0.204  0.5565  0.3119  0.1499
   72MOL   C36840270   1.965   7.106   0.353  0.1343  0.1566 -0.1642
   72MOL   C36940271   1.885   7.226   0.403 -0.0440  0.7385  0.3609
   72MOL   C37040272   1.836   7.217   0.549 -0.1126 -0.6610 -0.3996
   72MOL   O37140273   1.748   7.319   0.588  0.6872 -0.3463 -0.1557
   72MOL   C37240274   1.790   7.447   0.620  0.0601  0.4249  0.5594
   72MOL   O37340275   1.906   7.484   0.618 -0.6152 -0.3021 -0.0676
   72MOL   C37440276   1.677   7.537   0.639 -0.6595  0.0700 -0.0219
   72MOL   C37540277   1.707   7.670   0.657  0.0401 -0.7621 -0.0077
   72MOL   C37640278   1.608   7.771   0.665 -0.9880 -0.1594 -0.0400
   72MOL   C37740279   1.475   7.739   0.675  0.3585  0.0515 -0.7934
   72MOL   C37840280   1.369   7.841   0.683  0.0329 -1.1078  0.0620
   72MOL   O37940281   1.248   7.810   0.689  0.0079 -0.0719  0.0674
   72MOL   C38040282   1.439   7.603   0.676  0.3996  0.3041  0.1374
   72MOL   C38140283   1.540   7.505   0.649  0.0136  0.0617 -0.4365
   72MOL   H38240284   2.061   7.215   0.193 -0.4684  0.9927  1.0241
   72MOL   H38340285   1.921   7.118   0.138  2.0076 -2.1700 -1.7826
   72MOL   H38440286   2.059   7.092   0.406 -0.0754  2.3960  0.8196
   72MOL   H38540287   1.920   7.008   0.371 -0.1997  0.4921  0.8424
   72MOL   H38640288   1.933   7.324   0.389 -2.0005  1.2584 -3.1938
   72MOL   H38740289   1.799   7.240   0.337 -1.3827  0.0402  1.9183
   72MOL   H38840290   1.799   7.116   0.569  0.6192 -0.9703 -0.5763
   72MOL   H38940291   1.926   7.212   0.610  1.0727 -0.1458 -2.0838
   72MOL   H39040292   1.812   7.693   0.658 -0.2542  0.6512 -0.7275
   72MOL   H39140293   1.635   7.876   0.662 -1.5338 -0.0477 -1.0726
   72MOL   H39240294   1.334   7.576   0.680  0.5481 -0.3154 -0.0663
   72MOL   H39340295   1.492   7.409   0.635 -1.9556  0.6872  1.5768
   72MOL   O39440296   1.414   7.969   0.694  0.2659  0.1844 -0.2479
   72MOL   C39540297   1.324   8.074   0.727 -0.3113  0.1641 -0.2260
   72MOL   C39640298   1.400   0.068   0.835 -0.9411 -0.3594  0.5286
   72MOL   C39740299   1.407   0.012   0.981 -0.1168 -0.5433 -0.4315
   72MOL   C39840300   1.540   0.038   1.051  0.7743 -0.5042 -0.2568
   72MOL   O39940301   1.638   8.041   1.012  0.6175  0.2688  0.0151
   72MOL   C40040302   1.729   8.071   0.920  0.3657 -0.5829 -0.1619
   72MOL   O40140303   1.740   0.082   0.863  0.0894 -0.2361  0.0880
   72MOL   C40240304   1.826   7.957   0.896  0.2891  0.0141  0.4379
   72MOL   C40340305   1.921   7.967   0.796 -0.4822 -0.5905 -0.2908
   72MOL   C40440306   2.024   7.872   0.779 -0.0001  0.3919 -0.0067
   72MOL   C40540307   2.030   7.758   0.857  0.1871  0.5107 -0.2715
   72MOL   C40640308   2.129   7.641   0.837 -0.0655 -0.5686  0.2823
   72MOL   O40740309   2.126   7.533   0.899  0.8819 -0.5892  0.1297
   72MOL   C40840310   1.932   7.742   0.957  0.5953 -0.0064 -0.6098
   72MOL   C40940311   1.836   7.846   0.978 -0.0092 -0.4706 -0.7921
   72MOL   H41040312   1.288   0.023   0.636 -0.9773 -0.3305 -0.2203
   72MOL   H41140313   1.225   8.051   0.767 -0.4786 -0.4880 -1.0118
   72MOL   H41240314   1.353   0.167   0.833 -0.7634 -0.2205 -4.2666
   72MOL   H41340315   1.501   0.084   0.797 -1.6120  1.9326 -0.3834
   72MOL   H41440316   1.334   0.061   1.046  1.4839  2.1315 -0.5833
   72MOL   H41540317   1.365   8.010   0.981 -1.5698  0.0368  2.2001
   72MOL   H41640318   1.573   0.141   1.043  0.3957 -0.4474 -1.1613
   72MOL   H41740319   1.518   0.030   1.157 -1.6536  1.6659 -0.5435
   72MOL   H41840320   1.923   8.067   0.757  0.0294  0.0901  1.4219
   72MOL   H41940321   2.103   7.887   0.708 -0.3000 -0.8638 -0.6248
   72MOL   H42040322   1.945   7.654   1.018 -0.1151 -0.3074 -0.8803
   72MOL   H42140323   1.760   7.827   1.052 -1.1449 -1.3350 -2.1360
   72MOL   O42240324   2.227   7.665   0.741  0.2020 -0.3035 -0.1022
   72MOL   C42340325   2.332   7.576   0.728 -0.6680  0.1197 -0.7567
   72MOL   C42440326   2.348   7.544   0.578  0.0391  0.4077 -0.8880
   72MOL   C42540327   2.248   7.442   0.529 -0.3791  0.4244  0.0550
   72MOL   C42640328   2.224   7.426   0.378 -0.0612 -0.5642 -0.1487
   72MOL   O42740329   2.347   7.412   0.317 -0.0885  0.4971 -0.2355
   72MOL   C42840330   2.351   7.408   0.182 -0.0187 -0.1758  0.1707
   72MOL   O42940331   2.258   7.401   0.103 -0.1231 -0.5785 -0.3438
   72MOL   C43040332   2.498   7.420   0.131 -0.7265  0.7142 -0.0019
   72MOL   C43140333   2.601   7.450   0.214  0.0396  0.3804 -0.1171
   72MOL   C43240334   2.738   7.441   0.171 -0.1862 -0.3222 -1.1522
   72MOL   C43340335   2.760   7.424   0.032  0.2127 -0.0632 -0.1741
   72MOL   C43440336   2.891   7.441   8.071 -0.6244  0.0272 -0.0708
   72MOL   O43540337   2.896   7.484   7.963 -0.5291 -0.2576  0.5748
   72MOL   C43640338   2.651   7.415   8.043  0.9430  0.7333  0.1440
   72MOL   C43740339   2.517   7.410   8.093  0.0620  0.3654 -0.2163
   72MOL   H43840340   2.414   7.638   0.762 -1.2264  0.3252  0.2185
   72MOL   H43940341   2.306   7.484   0.780  1.1454  0.4315  0.7515
   72MOL   H44040342   2.453   7.513   0.573  0.5095  1.4915  1.5814
   72MOL   H44140343   2.334   7.635   0.520  0.6488  1.0053 -0.1003
   72MOL   H44240344   2.271   7.344   0.572 -0.0541  1.2025  1.6943
   72MOL   H44340345   2.155   7.465   0.581 -0.8003  0.8385 -0.8652
   72MOL   H44440346   2.165   7.336   0.362 -1.5331  0.8675 -3.2500
   72MOL   H44540347   2.168   7.504   0.326 -0.8551 -1.0262  0.0064
   72MOL   H44640348   2.585   7.466   0.320  2.3869 -0.5087  0.4208
   72MOL   H44740349   2.822   7.460   0.236 -1.0674  0.7396 -0.3079
   72MOL   H44840350   2.664   7.425   7.936  2.8460 -1.0775  0.1737
   72MOL   H44940351   2.430   7.409   8.030 -1.2960  1.1403  1.5983
   72MOL   O45040352   3.002   7.420   0.052  0.0156 -0.0431 -0.4044
   72MOL   C45140353   3.136   7.447   8.092 -0.0210 -0.6119 -0.2285
   72MOL   C45240354   3.206   7.559   0.063 -0.2030  0.1740 -0.0564
   72MOL   C45340355   3.338   7.603   8.092  0.2555  0.0515 -0.2085
   72MOL   C45440356   3.427   7.498   8.026  1.0925  0.4157  0.1928
   72MOL   O45540357   3.561   7.548   8.017  0.0868  0.1767  0.5134
   72MOL   C45640358   3.599   7.633   7.931 -0.2504 -0.1862  0.3782
   72MOL   O45740359   3.536   7.670   7.826 -0.4114 -0.2146 -0.5832
   72MOL   C45840360   3.744   7.679   7.955 -0.3641 -0.0329  0.2937
   72MOL   C45940361   3.809   7.765   7.859  0.0873 -0.2938  0.3548
   72MOL   C46040362   3.936   7.817   7.876  0.2266  0.3501  0.1672
   72MOL   C46140363   4.008   7.778   7.988 -0.6410 -0.2634 -0.6313
   72MOL   C46240364   4.152   7.816   8.005  0.5382  0.5172  1.1514
   72MOL   O46340365   4.227   7.796   8.097 -0.1471 -0.4376  0.1627
   72MOL   C46440366   3.943   7.697   8.085  0.3908  0.0821  0.1278
   72MOL   C46540367   3.812   7.640   8.070  0.4481  0.4053  0.2211
   72MOL   H46640368   3.186   7.351   0.004  0.1793 -0.6565 -1.5811
   72MOL   H46740369   3.133   7.463   7.985  1.0827  2.8889  0.2045
   72MOL   H46840370   3.248   7.529   0.159  1.1026 -1.0298 -0.9780
   72MOL   H46940371   3.140   7.645   0.074 -2.9387 -1.8845  0.1713
   72MOL   H47040372   3.311   7.651   7.998 -1.4457  0.0191  0.2368
   72MOL   H47140373   3.396   7.660   0.066 -0.2641  0.8042 -0.3821
   72MOL   H47240374   3.437   7.409   8.088  2.0223 -0.0221 -0.5869
   72MOL   H47340375   3.376   7.471   7.933  1.7202 -0.2304  0.0358
   72MOL   H47440376   3.759   7.794   7.767  2.0199 -1.0547 -0.9641
   72MOL   H47540377   3.986   7.872   7.797  2.1623 -1.3746  0.1513
   72MOL   H47640378   4.005   7.677   0.073  1.0626  0.7885 -0.1856
   72MOL   H47740379   3.774   7.586   0.057  0.5863  0.1497  0.1203
   72MOL   O47840380   4.195   7.891   7.901  0.5377  0.3643 -0.1801
   72MOL   C47940381   4.330   7.939   7.896 -0.3818 -0.6081  0.5042
   72MOL   C48040382   4.336   8.080   7.848  0.1147  0.3246 -0.5380
   72MOL   C48140383   4.313   8.081   7.690 -0.0122 -0.2851 -0.3427
   72MOL   C48240384   4.356   0.116   7.629 -0.1332  1.0468 -0.2250
   72MOL   O48340385   4.343   0.127   7.485 -0.0761  0.4247 -0.3803
   72MOL   C48440386   4.397   0.229   7.428  0.3968  0.5617 -0.5206
   72MOL   O48540387   4.453   0.323   7.491  0.1082 -0.0560  0.2655
   72MOL   C48640388   4.379   0.228   7.275 -0.0418 -0.9230  0.1513
   72MOL   C48740389   4.411   0.345   7.203 -0.0257 -0.1087  0.2023
   72MOL   C48840390   4.387   0.356   7.064 -0.3447 -0.5424  0.2203
   72MOL   C48940391   4.354   0.248   6.991  0.2236  0.0409  0.3706
   72MOL   C49040392   4.337   0.261   6.847  0.3334  1.3033  0.2962
   72MOL   O49140393   4.326   0.170   6.769  0.2275 -0.1965  0.2363
   72MOL   C49240394   4.319   0.128   7.058  0.1448 -0.2251  0.2106
   72MOL   C49340395   4.331   0.116   7.202 -0.9754  0.6780  0.1471
   72MOL   H49440396   4.372   7.940   7.996  0.4857  0.0493  0.1366
   72MOL   H49540397   4.386   7.865   7.839 -0.4180  0.5141 -1.0281
   72MOL   H49640398   4.426   0.029   7.887  0.8156  0.2607 -2.0392
   72MOL   H49740399   4.258   0.046   7.888  0.0909 -0.1074  0.1130
   72MOL   H49840400   4.370   7.998   7.648 -1.9536 -1.7964 -0.0965
   72MOL   H49940401   4.210   8.054   7.667 -0.1731  0.2141 -0.2188
   72MOL   H50040402   4.300   0.199   7.673 -0.5526  2.1972 -2.8586
   72MOL   H50140403   4.463   0.130   7.647 -0.2140  1.9169 -0.3633
   72MOL   H50240404   4.439   0.436   7.255  0.4404 -1.4839  2.4016
   72MOL   H50340405   4.412   0.453   7.024 -0.2290 -0.2755  0.9257
   72MOL   H50440406   4.277   0.042   7.008  1.4295 -0.3763 -0.6428
   72MOL   H50540407   4.303   0.021   7.245  1.2830  1.0617  2.5803
   72MOL   O50640408   4.337   0.391   6.814 -0.3369  0.0456  0.0313
   72MOL   C50740409   4.308   0.426   6.680 -0.2288  0.3867 -0.7099
   72MOL   C50840410   4.445   0.480   6.629  0.3556 -0.2413 -0.7721
   72MOL   C50940411   4.556   0.376   6.618 -0.4184  0.8802 -0.4004
   72MOL   C51040412   4.680   0.437   6.546 -0.2145 -0.9701 -0.2454
   72MOL   O51140413   4.666   0.466   6.405  1.2975 -0.3223  0.6333
   72MOL   C51240414   4.704   0.368   6.317 -0.4757 -0.5678  0.1962
   72MOL   O51340415   4.747   0.260   6.355  0.6713 -0.2571  0.2470
   72MOL   C51440416   4.693   0.401   6.172  0.3702 -0.1327  0.3806
   72MOL   C51540417   4.738   0.309   6.078  0.0782 -0.5341  0.7744
   72MOL   C51640418   4.743   0.344   5.940  0.2192  0.1151  0.0462
   72MOL   C51740419   4.706   0.473   5.902  0.1428 -0.4418  0.6514
   72MOL   C51840420   4.708   0.520   5.757 -0.1920 -0.4488 -0.6119
   72MOL   O51940421   4.660   0.625   5.720  0.4956  0.2229 -0.0190
   72MOL   C52040422   4.656   0.565   5.991  0.5916  0.1453 -0.1600
   72MOL   C52140423   4.651   0.531   6.126  0.0431  0.4229 -0.5683
   72MOL   H52240424   4.265   0.352   6.612 -1.8173 -1.5318  2.2772
   72MOL   H52340425   4.226   0.492   6.705 -2.3664 -2.2292 -0.5434
   72MOL   H52440426   4.467   0.578   6.671 -0.1847 -1.3493  2.2124
   72MOL   H52540427   4.422   0.504   6.526  0.7396  2.4315 -0.2600
   72MOL   H52640428   4.573   0.344   6.721 -2.2897  0.6136 -0.1685
   72MOL   H52740429   4.521   0.290   6.561 -0.7037  0.5462  0.2754
   72MOL   H52840430   4.682   0.525   6.611  1.1056 -3.4169  3.1418
   72MOL   H52940431   4.764   0.371   6.568 -0.4047 -1.0592  0.1988
   72MOL   H53040432   4.767   0.209   6.106 -0.9034 -1.3241 -0.9382
   72MOL   H53140433   4.797   0.289   5.865  3.7120  2.3903  0.7486
   72MOL   H53240434   4.616   0.660   5.959  0.9408  1.2164  2.4092
   72MOL   H53340435   4.621   0.598   6.205 -3.7142 -1.8656  0.0627
   72MOL   O53440436   4.767   0.431   5.679 -0.3559 -0.2629  0.2755
   72MOL   C53540437   4.768   0.454   5.541 -0.3478 -0.8449 -0.3937
   72MOL   C53640438   4.844   0.338   5.463 -0.0005  0.0246 -0.3312
   72MOL   C53740439   4.821   0.194   5.502 -0.4822  0.5657  0.0328
   72MOL   C53840440   4.898   0.091   5.410 -0.3124  0.2433  0.2438
   72MOL   O53940441   5.034   0.107   5.397  0.3268  0.3660 -0.3249
   72MOL   C54040442   5.099   0.091   5.283  0.0324 -0.3474 -0.5915
   72MOL   O54140443   5.056   0.043   5.178  0.5796  0.6590  0.7168
   72MOL   C54240444   5.238   0.150   5.296  0.2787 -0.4304 -0.3559
   72MOL   C54340445   5.288   0.191   5.420 -0.4025 -0.1006  0.4240
   72MOL   C54440446   5.430   0.217   5.432 -0.4945 -0.4236  0.2737
   72MOL   C54540447   5.513   0.224   5.319 -0.5702 -0.4781 -0.1664
   72MOL   C54640448   5.657   0.253   5.335  0.3626 -0.3743  0.0093
   72MOL   O54740449   5.734   0.277   5.250  0.4674  0.1547  0.4240
   72MOL   C54840450   5.455   0.197   5.197 -0.0825  0.9845  0.5208
   72MOL   C54940451   5.324   0.157   5.186 -0.1034 -0.5019 -0.4931
   72MOL   H55040452   4.668   0.467   5.500 -0.6115  0.3160  0.6151
   72MOL   H55140453   4.823   0.545   5.520  1.9497 -2.2710 -0.7618
   72MOL   H55240454   4.947   0.370   5.446 -0.6624  1.2744 -2.2223
   72MOL   H55340455   4.812   0.348   5.359  4.3697  0.6541 -1.7071
   72MOL   H55440456   4.846   0.188   5.608 -0.0724  1.1053 -0.0283
   72MOL   H55540457   4.713   0.179   5.503 -0.1737 -2.1118 -1.8450
   72MOL   H55640458   4.873   8.091   5.449  1.2640 -0.5853 -0.7614
   72MOL   H55740459   4.852   0.095   5.311 -1.9592  3.0998  1.0856
   72MOL   H55840460   5.232   0.185   5.512 -3.8444 -0.5338 -1.6101
   72MOL   H55940461   5.473   0.224   5.531 -0.4348 -2.1358  0.3879
   72MOL   H56040462   5.509   0.196   5.103 -0.3686 -1.6869  0.3625
   72MOL   H56140463   5.286   0.131   5.089 -1.0192 -0.5888 -0.1114
   72MOL   H56240464   5.681   0.257   5.441 -0.3012  1.4387  0.0931
   73MOL     O140465   7.112   1.485   4.240  0.0760 -0.2488 -0.0785
   73MOL     C240466   7.114   1.573   4.348  0.0343  0.7206 -0.3604
   73MOL     C340467   7.007   1.679   4.323  0.2196 -0.3557 -0.6338
   73MOL     C440468   7.017   1.740   4.188  0.7253 -0.2691  0.8449
   73MOL     C540469   6.923   1.859   4.181 -0.4527 -0.0983  0.0298
   73MOL     O640470   6.925   1.923   4.051 -0.0244 -0.2654  0.0312
   73MOL     C740471   6.887   1.863   3.937  0.1790  0.6265  0.1055
   73MOL     O840472   6.837   1.749   3.941 -0.2146 -0.0391 -0.0560
   73MOL     C940473   6.910   1.939   3.813  0.3696 -0.0998 -0.5243
   73MOL    C1040474   6.974   2.061   3.822  0.4882 -0.6040 -0.5667
   73MOL    C1140475   7.013   2.129   3.708  0.7036  0.1276  0.3113
   73MOL    C1240476   6.983   2.078   3.580 -0.2376  0.6185  0.1363
   73MOL    C1340477   7.033   2.150   3.456 -0.1444 -0.1858  0.0787
   73MOL    O1440478   7.094   2.260   3.469 -0.2187 -0.0279 -0.6255
   73MOL    C1540479   6.909   1.955   3.570 -0.5314  0.3316  0.1388
   73MOL    C1640480   6.869   1.888   3.690  0.3641  0.0888 -0.5041
   73MOL    H1740481   7.098   1.527   4.445  2.6273 -3.4258 -1.7579
   73MOL    H1840482   7.213   1.618   4.363 -1.2925  3.0569  1.8280
   73MOL    H1940483   6.996   1.761   4.394  0.0967 -1.2520  0.4142
   73MOL    H2040484   6.912   1.626   4.326  0.6596 -1.1150  1.7887
   73MOL    H2140485   7.121   1.771   4.177  0.5756  0.6353  1.8984
   73MOL    H2240486   7.005   1.665   4.110  1.6605  0.1823  0.2584
   73MOL    H2340487   6.820   1.826   4.196 -0.5121  0.2313  0.3671
   73MOL    H2440488   6.940   1.935   4.258  0.8891 -0.3732  0.0298
   73MOL    H2540489   7.011   2.100   3.916 -0.0178 -1.2689 -0.0893
   73MOL    H2640490   7.081   2.213   3.704  1.3186 -0.3292  0.9702
   73MOL    H2740491   6.880   1.913   3.476  0.5485  1.3194 -0.6527
   73MOL    H2840492   6.812   1.796   3.685  2.2166 -1.0544 -0.9478
   73MOL    H2940493   7.031   1.438   4.245 -0.6020  0.6917 -1.8024
   73MOL    O3040494   7.001   2.091   3.343  0.0174  0.0251  0.6665
   73MOL    C3140495   7.046   2.152   3.222 -0.8556 -0.4895  0.0185
   73MOL    C3240496   6.957   2.092   3.125 -0.2228 -0.2232  0.2011
   73MOL    C3340497   7.010   2.082   2.981  1.1899 -0.1202 -0.0229
   73MOL    C3440498   6.908   2.020   2.883  0.3113 -0.1163  0.4599
   73MOL    O3540499   6.956   2.036   2.743  0.2242 -0.3572 -1.0011
   73MOL    C3640500   6.881   1.966   2.652  0.6745 -0.4306  0.2630
   73MOL    O3740501   6.777   1.899   2.689 -0.0786 -0.6006 -0.1083
   73MOL    C3840502   6.930   1.978   2.509 -0.5116 -0.2194 -0.1987
   73MOL    C3940503   7.043   2.059   2.475  0.3731 -0.0042 -0.1256
   73MOL    C4040504   7.069   2.075   2.335 -0.5113  0.4221  0.2349
   73MOL    C4140505   7.007   1.985   2.237 -0.2211 -0.4051  0.1962
   73MOL    C4240506   7.032   1.990   2.094 -0.4796  0.1478 -0.0484
   73MOL    O4340507   6.953   1.947   2.009 -0.0874 -0.2198 -0.9840
   73MOL    C4440508   6.906   1.898   2.279 -0.3909  0.0727  0.7345
   73MOL    C4540509   6.864   1.902   2.413  0.0229  0.6477  0.2802
   73MOL    H4640510   7.039   2.260   3.214 -1.2059 -0.6260 -1.7245
   73MOL    H4740511   7.152   2.124   3.214 -0.6182  0.2188  0.6537
   73MOL    H4840512   6.856   2.133   3.129 -1.1881 -2.2729 -2.3618
   73MOL    H4940513   6.931   1.990   3.152  2.0672 -1.4980 -2.2987
   73MOL    H5040514   7.030   2.183   2.945  0.9094 -0.6288 -1.6689
   73MOL    H5140515   7.109   2.036   2.982  1.5965  0.7303 -0.5970
   73MOL    H5240516   6.906   1.914   2.908 -1.4637 -0.7661 -2.1317
   73MOL    H5340517   6.814   2.070   2.907  0.3322 -0.4382  1.2113
   73MOL    H5440518   7.089   2.114   2.556  2.1458 -1.9043  0.2320
   73MOL    H5540519   7.146   2.145   2.308 -1.4844  1.9609  1.3947
   73MOL    H5640520   6.858   1.837   2.204 -0.9752 -0.2805  1.3893
   73MOL    H5740521   6.786   1.835   2.446  0.8123  0.5171  1.9112
   73MOL    O5840522   7.150   2.045   2.059  0.0190 -0.4539 -0.1511
   73MOL    C5940523   7.183   2.062   1.922  0.2317  0.1468 -0.3662
   73MOL    C6040524   7.308   2.151   1.920  0.3372  0.3649 -0.0059
   73MOL    C6140525   7.305   2.259   2.030 -0.0512 -0.9431  0.7686
   73MOL    C6240526   7.408   2.373   2.011  0.4781 -0.2264  0.4010
   73MOL    O6340527   7.381   2.468   2.116 -0.2002 -0.1686  0.4440
   73MOL    C6440528   7.451   2.587   2.120 -0.1742 -0.2948  0.6641
   73MOL    O6540529   7.549   2.614   2.051  0.0413  0.1663 -0.6576
   73MOL    C6640530   7.387   2.683   2.206  0.6837  0.4660  0.1388
   73MOL    C6740531   7.464   2.788   2.249 -0.6679  0.6519 -0.3412
   73MOL    C6840532   7.401   2.892   2.318 -0.3622 -0.3648  0.0551
   73MOL    C6940533   7.267   2.892   2.354  0.5822 -0.9146  0.0381
   73MOL    C7040534   7.207   3.005   2.435 -0.0869 -0.6406  0.2407
   73MOL    O7140535   7.265   3.115   2.448  0.3635  0.7100 -0.0095
   73MOL    C7240536   7.187   2.779   2.316 -0.6248 -0.2476  0.6123
   73MOL    C7340537   7.249   2.676   2.236  0.7484 -0.3907  0.0262
   73MOL    H7440538   7.203   1.965   1.877  0.1410  0.9232 -2.1386
   73MOL    H7540539   7.095   2.102   1.871 -0.4677  0.8218  1.3259
   73MOL    H7640540   7.313   2.180   1.815  1.4056 -1.8878 -0.5989
   73MOL    H7740541   7.396   2.088   1.931  1.2858  1.6302 -0.1500
   73MOL    H7840542   7.211   2.311   2.011  1.1214  0.9699 -0.0000
   73MOL    H7940543   7.314   2.225   2.133 -1.5444 -0.4734  1.0727
   73MOL    H8040544   7.512   2.342   2.023  0.8621  0.9212  0.0637
   73MOL    H8140545   7.392   2.418   1.914  0.0664  0.4255  0.7706
   73MOL    H8240546   7.570   2.796   2.235 -0.7866  0.0686 -1.5694
   73MOL    H8340547   7.466   2.970   2.356 -0.8772  1.3788 -2.5080
   73MOL    H8440548   7.081   2.779   2.340 -0.9323 -0.3020 -0.7014
   73MOL    H8540549   7.193   2.587   2.209  0.8166 -0.3942 -0.1023
   73MOL    O8640550   7.082   2.975   2.486  0.5294  0.2571  0.6576
   73MOL    C8740551   7.006   3.073   2.562 -0.0512  0.5074  0.1114
   73MOL    C8840552   6.979   3.013   2.694  0.0514  0.5147  0.7808
   73MOL    C8940553   7.100   2.995   2.789  0.0809  0.6918 -0.3258
   73MOL    C9040554   7.074   2.886   2.895 -0.0283 -0.2882  0.5657
   73MOL    O9140555   6.958   2.906   2.976  0.4176 -0.3076 -0.4133
   73MOL    C9240556   6.836   2.848   2.935  0.3876  0.0375 -1.3429
   73MOL    O9340557   6.819   2.765   2.846 -0.3975 -0.5531  0.1363
   73MOL    C9440558   6.728   2.885   3.031 -0.3273  0.4477  0.6558
   73MOL    C9540559   6.605   2.816   3.031 -0.4518 -0.2345  0.0061
   73MOL    C9640560   6.496   2.831   3.122 -0.0411  0.5634  0.8077
   73MOL    C9740561   6.524   2.927   3.228 -0.2679 -0.6977 -0.6973
   73MOL    C9840562   6.431   2.948   3.345 -0.0330 -0.0795  0.2612
   73MOL    O9940563   6.322   2.886   3.352  0.1004  0.1717 -0.2116
   73MOL   C10040564   6.640   3.010   3.221 -0.4519 -0.2459 -0.3134
   73MOL   C10140565   6.745   2.986   3.131 -0.5294  0.7247 -0.0135
   73MOL   H10240566   7.054   3.170   2.576 -2.5539  1.4402  3.0004
   73MOL   H10340567   6.911   3.097   2.515  0.5725 -0.3407 -1.6229
   73MOL   H10440568   6.930   2.920   2.664  2.2921 -0.9343  1.5098
   73MOL   H10540569   6.894   3.055   2.749  0.0698  1.2180  0.2767
   73MOL   H10640570   7.189   2.967   2.732  1.3104  3.7871 -0.0270
   73MOL   H10740571   7.134   3.090   2.830 -0.2398  0.3812  0.6663
   73MOL   H10840572   7.060   2.787   2.851 -0.3797 -0.9512  2.1453
   73MOL   H10940573   7.153   2.878   2.970  0.8851  0.4538 -0.3200
   73MOL   H11040574   6.583   2.752   2.947  1.4935 -0.5192 -0.3194
   73MOL   H11140575   6.400   2.783   3.118  0.3304 -0.0174 -2.2005
   73MOL   H11240576   6.652   3.091   3.290 -0.4676 -1.3019  0.9397
   73MOL   H11340577   6.827   3.053   3.111 -1.1197  0.6598 -2.9351
   73MOL   O11440578   6.483   3.027   3.441  0.4227  0.3910  0.4014
   73MOL   C11540579   6.412   3.028   3.568  0.4518  0.4297  0.3967
   73MOL   C11640580   6.463   3.153   3.635 -0.1503 -1.0297 -0.3879
   73MOL   C11740581   6.611   3.134   3.691  0.6155  0.0413  0.3566
   73MOL   C11840582   6.685   3.264   3.703 -0.5064 -0.1023 -0.1661
   73MOL   O11940583   6.616   3.357   3.785 -0.0559 -0.6287 -0.0353
   73MOL   C12040584   6.645   3.490   3.781  0.4632 -0.2275 -0.2763
   73MOL   O12140585   6.724   3.545   3.702 -0.3945 -0.8430 -0.0141
   73MOL   C12240586   6.570   3.563   3.889  0.2926  0.4243  0.1640
   73MOL   C12340587   6.623   3.686   3.937  0.4479 -0.2460  0.5176
   73MOL   C12440588   6.569   3.749   4.051 -0.1147  0.6356 -0.2436
   73MOL   C12540589   6.461   3.692   4.114 -0.0167 -0.0637  0.2611
   73MOL   C12640590   6.393   3.753   4.226 -0.2970 -0.0514  0.2035
   73MOL   O12740591   6.286   3.714   4.276 -0.4484 -0.2925  0.1004
   73MOL   C12840592   6.395   3.580   4.054  0.2024  0.2081 -0.1673
   73MOL   C12940593   6.455   3.513   3.945  0.2732 -0.3510 -0.2435
   73MOL   H13040594   6.306   3.044   3.548  0.4207  0.5326  0.6398
   73MOL   H13140595   6.425   2.936   3.625 -0.7240 -0.7261 -1.1397
   73MOL   H13240596   6.405   3.188   3.721  0.6339  0.0020 -0.2688
   73MOL   H13340597   6.454   3.229   3.558 -1.2732 -1.6824 -0.9018
   73MOL   H13440598   6.616   3.085   3.788  0.7001  1.0527  0.8745
   73MOL   H13540599   6.669   3.066   3.629  0.8037 -0.6591  1.2927
   73MOL   H13640600   6.786   3.246   3.741  0.1113 -0.5915 -1.9470
   73MOL   H13740601   6.708   3.315   3.609 -1.6860  2.1915  0.7611
   73MOL   H13840602   6.709   3.724   3.885 -0.7839  1.7199 -0.1477
   73MOL   H13940603   6.606   3.840   4.096  0.9300 -0.7276  1.7327
   73MOL   H14040604   6.309   3.539   4.105  0.4868 -1.4782 -0.9932
   73MOL   H14140605   6.407   3.424   3.907  0.7970 -1.1452  0.9258
   73MOL   O14240606   6.460   3.859   4.270 -0.0415 -0.7489  0.0103
   73MOL   C14340607   6.413   3.935   4.381 -0.8847  0.3757 -0.0476
   73MOL   C14440608   6.526   4.018   4.433  0.2463 -0.0322  0.5068
   73MOL   C14540609   6.468   4.141   4.510 -0.3384 -0.2156 -0.1869
   73MOL   C14640610   6.569   4.203   4.606  0.2297  0.1864  0.1041
   73MOL   O14740611   6.523   4.324   4.648  0.5571 -0.4530 -0.5543
   73MOL   C14840612   6.598   4.401   4.719  0.4940  0.3424 -0.2306
   73MOL   O14940613   6.692   4.362   4.785 -0.5123 -0.0341 -0.4888
   73MOL   C15040614   6.543   4.535   4.742 -0.2710  0.2524  0.2420
   73MOL   C15140615   6.600   4.629   4.834  0.2452  0.4085 -0.3492
   73MOL   C15240616   6.548   4.757   4.854 -0.0703  0.2463  0.1034
   73MOL   C15340617   6.426   4.795   4.785  0.0035 -0.8007 -0.8707
   73MOL   C15440618   6.374   4.930   4.799  0.0662  0.1300 -0.0786
   73MOL   O15540619   6.265   4.966   4.757 -0.0761  0.1050  0.9166
   73MOL   C15640620   6.361   4.700   4.705 -0.4935 -0.0273  0.1171
   73MOL   C15740621   6.420   4.577   4.684  0.4032  0.8761 -0.5139
   73MOL   H15840622   6.328   3.999   4.359 -0.3492  0.8918 -0.6425
   73MOL   H15940623   6.387   3.871   4.466 -1.6661 -0.0707 -0.6157
   73MOL   H16040624   6.574   4.051   4.342 -1.8392  0.3869 -0.4756
   73MOL   H16140625   6.596   3.957   4.491  1.3255 -1.5537 -2.3433
   73MOL   H16240626   6.434   4.217   4.440  1.1251 -0.8293 -1.5890
   73MOL   H16340627   6.387   4.106   4.575  1.0189 -0.7344  1.2502
   73MOL   H16440628   6.586   4.144   4.696 -3.2944  1.2264  1.5374
   73MOL   H16540629   6.668   4.216   4.563  1.4189 -3.1796  1.6211
   73MOL   H16640630   6.694   4.601   4.880 -0.0864  1.2627  0.8665
   73MOL   H16740631   6.602   4.831   4.911  1.1398  0.9224 -1.8894
   73MOL   H16840632   6.259   4.721   4.678  0.4267 -0.4339 -3.9920
   73MOL   H16940633   6.370   4.513   4.613 -2.1287  1.2123  0.9225
   73MOL   O17040634   6.468   5.010   4.837  0.3069 -0.4522 -0.2499
   73MOL   C17140635   6.442   5.146   4.859  0.0076  0.0934 -0.2517
   73MOL   C17240636   6.570   5.226   4.854 -0.0594 -0.7722  0.1249
   73MOL   C17340637   6.667   5.179   4.957  0.2428  0.2432  0.0872
   73MOL   C17440638   6.789   5.266   4.996  0.3115 -0.5096  0.2492
   73MOL   O17540639   6.879   5.281   4.891 -0.2761 -0.7085  0.3134
   73MOL   C17640640   6.991   5.202   4.887 -0.4159 -0.2479  0.4321
   73MOL   O17740641   7.017   5.121   4.970 -0.1224 -0.5060  0.1725
   73MOL   C17840642   7.076   5.215   4.766 -0.3131  0.2606  0.2629
   73MOL   C17940643   7.045   5.313   4.671 -0.8223 -0.8254 -0.0771
   73MOL   C18040644   7.126   5.334   4.560 -1.1493  0.4118  0.0029
   73MOL   C18140645   7.239   5.251   4.533  0.1534 -0.7078  0.0764
   73MOL   C18240646   7.320   5.273   4.409  0.1420 -0.6653 -0.2404
   73MOL   O18340647   7.277   5.344   4.316 -0.2895  0.2561 -0.1517
   73MOL   C18440648   7.270   5.151   4.626  0.6061 -0.0925  0.4948
   73MOL   C18540649   7.193   5.133   4.742  0.0281 -0.1424 -0.3454
   73MOL   H18640650   6.365   5.180   4.790 -0.0099 -1.0355 -0.8127
   73MOL   H18740651   6.408   5.159   4.962 -0.9715  1.9679 -0.7913
   73MOL   H18840652   6.541   5.329   4.872  0.3336 -0.9118  1.6118
   73MOL   H18940653   6.614   5.209   4.755 -0.1070 -1.1716  0.1694
   73MOL   H19040654   6.615   5.163   5.052 -1.6939 -1.2508 -1.1956
   73MOL   H19140655   6.706   5.081   4.931 -0.8941 -0.1205 -0.2427
   73MOL   H19240656   6.747   5.365   5.012  0.5789 -0.3835  0.1813
   73MOL   H19340657   6.821   5.236   5.095  0.1485  0.6743  0.6595
   73MOL   H19440658   6.958   5.376   4.683 -0.1462 -0.1484  1.4145
   73MOL   H19540659   7.101   5.420   4.499  2.2034  0.1107 -1.9264
   73MOL   H19640660   7.365   5.100   4.620  0.3561 -0.5906  0.6959
   73MOL   H19740661   7.215   5.061   4.820 -0.0988 -0.2527 -0.4131
   73MOL   O19840662   7.427   5.197   4.405 -0.2490  0.3127 -0.2250
   73MOL   C19940663   7.513   5.224   4.300  0.2720  0.3804 -0.2765
   73MOL   C20040664   7.650   5.173   4.341  0.7083  0.1708 -0.3300
   73MOL   C20140665   7.751   5.235   4.255 -0.0065 -0.3948  0.5326
   73MOL   C20240666   7.743   5.228   4.106  0.3165 -0.0538 -0.3166
   73MOL   O20340667   7.788   5.106   4.057  0.2947  0.2069  0.4675
   73MOL   C20440668   7.806   5.077   3.920  0.1931 -1.3536 -0.1212
   73MOL   O20540669   7.764   5.157   3.833 -0.3938 -0.3245 -0.0054
   73MOL   C20640670   7.852   4.936   3.898 -0.6506 -0.3790  0.0041
   73MOL   C20740671   7.885   4.847   4.004 -0.2642 -0.1122 -0.6097
   73MOL   C20840672   7.904   4.711   3.981  0.7176  0.8727 -0.1847
   73MOL   C20940673   7.893   4.666   3.853  0.3518  0.1438 -0.0230
   73MOL   C21040674   7.899   4.524   3.812  0.4025 -0.2772  0.2782
   73MOL   O21140675   7.979   4.479   3.733 -0.4445 -0.3875  0.3661
   73MOL   C21240676   7.874   4.753   3.739  0.6396 -0.1437  0.3435
   73MOL   C21340677   7.844   4.883   3.767 -0.1740 -0.4986 -0.3756
   73MOL   H21440678   7.459   5.177   4.218  1.1513  1.0134 -1.2251
   73MOL   H21540679   7.511   5.331   4.282  0.3199  0.4926  0.3661
   73MOL   H21640680   7.664   5.065   4.334 -2.3036 -0.1729 -2.6093
   73MOL   H21740681   7.672   5.196   4.445  0.5346 -0.2768 -0.1901
   73MOL   H21840682   7.747   5.342   4.270  0.8678 -0.1388 -1.0303
   73MOL   H21940683   7.848   5.194   4.284  0.1886  0.7611  1.5463
   73MOL   H22040684   7.639   5.249   4.078 -0.6357 -0.3223  2.8591
   73MOL   H22140685   7.811   5.304   4.069  0.8032 -1.5498 -2.6443
   73MOL   H22240686   7.879   4.886   4.105  1.0947  0.9786 -0.9302
   73MOL   H22340687   7.928   4.647   4.065 -0.4132  1.2044  0.4078
   73MOL   H22440688   7.860   4.707   3.642 -0.5354 -1.3130  1.0582
   73MOL   H22540689   7.810   4.935   3.679  1.0169 -1.0618 -1.1728
   73MOL   O22640690   7.809   4.452   3.879 -0.2525  0.7552  0.3995
   73MOL   C22740691   7.804   4.313   3.851 -0.3635  0.1307 -0.3384
   73MOL   C22840692   7.709   4.279   3.729 -0.4370  0.0332  0.0944
   73MOL   C22940693   7.561   4.272   3.763  0.6114  0.6400 -0.2639
   73MOL   C23040694   7.496   4.410   3.794  0.1518 -0.1920  0.5674
   73MOL   O23140695   7.536   4.457   3.920  0.0376  0.4270 -0.3214
   73MOL   C23240696   7.474   4.567   3.966 -0.2481  0.5704  0.2088
   73MOL   O23340697   7.381   4.628   3.911 -0.3477 -0.4658  0.1622
   73MOL   C23440698   7.545   4.617   4.093 -0.5047 -0.8367  0.4459
   73MOL   C23540699   7.493   4.737   4.148  0.3118 -0.4631  0.4557
   73MOL   C23640700   7.554   4.797   4.260  0.2887 -0.2190 -0.4051
   73MOL   C23740701   7.667   4.738   4.317 -0.0668 -0.1867 -0.1208
   73MOL   C23840702   7.701   4.786   4.459 -0.2375 -0.1297  0.4889
   73MOL   O23940703   7.793   4.735   4.523  0.2799 -0.0012 -0.0744
   73MOL   C24040704   7.722   4.616   4.259 -0.5983  0.7293 -0.1940
   73MOL   C24140705   7.657   4.557   4.151  0.0071 -0.3693  0.1830
   73MOL   H24240706   7.906   4.279   3.835 -0.6297 -1.5914  1.4221
   73MOL   H24340707   7.756   4.280   3.943 -2.1997  1.8532 -0.6152
   73MOL   H24440708   7.742   4.179   3.704  0.0052  0.5754 -1.5461
   73MOL   H24540709   7.735   4.354   3.654  1.9810  0.9262  1.7452
   73MOL   H24640710   7.506   4.226   3.681  2.5467 -1.5176 -0.3889
   73MOL   H24740711   7.547   4.204   3.847 -2.3564  0.9154 -0.4723
   73MOL   H24840712   7.519   4.474   3.710 -1.6510 -0.8754 -0.4668
   73MOL   H24940713   7.388   4.397   3.791  0.1266  0.3554 -1.0133
   73MOL   H25040714   7.400   4.772   4.106  0.0340 -0.3574  1.1496
   73MOL   H25140715   7.514   4.892   4.294  0.3609 -0.8132  1.4211
   73MOL   H25240716   7.808   4.569   4.306  0.1334  0.3606 -1.8824
   73MOL   H25340717   7.696   4.471   4.099 -2.5870 -1.1207 -0.5515
   73MOL   O25440718   7.619   4.887   4.502 -0.4058 -0.0604 -0.0222
   73MOL   C25540719   7.639   4.931   4.640  0.0918 -0.3211 -0.1981
   73MOL   C25640720   7.548   4.850   4.740  0.3350 -0.0914  0.0628
   73MOL   C25740721   7.567   4.917   4.875 -0.5841  0.0610 -1.0191
   73MOL   C25840722   7.650   4.831   4.974 -0.7757  0.0297 -0.5032
   73MOL   O25940723   7.789   4.837   4.928 -0.3546 -0.1549 -0.5444
   73MOL   C26040724   7.884   4.759   4.989 -0.0262  0.3275  0.6704
   73MOL   O26140725   7.853   4.683   5.085 -0.6579  0.3328 -0.0265
   73MOL   C26240726   8.012   4.762   4.917  0.2493 -0.4516  0.0954
   73MOL   C26340727   8.027   4.834   4.800  0.6186  0.6368 -0.6204
   73MOL   C26440728   0.049   4.828   4.724 -0.5003  0.1753  0.1282
   73MOL   C26540729   0.153   4.747   4.761  0.2796 -0.0934  1.2447
   73MOL   C26640730   0.277   4.740   4.682 -0.1165 -0.5536 -0.6808
   73MOL   O26740731   0.294   4.778   4.569 -0.0891  0.1278  0.4271
   73MOL   C26840732   0.144   4.677   4.883 -0.8850 -0.0016  0.2337
   73MOL   C26940733   0.019   4.684   4.956  0.0839 -0.7817 -0.2338
   73MOL   H27040734   7.745   4.934   4.665 -0.0353 -0.3300  0.3385
   73MOL   H27140735   7.608   5.035   4.644  2.0273  0.3114 -0.7965
   73MOL   H27240736   7.574   4.745   4.731 -0.6159 -0.2320 -1.1650
   73MOL   H27340737   7.447   4.877   4.708 -0.5811  0.5698  3.3650
   73MOL   H27440738   7.620   5.012   4.879  3.0119 -1.8985  2.9122
   73MOL   H27540739   7.466   4.930   4.913 -0.8658  1.7568 -2.2843
   73MOL   H27640740   7.639   4.882   5.070 -0.0541 -1.0859  0.1882
   73MOL   H27740741   7.624   4.727   4.993 -0.1442 -0.1831 -0.8042
   73MOL   H27840742   7.949   4.891   4.751  0.2285  1.1995  0.6435
   73MOL   H27940743   0.054   4.884   4.632  1.5007  0.1643  0.2098
   73MOL   H28040744   0.223   4.611   4.916 -1.3306  0.1712  1.7217
   73MOL   H28140745   0.011   4.621   5.044 -1.5617  0.1351  0.2708
   73MOL   O28240746   0.378   4.706   4.758 -0.0499 -0.0262  0.5994
   73MOL   C28340747   0.508   4.685   4.706  0.5096 -0.4670 -0.4318
   73MOL   C28440748   0.589   4.622   4.824 -0.2000  0.6719 -0.6487
   73MOL   C28540749   0.717   4.559   4.780 -0.5077 -0.0406 -0.0514
   73MOL   C28640750   0.807   4.497   4.895 -0.3113 -0.4472  1.1362
   73MOL   O28740751   0.731   4.388   4.953 -0.2491  0.0174  0.2688
   73MOL   C28840752   0.796   4.312   5.040 -0.1352  0.0127  0.5988
   73MOL   O28940753   0.909   4.336   5.079 -0.1260 -0.4658  0.4046
   73MOL   C29040754   0.725   4.182   5.060  0.4638  0.5726  0.2145
   73MOL   C29140755   0.594   4.151   5.007 -0.1457  0.3679 -0.1040
   73MOL   C29240756   0.527   4.034   5.037 -0.8466  0.3721  0.2843
   73MOL   C29340757   0.589   3.941   5.124 -0.5480 -0.0204  0.3044
   73MOL   C29440758   0.521   3.813   5.150 -0.7355 -0.0976  0.9532
   73MOL   O29540759   0.575   3.716   5.199  0.0678 -0.1240 -0.3846
   73MOL   C29640760   0.716   3.968   5.181  0.4527 -0.0282  0.0478
   73MOL   C29740761   0.782   4.090   5.153 -0.0980  0.1426  0.3294
   73MOL   H29840762   0.502   4.610   4.627  0.4415 -0.0076 -0.8653
   73MOL   H29940763   0.554   4.771   4.657  1.7805 -1.2521 -0.6409
   73MOL   H30040764   0.531   4.536   4.858  1.5808 -0.6466 -0.9121
   73MOL   H30140765   0.588   4.693   4.908 -2.6468  0.9549 -0.8782
   73MOL   H30240766   0.689   4.480   4.710  1.1080 -2.1809  1.6626
   73MOL   H30340767   0.775   4.636   4.730 -1.0714  1.0367  0.9143
   73MOL   H30440768   0.906   4.463   4.864  0.3686 -0.6049  3.4013
   73MOL   H30540769   0.831   4.578   4.964 -1.7128  1.8778 -1.0145
   73MOL   H30640770   0.539   4.226   4.953 -0.1843  0.7363  0.4396
   73MOL   H30740771   0.425   4.019   5.002 -0.4221 -0.7908 -0.5138
   73MOL   H30840772   0.747   3.903   5.261 -1.5572 -1.6495 -0.4656
   73MOL   H30940773   0.877   4.102   5.203 -0.1509  0.9219  0.2489
   73MOL   O31040774   0.390   3.813   5.111  0.7340  0.2315  0.2067
   73MOL   C31140775   0.306   3.702   5.140 -0.9454  0.0958  0.1361
   73MOL   C31240776   0.184   3.697   5.048  0.1020 -0.0529  0.2273
   73MOL   C31340777   0.105   3.829   5.029 -0.5689 -0.1193 -0.3246
   73MOL   C31440778   0.045   3.873   5.166 -0.0108  0.2286  0.4799
   73MOL   O31540779   0.129   3.968   5.227  0.4215 -0.5470  0.8640
   73MOL   C31640780   0.085   4.055   5.323  0.4741  0.5706  0.0474
   73MOL   O31740781   8.065   4.065   5.367 -0.0117  0.7771 -0.5495
   73MOL   C31840782   0.189   4.156   5.358 -0.5348  0.4879 -0.0564
   73MOL   C31940783   0.167   4.258   5.454 -0.3577 -0.2310  0.1920
   73MOL   C32040784   0.259   4.355   5.484 -0.1051 -0.1536  0.4944
   73MOL   C32140785   0.386   4.360   5.413  0.2212 -0.0100  0.7141
   73MOL   C32240786   0.491   4.464   5.432  0.4827 -0.4121 -0.0840
   73MOL   O32340787   0.600   4.472   5.366 -0.0068  0.0584  0.0662
   73MOL   C32440788   0.408   4.255   5.315  0.0645 -0.3268 -0.5049
   73MOL   C32540789   0.313   4.160   5.292 -0.1399 -0.2711  0.2193
   73MOL   H32640790   0.356   3.605   5.136  0.5662  0.8548  0.5087
   73MOL   H32740791   0.282   3.713   5.246  0.6195  0.0795  0.5104
   73MOL   H32840792   0.108   3.621   5.064  0.8685 -0.8125  0.2680
   73MOL   H32940793   0.223   3.674   4.949  2.6751 -1.3558  1.5205
   73MOL   H33040794   0.161   3.915   4.992  0.3482 -0.3774  0.4568
   73MOL   H33140795   0.020   3.821   4.962 -0.8777  3.2410 -0.4005
   73MOL   H33240796   8.039   3.893   5.142 -0.5911 -0.9164  1.9556
   73MOL   H33340797   0.016   3.792   5.233 -1.5865 -0.6492 -1.2181
   73MOL   H33440798   0.073   4.276   5.504 -0.5434  1.1862 -0.6259
   73MOL   H33540799   0.232   4.439   5.546 -2.3585 -0.1048 -0.4941
   73MOL   H33640800   0.501   4.251   5.261 -0.6508  1.7282 -1.9282
   73MOL   H33740801   0.330   4.081   5.220  2.1865 -1.1443  1.6729
   73MOL   O33840802   0.465   4.552   5.534  0.1645 -0.0594  0.2017
   73MOL   C33940803   0.549   4.661   5.556 -0.6767 -0.3554  0.3710
   73MOL   C34040804   0.547   4.705   5.701 -0.1779 -0.2807 -0.0234
   73MOL   C34140805   0.603   4.595   5.795 -0.4912 -0.2979  0.6964
   73MOL   C34240806   0.757   4.584   5.777  0.4757 -0.3690 -0.9703
   73MOL   O34340807   0.823   4.709   5.796 -0.8848 -0.0765 -0.3915
   73MOL   C34440808   0.952   4.723   5.745 -0.6589 -0.5869  0.3916
   73MOL   O34540809   1.021   4.627   5.712 -0.3453  0.0748 -0.7069
   73MOL   C34640810   1.006   4.863   5.731 -0.5670 -0.4545  0.2060
   73MOL   C34740811   0.934   4.978   5.765 -0.4754 -0.2452 -0.2839
   73MOL   C34840812   0.988   5.108   5.756  0.0050 -0.0762  0.1144
   73MOL   C34940813   1.116   5.134   5.712  0.4566  0.6259  0.1180
   73MOL   C35040814   1.163   5.269   5.693 -0.4914 -0.3495 -0.3925
   73MOL   O35140815   1.272   5.305   5.650 -0.0847 -0.2226  0.5103
   73MOL   C35240816   1.191   5.020   5.672  0.3794  0.6426 -0.0058
   73MOL   C35340817   1.139   4.889   5.685 -0.8852 -1.0928  0.4333
   73MOL   H35440818   0.653   4.641   5.530 -0.3505 -0.0430  1.4165
   73MOL   H35540819   0.523   4.749   5.498  2.8826 -0.1195 -0.9656
   73MOL   H35640820   0.446   4.722   5.737 -0.5237  4.4102 -2.8035
   73MOL   H35740821   0.600   4.800   5.715 -1.1411  0.1653  0.6449
   73MOL   H35840822   0.578   4.625   5.897  0.0449  2.4867  0.0584
   73MOL   H35940823   0.562   4.496   5.776  2.9736 -1.5573 -0.7169
   73MOL   H36040824   0.788   4.517   5.857 -0.7005  0.8498  0.5463
   73MOL   H36140825   0.774   4.537   5.680  1.4872 -0.7773 -0.5963
   73MOL   H36240826   0.829   4.968   5.787 -0.2313  0.2066  1.1751
   73MOL   H36340827   0.932   5.190   5.798 -1.3030 -2.0304  2.3435
   73MOL   H36440828   1.284   5.023   5.618  0.1358  1.1596 -0.4038
   73MOL   H36540829   1.204   4.809   5.654  2.0669  1.9381 -1.4160
   73MOL   O36640830   1.075   5.363   5.734 -0.7007  0.0315  0.1699
   73MOL   C36740831   1.100   5.496   5.716  0.4495  0.5905  0.0449
   73MOL   C36840832   1.182   5.550   5.845  0.0067  0.5214  0.1018
   73MOL   C36940833   1.189   5.704   5.830 -1.2253 -0.0830 -0.0325
   73MOL   C37040834   1.326   5.751   5.887 -0.1577 -1.0172  0.0639
   73MOL   O37140835   1.371   5.668   6.000 -0.0164 -0.1386  0.8237
   73MOL   C37240836   1.319   5.679   6.123 -0.3112 -0.2246  0.2014
   73MOL   O37340837   1.238   5.770   6.153  0.0593 -0.4956 -0.5305
   73MOL   C37440838   1.365   5.563   6.211  0.2932  0.4181 -0.6677
   73MOL   C37540839   1.449   5.459   6.171  0.1640 -0.0724  0.0773
   73MOL   C37640840   1.477   5.357   6.268  0.3026  0.2497 -0.1751
   73MOL   C37740841   1.415   5.355   6.396 -0.0330  0.6815  0.2927
   73MOL   C37840842   1.456   5.246   6.487  0.4555 -0.4358  0.1948
   73MOL   O37940843   1.455   5.252   6.613 -0.1090  0.0478  0.2804
   73MOL   C38040844   1.329   5.463   6.435 -0.4810  0.0072  0.2081
   73MOL   C38140845   1.305   5.566   6.339  0.0186  0.2975  0.3796
   73MOL   H38240846   1.159   5.505   5.625  0.0051 -2.2598 -0.5772
   73MOL   H38340847   1.008   5.553   5.703 -1.0992 -1.7755  0.3260
   73MOL   H38440848   1.281   5.505   5.838  1.1565  2.9482 -0.0243
   73MOL   H38540849   1.145   5.517   5.942  1.4043 -1.5992 -0.0568
   73MOL   H38640850   1.175   5.735   5.727 -1.8420  2.7375  0.8457
   73MOL   H38740851   1.112   5.753   5.891  1.0928  0.4038  2.6058
   73MOL   H38840852   1.400   5.747   5.808  1.2765 -0.1718  1.3326
   73MOL   H38940853   1.315   5.854   5.922 -0.4962 -1.4352  1.2231
   73MOL   H39040854   1.494   5.454   6.074  1.6881 -0.4304  0.7936
   73MOL   H39140855   1.554   5.286   6.244  0.7722  0.3997  0.8468
   73MOL   H39240856   1.282   5.461   6.532 -1.0907  2.7099 -0.0036
   73MOL   H39340857   1.229   5.638   6.367  0.1738  1.8979 -3.1278
   73MOL   O39440858   1.501   5.136   6.424  0.1374  0.2264 -0.3092
   73MOL   C39540859   1.557   5.036   6.508 -0.6400  0.4166  0.5720
   73MOL   C39640860   1.440   4.946   6.559  0.3873  0.6755  0.0159
   73MOL   C39740861   1.399   4.844   6.449  0.0708 -0.0891  0.6329
   73MOL   C39840862   1.267   4.787   6.474  0.2473  0.0205 -0.6464
   73MOL   O39940863   1.260   4.720   6.598  0.3950  0.1133 -0.3223
   73MOL   C40040864   1.161   4.742   6.685 -0.3795  0.2667 -0.0771
   73MOL   O40140865   1.058   4.799   6.647  0.4829  0.7698  0.0662
   73MOL   C40240866   1.175   4.675   6.819 -0.1104 -0.3600  0.2750
   73MOL   C40340867   1.071   4.677   6.913  0.0383 -0.1870  0.0670
   73MOL   C40440868   1.080   4.610   7.037  0.1332  0.2938 -0.3479
   73MOL   C40540869   1.190   4.528   7.063 -0.5361  0.4186  0.1493
   73MOL   C40640870   1.198   4.445   7.181  0.5149  0.2368 -0.2088
   73MOL   O40740871   1.299   4.380   7.222  0.3387  0.7650 -0.2407
   73MOL   C40840872   1.300   4.524   6.970 -0.0703 -0.0237  0.3484
   73MOL   C40940873   1.294   4.605   6.854  0.3433 -0.0528  0.3346
   73MOL   H41040874   1.624   4.976   6.447 -2.8519  0.0155 -1.5672
   73MOL   H41140875   1.620   5.091   6.578  0.5334 -0.0639 -0.0969
   73MOL   H41240876   1.357   4.993   6.613 -0.3364 -0.7056  0.1353
   73MOL   H41340877   1.480   4.885   6.640 -0.6166  1.7298  1.3239
   73MOL   H41440878   1.400   4.888   6.349 -0.2380  0.3316  0.8124
   73MOL   H41540879   1.475   4.766   6.443 -1.3064 -1.3533 -0.8632
   73MOL   H41640880   1.199   4.872   6.469 -2.1837 -1.7034  1.7859
   73MOL   H41740881   1.236   4.723   6.392 -1.0378  0.5094 -0.5494
   73MOL   H41840882   0.988   4.745   6.900  0.4988  0.5855  1.0727
   73MOL   H41940883   0.992   4.611   7.099  0.3599 -0.5854 -0.0159
   73MOL   H42040884   1.387   4.462   6.984 -0.7258 -0.9801  0.1863
   73MOL   H42140885   1.382   4.598   6.791 -0.1348  1.2681 -0.5110
   73MOL   O42240886   1.074   4.428   7.242  0.5894 -0.3088  0.9305
   73MOL   C42340887   1.041   4.325   7.329  0.2851  0.8178 -0.5478
   73MOL   C42440888   0.883   4.307   7.314 -0.0887  0.4655  0.1511
   73MOL   C42540889   0.844   4.265   7.166  0.0711 -0.3502  0.0754
   73MOL   C42640890   0.698   4.289   7.152  0.7859  0.0919  0.5961
   73MOL   O42740891   0.674   4.426   7.125  0.3088  0.3262  0.0753
   73MOL   C42840892   0.546   4.463   7.090 -0.9280 -0.7616  0.0353
   73MOL   O42940893   0.448   4.392   7.102 -0.2536  0.2327  0.3151
   73MOL   C43040894   0.535   4.595   7.018  0.4282  0.0761  0.0565
   73MOL   C43140895   0.412   4.634   6.957 -0.6923 -0.4882 -0.2802
   73MOL   C43240896   0.405   4.759   6.893 -0.1733 -0.0898  0.6868
   73MOL   C43340897   0.523   4.839   6.874 -0.0656 -0.2380  0.7090
   73MOL   C43440898   0.519   4.966   6.793  0.2094  0.7359 -0.2076
   73MOL   O43540899   0.415   5.024   6.762 -0.1146  0.0884  0.1345
   73MOL   C43640900   0.648   4.796   6.931  0.4598 -0.5085  0.5926
   73MOL   C43740901   0.648   4.678   7.003 -0.4524  0.3075  0.0855
   73MOL   H43840902   1.099   4.236   7.306 -0.7397  0.4976 -1.9183
   73MOL   H43940903   1.048   4.360   7.432 -1.0944 -3.0376  0.9210
   73MOL   H44040904   0.837   4.397   7.354  2.5233  0.8016  2.5187
   73MOL   H44140905   0.850   4.231   7.384 -0.9114 -0.6788 -1.4507
   73MOL   H44240906   0.892   4.328   7.091 -1.1077  0.6288  0.1264
   73MOL   H44340907   0.878   4.162   7.153  1.4615  0.2961 -1.6271
   73MOL   H44440908   0.667   4.235   7.063  0.7071 -0.4031  0.9220
   73MOL   H44540909   0.649   4.242   7.237 -0.9998  1.9280  0.6089
   73MOL   H44640910   0.326   4.569   6.960 -0.1093 -1.3197 -1.0890
   73MOL   H44740911   0.316   4.788   6.839  0.4243 -2.3829 -1.6605
   73MOL   H44840912   0.738   4.856   6.925 -2.0670  3.4385 -0.1972
   73MOL   H44940913   0.744   4.643   7.037 -0.2424  1.6797  0.9430
   73MOL   O45040914   0.643   5.001   6.750  0.2766  0.1256  0.3633
   73MOL   C45140915   0.662   5.114   6.663 -0.3648 -0.3753 -0.5741
   73MOL   C45240916   0.666   5.071   6.515  0.2798  0.0493 -0.1163
   73MOL   C45340917   0.672   5.188   6.417 -0.2606 -0.1638 -0.0392
   73MOL   C45440918   0.709   5.142   6.277  0.0203 -1.2272  0.0284
   73MOL   O45540919   0.714   5.260   6.193  0.2957  0.4256  1.1597
   73MOL   C45640920   0.736   5.240   6.059 -0.2558 -0.2971  0.2586
   73MOL   O45740921   0.736   5.132   6.007 -0.2104 -0.0406  0.1509
   73MOL   C45840922   0.754   5.372   5.985  0.7018 -0.0666 -0.3286
   73MOL   C45940923   0.787   5.494   6.050  0.1637  0.3414  0.5690
   73MOL   C46040924   0.803   5.612   5.976 -0.6340 -0.4806  0.1570
   73MOL   C46140925   0.773   5.616   5.840  0.5021 -0.3041  0.5581
   73MOL   C46240926   0.801   5.739   5.758 -0.6638  0.1033 -0.4825
   73MOL   O46340927   0.783   5.854   5.801 -0.4204 -0.2713  0.8000
   73MOL   C46440928   0.747   5.494   5.771 -0.1554  0.9059  0.0200
   73MOL   C46540929   0.736   5.373   5.845 -0.4512  0.3252  0.6553
   73MOL   H46640930   0.577   5.179   6.684  0.4656  0.5195  0.0869
   73MOL   H46740931   0.752   5.170   6.689 -1.0653  0.1184  0.8241
   73MOL   H46840932   0.577   5.008   6.503 -0.1243  0.0057  2.8486
   73MOL   H46940933   0.761   5.018   6.502 -0.3180 -1.2443  0.6577
   73MOL   H47040934   0.578   5.241   6.409 -0.5506 -1.0921 -3.5546
   73MOL   H47140935   0.742   5.264   6.451  2.3017 -2.1124 -0.7540
   73MOL   H47240936   0.809   5.101   6.260 -0.0426 -1.6927  0.7625
   73MOL   H47340937   0.631   5.078   6.235 -0.9512  1.4740 -2.4321
   73MOL   H47440938   0.817   5.501   6.154  2.3301  0.9231 -0.0784
   73MOL   H47540939   0.849   5.698   6.022 -0.1800 -1.2344  1.1280
   73MOL   H47640940   0.731   5.487   5.664 -2.4725  0.1597  0.3950
   73MOL   H47740941   0.700   5.284   5.795  0.6025  1.1445 -1.6538
   73MOL   O47840942   0.854   5.709   5.636 -0.1748  0.0723 -0.2290
   73MOL   C47940943   0.883   5.811   5.544 -0.4020 -0.8387 -0.2353
   73MOL   C48040944   0.958   5.742   5.424 -0.0205 -0.2730  0.5849
   73MOL   C48140945   0.969   5.835   5.300  0.3580  0.2733 -0.6535
   73MOL   C48240946   1.016   5.773   5.168 -0.0307 -0.7916  0.2027
   73MOL   O48340947   0.946   5.660   5.136  0.4201  0.1195  0.3416
   73MOL   C48440948   1.018   5.541   5.115  0.2629 -0.4849 -0.6577
   73MOL   O48540949   1.136   5.530   5.140  0.3492  0.4383  0.0300
   73MOL   C48640950   0.943   5.422   5.071  0.0460  0.0052 -0.5895
   73MOL   C48740951   0.807   5.439   5.038  0.7064 -0.3906  0.7334
   73MOL   C48840952   0.733   5.331   4.984 -0.1651  1.1928 -0.2836
   73MOL   C48940953   0.796   5.205   4.974  0.7684  0.1391  0.2213
   73MOL   C49040954   0.732   5.095   4.899  0.5345 -0.2615  0.4910
   73MOL   O49140955   0.763   4.977   4.906 -0.0107 -0.5851  0.4414
   73MOL   C49240956   0.925   5.190   5.026  0.5474 -0.0352  0.6415
   73MOL   C49340957   0.999   5.296   5.070 -0.0270  0.6834 -0.7743
   73MOL   H49440958   0.785   5.851   5.518  0.0953  0.4089 -0.2282
   73MOL   H49540959   0.939   5.899   5.576  1.1616 -2.1142  0.5911
   73MOL   H49640960   0.897   5.660   5.387  0.8897 -0.2709 -0.9972
   73MOL   H49740961   1.054   5.692   5.441  1.1552  1.3629 -0.9852
   73MOL   H49840962   0.870   5.878   5.281  0.2595 -0.0750 -0.9273
   73MOL   H49940963   1.030   5.923   5.322  2.3855 -0.7745 -2.0182
   73MOL   H50040964   1.018   5.839   5.081  1.3336  0.1025  0.8913
   73MOL   H50140965   1.122   5.761   5.192 -0.4551 -2.2039  1.3589
   73MOL   H50240966   0.765   5.538   5.028 -0.9095 -1.0381  0.9066
   73MOL   H50340967   0.637   5.360   4.946 -1.8062  0.8446  3.3784
   73MOL   H50440968   0.977   5.095   5.021  0.4197 -0.0335 -0.6782
   73MOL   H50540969   1.097   5.270   5.108 -0.8850  1.4845  2.0961
   73MOL   O50640970   0.627   5.133   4.823  0.2334  0.4250  0.0373
   73MOL   C50740971   0.555   5.028   4.758 -0.3308 -0.6962 -0.4468
   73MOL   C50840972   0.449   5.091   4.676  0.3406  0.8622  0.2828
   73MOL   C50940973   0.337   5.152   4.763 -0.0954 -0.4436  0.3760
   73MOL   C51040974   0.231   5.215   4.675 -0.2189  0.7117 -0.0193
   73MOL   O51140975   0.276   5.311   4.578 -0.0742 -0.5839  0.6875
   73MOL   C51240976   0.274   5.440   4.616  0.0997  0.3956 -0.1562
   73MOL   O51340977   0.218   5.479   4.718  0.1772  0.3521  0.4586
   73MOL   C51440978   0.345   5.528   4.513 -0.3803 -0.3442 -0.2101
   73MOL   C51540979   0.404   5.470   4.401 -0.3822  0.0572 -0.0898
   73MOL   C51640980   0.475   5.548   4.312 -0.1322  0.5237  0.3415
   73MOL   C51740981   0.491   5.689   4.329  0.4379 -0.7230  0.0795
   73MOL   C51840982   0.573   5.778   4.240 -0.0571 -0.1857 -0.3018
   73MOL   O51940983   0.602   5.896   4.261  0.4281 -0.0129 -0.2791
   73MOL   C52040984   0.438   5.745   4.444  0.4876  0.3390  0.4792
   73MOL   C52140985   0.363   5.666   4.534  0.3744 -0.7650 -0.0069
   73MOL   H52240986   0.628   4.967   4.705  1.0866  0.3163  0.3130
   73MOL   H52340987   0.504   4.975   4.838  0.1987 -1.0400 -0.3322
   73MOL   H52440988   0.408   5.021   4.603  0.7008  0.9178  0.0238
   73MOL   H52540989   0.496   5.165   4.611 -1.8970  0.0609 -2.3455
   73MOL   H52640990   0.284   5.075   4.819 -1.9141  0.1290 -0.4894
   73MOL   H52740991   0.376   5.227   4.831 -0.0087  0.1036 -0.2651
   73MOL   H52840992   0.196   5.135   4.610 -1.0198  0.9511  0.1087
   73MOL   H52940993   0.143   5.249   4.729  0.6410 -1.0717  2.5945
   73MOL   H53040994   0.408   5.363   4.386 -0.0931  0.3530 -2.2688
   73MOL   H53140995   0.503   5.493   4.224 -3.5965  0.1254 -0.5836
   73MOL   H53240996   0.448   5.852   4.457 -1.7195  0.9173 -2.2859
   73MOL   H53340997   0.314   5.720   4.613 -1.1130 -0.5974 -1.0379
   73MOL   O53440998   0.624   5.704   4.137  0.1054  0.3963 -0.1135
   73MOL   C53540999   0.686   5.766   4.027 -0.4213  0.0963 -0.2872
   73MOL   C53641000   0.797   5.670   3.972  0.3077 -0.6917  0.0632
   73MOL   C53741001   0.908   5.641   4.075  0.2793 -0.2641  0.1951
   73MOL   C53841002   0.998   5.766   4.101 -0.4099  0.0753  0.1259
   73MOL   O53941003   1.111   5.736   4.184 -0.0897 -0.5239 -0.0069
   73MOL   C54041004   1.106   5.767   4.317 -1.0556  0.0880  0.3075
   73MOL   O54141005   1.004   5.793   4.383  0.1644 -0.0636  0.3081
   73MOL   C54241006   1.243   5.762   4.384  0.6467  0.5696  0.4200
   73MOL   C54341007   1.257   5.790   4.520 -0.5027  0.3352  0.5125
   73MOL   C54441008   1.388   5.811   4.575  0.1407  0.4895  0.3662
   73MOL   C54541009   1.505   5.804   4.497  0.3243  0.4915 -0.6046
   73MOL   C54641010   1.645   5.836   4.553  0.0488  0.2358  0.8905
   73MOL   O54741011   1.664   5.890   4.661 -0.1302 -0.2038  0.1693
   73MOL   C54841012   1.496   5.761   4.361  0.8320 -0.3700 -0.0912
   73MOL   C54941013   1.363   5.736   4.309  0.5104 -0.5683  1.1102
   73MOL   H55041014   0.598   5.784   3.965  2.4160  0.0313 -4.5917
   73MOL   H55141015   0.748   5.855   4.039  0.9980 -0.4970 -2.8292
   73MOL   H55241016   0.843   5.717   3.885  2.3859 -0.5756  1.1863
   73MOL   H55341017   0.756   5.580   3.927 -2.5159  1.5424 -2.0847
   73MOL   H55441018   0.852   5.623   4.167 -1.8164 -2.2546 -1.4208
   73MOL   H55541019   0.966   5.556   4.040 -1.8153 -1.2857 -0.9112
   73MOL   H55641020   1.030   5.815   4.010 -0.8675  1.3612  0.6515
   73MOL   H55741021   0.939   5.847   4.144  1.3120  0.4347  1.8801
   73MOL   H55841022   1.175   5.794   4.591 -1.6275 -1.4018 -0.6696
   73MOL   H55941023   1.389   5.824   4.682 -1.4737  0.1092  0.4387
   73MOL   H56041024   1.579   5.746   4.293  0.3092 -0.3947 -0.7268
   73MOL   H56141025   1.354   5.694   4.210 -1.1957 -0.4593  1.2051
   73MOL   H56241026   1.729   5.799   4.494 -0.7305  0.6011 -0.4582
   74MOL     O141027   1.825   7.869   8.050 -0.4665  0.0954  0.1629
   74MOL     C241028   1.854   8.004   8.076 -0.0180  0.5020 -0.3167
   74MOL     C341029   1.864   8.081   7.942  0.2839 -0.2932  0.5926
   74MOL     C441030   1.960   8.036   7.837 -0.0251  0.1645 -0.0605
   74MOL     C541031   1.945   0.026   7.715  0.0942 -0.1310  0.0678
   74MOL     O641032   1.993   0.157   7.749  0.1178 -0.1727  0.2102
   74MOL     C741033   1.966   0.259   7.666  0.1785 -0.3100 -0.7317
   74MOL     O841034   1.895   0.253   7.561 -0.1186  0.1612 -0.0331
   74MOL     C941035   2.045   0.378   7.704  0.4720 -0.8968 -0.7394
   74MOL    C1041036   2.106   0.390   7.836  0.4504 -0.1359 -1.1230
   74MOL    C1141037   2.188   0.504   7.864 -0.5914 -0.5152 -1.0009
   74MOL    C1241038   2.221   0.593   7.766  0.4559 -0.4011  0.3534
   74MOL    C1341039   2.325   0.697   7.789 -0.4559 -0.7474 -0.4798
   74MOL    O1441040   2.365   0.778   7.698 -0.6212  0.3105 -0.3548
   74MOL    C1541041   2.163   0.584   7.640 -0.1560  0.7377  0.4351
   74MOL    C1641042   2.069   0.483   7.613 -0.4506  0.9120 -0.4134
   74MOL    H1741043   1.768   8.032   0.040 -0.5688 -1.7065 -0.0509
   74MOL    H1841044   1.946   8.019   0.034 -0.6429 -0.5215  1.0040
   74MOL    H1941045   1.894   0.081   7.978 -2.5844  1.0365 -0.5149
   74MOL    H2041046   1.766   8.082   7.895  1.0893 -0.7613 -1.1296
   74MOL    H2141047   2.062   8.058   7.870  0.3927  0.3993 -1.4532
   74MOL    H2241048   1.952   7.931   7.809 -0.4856  0.1676  0.0683
   74MOL    H2341049   1.997   8.088   7.627 -1.3642  4.1409 -2.7560
   74MOL    H2441050   1.840   0.035   7.687 -0.3437 -0.1112  1.6189
   74MOL    H2541051   2.089   0.315   7.912 -3.4912  0.6393 -1.1068
   74MOL    H2641052   2.236   0.502   7.961 -2.4122  0.9813 -0.0343
   74MOL    H2741053   2.193   0.654   7.564 -2.3316 -0.0307 -1.1922
   74MOL    H2841054   2.031   0.482   7.512  0.9289 -2.3781 -0.9639
   74MOL    H2941055   1.882   7.835   7.983  0.1057  0.2858  0.5422
   74MOL    O3041056   2.379   0.697   7.910 -0.1062 -0.3604 -0.3923
   74MOL    C3141057   2.475   0.793   7.947 -0.2286 -0.0136 -0.6171
   74MOL    C3241058   2.426   0.903   8.041 -0.4414 -0.0898  0.3080
   74MOL    C3341059   2.375   0.850   0.076 -0.2948 -0.2131  1.2079
   74MOL    C3441060   2.368   0.950   0.188  0.3470 -0.2106  0.0442
   74MOL    O3541061   2.497   0.991   0.233  0.2633  0.3312  0.2122
   74MOL    C3641062   2.545   1.114   0.222 -0.3311 -0.0572  0.3356
   74MOL    O3741063   2.490   1.215   0.172  0.2345 -0.7625  0.1817
   74MOL    C3841064   2.683   1.116   0.289  0.3978  0.2644  0.5579
   74MOL    C3941065   2.727   1.008   0.367 -0.2811 -0.2874 -0.1963
   74MOL    C4041066   2.854   1.012   0.416 -0.0880  0.2411 -0.4009
   74MOL    C4141067   2.939   1.121   0.391 -0.0029 -1.3314 -0.3213
   74MOL    C4241068   3.081   1.121   0.444  0.5067 -0.1634  0.5962
   74MOL    O4341069   3.149   1.226   0.453  0.9657  0.4925  0.5680
   74MOL    C4441070   2.890   1.232   0.320 -1.3060 -0.4902  0.0239
   74MOL    C4541071   2.759   1.235   0.276 -0.4065 -0.3288 -0.1566
   74MOL    H4641072   2.557   0.735   7.988  0.6053  0.8266 -1.0573
   74MOL    H4741073   2.513   0.849   7.861  1.6728  1.6677  1.2770
   74MOL    H4841074   2.344   0.958   7.995 -0.0189 -0.7098 -1.2175
   74MOL    H4941075   2.509   0.974   8.049 -1.7249  1.2269  2.3502
   74MOL    H5041076   2.274   0.810   0.070  0.5169 -2.4976  1.9686
   74MOL    H5141077   2.425   0.756   0.102 -1.1096 -1.5848 -1.8819
   74MOL    H5241078   2.315   1.040   0.157 -1.0450 -0.0682  2.7037
   74MOL    H5341079   2.314   0.921   0.278  0.4253 -0.6929 -0.0657
   74MOL    H5441080   2.674   0.915   0.380  1.8190 -1.4237  0.6534
   74MOL    H5541081   2.885   0.929   0.478 -0.4995 -0.0836 -0.6294
   74MOL    H5641082   2.951   1.316   0.291  0.8793 -2.3825 -0.9760
   74MOL    H5741083   2.732   1.328   0.228  0.7249 -0.2405 -0.6342
   74MOL    O5841084   3.120   1.002   0.491  0.0153 -0.0509 -0.2805
   74MOL    C5941085   3.263   0.988   0.501  0.2296  0.3675 -0.4050
   74MOL    C6041086   3.295   0.843   0.534  0.5275 -0.4076 -0.2349
   74MOL    C6141087   3.308   0.764   0.399 -0.3658 -0.0643 -0.2108
   74MOL    C6241088   3.328   0.620   0.415 -0.7449  0.1886  0.8236
   74MOL    O6341089   3.365   0.565   0.284  0.6920 -0.5261 -0.7843
   74MOL    C6441090   3.269   0.500   0.204 -0.0601 -0.1648 -0.0935
   74MOL    O6541091   3.151   0.478   0.239  0.2305  0.3611 -0.3291
   74MOL    C6641092   3.326   0.462   0.070 -0.1789 -0.4506 -0.2393
   74MOL    C6741093   3.465   0.464   0.041 -0.4920 -0.5518 -0.0857
   74MOL    C6841094   3.511   0.451   8.003 -0.2084 -0.6287 -0.1898
   74MOL    C6941095   3.418   0.398   7.903 -0.2302  0.7759  0.3329
   74MOL    C7041096   3.457   0.346   7.767  0.0459  0.3097 -0.1223
   74MOL    O7141097   3.376   0.289   7.694 -0.1125  0.2065 -0.6353
   74MOL    C7241098   3.282   0.386   7.941 -0.6759 -0.1015  0.4222
   74MOL    C7341099   3.245   0.416   8.068  0.3078  0.5412  0.5612
   74MOL    H7441100   3.316   1.025   0.414  1.4539 -1.1776 -0.3510
   74MOL    H7541101   3.308   1.049   0.580 -1.4939  0.3297  0.6319
   74MOL    H7641102   3.223   0.808   0.607 -1.0366  1.5975 -0.7757
   74MOL    H7741103   3.393   0.844   0.582  1.0899  1.3857 -1.3829
   74MOL    H7841104   3.217   0.782   0.342 -1.7438 -1.2528  1.5444
   74MOL    H7941105   3.390   0.799   0.336 -3.1014  0.1818 -3.7477
   74MOL    H8041106   3.410   0.604   0.485 -0.2036 -0.3274  0.0888
   74MOL    H8141107   3.241   0.574   0.461 -0.5768  0.3129  1.2616
   74MOL    H8241108   3.542   0.494   0.111  0.1518  2.6285 -2.0218
   74MOL    H8341109   3.612   0.475   7.973 -0.2087 -0.0784  0.2318
   74MOL    H8441110   3.201   0.348   7.881 -0.7231 -2.5436  1.9354
   74MOL    H8541111   3.140   0.417   8.091  0.2967 -2.4733  0.7548
   74MOL    O8641112   3.587   0.356   7.737 -0.1543 -0.5372 -0.5992
   74MOL    C8741113   3.632   0.300   7.614  0.5760 -0.1853 -0.4612
   74MOL    C8841114   3.683   0.387   7.503  0.1464 -0.2840  0.3519
   74MOL    C8941115   3.582   0.470   7.432 -0.0154 -0.3842  0.3182
   74MOL    C9041116   3.640   0.551   7.316 -0.2417  0.0105  0.6533
   74MOL    O9141117   3.682   0.681   7.365  0.3937 -0.4035  0.0004
   74MOL    C9241118   3.770   0.762   7.300 -0.0781  0.3414  0.4661
   74MOL    O9341119   3.835   0.721   7.206  0.8636 -0.1275  0.1636
   74MOL    C9441120   3.788   0.887   7.371 -0.7869 -0.4066 -0.3327
   74MOL    C9541121   3.894   0.963   7.327 -0.1088  0.0682  0.1784
   74MOL    C9641122   3.912   1.094   7.375 -0.6635  0.2901 -0.7897
   74MOL    C9741123   3.835   1.131   7.484  0.0379 -0.4977 -0.5597
   74MOL    C9841124   3.862   1.268   7.549  0.6740  0.2837  0.0893
   74MOL    O9941125   3.958   1.340   7.529  0.2363 -0.2130 -0.0559
   74MOL   C10041126   3.727   1.058   7.532  0.3476  0.7523  0.7321
   74MOL   C10141127   3.703   0.936   7.472  0.6147 -0.0158  0.3601
   74MOL   H10241128   3.705   0.228   7.650 -1.2350 -2.4652 -1.2234
   74MOL   H10341129   3.550   0.244   7.570 -0.2607 -1.2073  2.3003
   74MOL   H10441130   3.728   0.325   7.425  0.2701 -0.1699  0.3321
   74MOL   H10541131   3.757   0.457   7.541 -2.3234  1.4539  2.1008
   74MOL   H10641132   3.501   0.410   7.392 -0.5015 -3.1121  4.9993
   74MOL   H10741133   3.521   0.537   7.494 -2.7502 -1.8260 -0.7490
   74MOL   H10841134   3.717   0.495   7.261  0.5616  0.7754  0.9957
   74MOL   H10941135   3.560   0.572   7.245  1.8402 -0.8584 -2.0260
   74MOL   H11041136   3.967   0.921   7.259 -1.0422 -0.5618 -0.4421
   74MOL   H11141137   3.987   1.159   7.332 -2.0263  0.9313 -2.2327
   74MOL   H11241138   3.672   1.089   7.620 -1.3487  0.4053 -0.1900
   74MOL   H11341139   3.620   0.883   7.516 -0.5121 -0.1121 -1.8290
   74MOL   O11441140   3.766   1.302   7.636 -0.6490 -0.1495 -0.6259
   74MOL   C11541141   3.791   1.412   7.728  0.1789  0.0680 -0.1916
   74MOL   C11641142   3.648   1.448   7.780 -0.2164  0.8404 -0.3631
   74MOL   C11741143   3.544   1.490   7.678  0.5553  0.3737  0.3994
   74MOL   C11841144   3.433   1.573   7.736  0.4003 -0.0251  0.8806
   74MOL   O11941145   3.349   1.488   7.802 -0.1918 -0.6660  0.0609
   74MOL   C12041146   3.283   1.504   7.927 -0.2115  0.4970  0.2092
   74MOL   O12141147   3.259   1.614   7.978  0.0717  0.5638 -0.0879
   74MOL   C12241148   3.249   1.370   7.991  0.1357 -0.5822  0.2520
   74MOL   C12341149   3.252   1.250   7.911  0.1078  0.3429  1.1535
   74MOL   C12441150   3.221   1.125   7.965 -0.1778  0.1085  0.3708
   74MOL   C12541151   3.183   1.118   0.005  0.6136  0.6952 -0.7378
   74MOL   C12641152   3.148   0.991   0.075 -0.0682  0.6954 -0.4740
   74MOL   O12741153   3.158   0.971   0.191  0.3266 -0.2307 -0.4140
   74MOL   C12841154   3.180   1.235   0.084 -0.0075 -0.2738  0.5781
   74MOL   C12941155   3.207   1.361   0.025  0.4045 -0.1244 -0.5181
   74MOL   H13041156   3.869   1.393   7.801 -0.8233 -2.7008  0.2291
   74MOL   H13141157   3.824   1.505   7.682 -0.5770  0.7816  0.7193
   74MOL   H13241158   3.647   1.525   7.857 -0.2005  1.6849 -1.2108
   74MOL   H13341159   3.603   1.357   7.821 -0.6756  1.2151 -0.0426
   74MOL   H13441160   3.595   1.550   7.603 -0.6768  0.9928  0.0339
   74MOL   H13541161   3.504   1.398   7.636  1.1719  0.1520  0.2921
   74MOL   H13641162   3.478   1.654   7.792 -2.1342  0.1470  2.7696
   74MOL   H13741163   3.375   1.618   7.655  2.1088 -0.9537 -0.8964
   74MOL   H13841164   3.269   1.263   7.806 -1.2102  1.2818  1.0518
   74MOL   H13941165   3.225   1.047   7.891 -0.4432 -0.4898  0.9766
   74MOL   H14041166   3.143   1.229   0.186  0.0540  0.8556  0.6666
   74MOL   H14141167   3.201   1.453   0.081  1.6898  0.3106 -1.0610
   74MOL   O14241168   3.114   0.897   8.086 -0.4843  0.3373  0.2924
   74MOL   C14341169   3.083   0.765   0.029 -0.5818 -0.2007  0.2147
   74MOL   C14441170   2.970   0.718   8.034 -0.5578 -0.7394  0.2863
   74MOL   C14541171   2.834   0.780   8.054  0.3668 -0.3392 -0.4793
   74MOL   C14641172   2.786   0.767   0.103 -0.1368 -0.6486 -0.0914
   74MOL   O14741173   2.762   0.629   0.117  0.0137 -0.3066  0.2197
   74MOL   C14841174   2.705   0.587   0.233 -0.0881  0.1562  0.4266
   74MOL   O14941175   2.655   0.662   0.309  0.0908 -0.2018 -0.5356
   74MOL   C15041176   2.710   0.436   0.249  0.2040  0.0365 -0.1756
   74MOL   C15141177   2.783   0.351   0.160 -0.7815 -0.4089 -0.3706
   74MOL   C15241178   2.763   0.210   0.169 -0.1130  0.2470 -0.1882
   74MOL   C15341179   2.672   0.148   0.254 -0.1428 -0.4958 -0.5834
   74MOL   C15441180   2.634   0.009   0.244 -0.0256 -0.1667  0.4500
   74MOL   O15541181   2.525   8.065   0.277 -0.2064  0.2363 -0.0904
   74MOL   C15641182   2.609   0.234   0.348 -0.9478 -0.0847 -0.0989
   74MOL   C15741183   2.636   0.373   0.351 -0.5592 -0.4996  0.7311
   74MOL   H15841184   3.168   0.704   8.096 -0.0676  0.3895  0.4497
   74MOL   H15941185   3.069   0.750   0.137  1.2676 -0.5593  0.4258
   74MOL   H16041186   2.965   0.610   8.047  1.0057 -0.9248 -0.6396
   74MOL   H16141187   3.010   0.735   7.934  1.8218 -1.1120  1.1458
   74MOL   H16241188   2.831   0.886   8.027 -0.8940 -0.1497  0.3536
   74MOL   H16341189   2.762   0.728   7.991 -0.1333 -0.5683  0.2706
   74MOL   H16441190   2.856   0.811   0.174 -0.1117  0.6560 -0.9078
   74MOL   H16541191   2.692   0.821   0.113 -0.7089 -1.3599 -1.5405
   74MOL   H16641192   2.836   0.393   0.076  2.0981  1.4255  2.2689
   74MOL   H16741193   2.812   0.150   0.094  0.5003  1.1309 -0.5105
   74MOL   H16841194   2.540   0.193   0.420  0.7631 -1.1994  0.9106
   74MOL   H16941195   2.584   0.436   0.421  1.5601  0.2710  1.6518
   74MOL   O17041196   2.733   8.029   0.189  0.4439 -0.6481  0.2914
   74MOL   C17141197   2.688   7.894   0.158  1.1078  0.4250  0.1570
   74MOL   C17241198   2.806   7.808   0.098 -0.1004  0.4537 -0.3703
   74MOL   C17341199   2.863   7.859   8.063 -0.0631  0.0124  0.6284
   74MOL   C17441200   2.764   7.864   7.937  0.2818  0.1053  0.1322
   74MOL   O17541201   2.648   7.944   7.954  0.0459 -0.1011  0.3213
   74MOL   C17641202   2.650   8.084   7.956 -0.6000  0.8985  0.4507
   74MOL   O17741203   2.753   0.043   7.923  0.2470 -0.5000  0.3797
   74MOL   C17841204   2.526   0.049   7.996 -0.2701 -0.0220  0.2689
   74MOL   C17941205   2.534   0.182   8.046 -0.3045 -1.0264  0.8913
   74MOL   C18041206   2.416   0.242   8.094 -1.0909  0.0362 -0.4982
   74MOL   C18141207   2.293   0.174   8.097  0.4142  0.0835 -0.5655
   74MOL   C18241208   2.180   0.244   0.065 -0.1810  0.4119 -0.3372
   74MOL   O18341209   2.067   0.195   0.080 -0.1022  0.1632  0.4910
   74MOL   C18441210   2.287   0.046   8.043 -0.1525  0.6140  0.1142
   74MOL   C18541211   2.405   8.083   7.992  0.1141  0.3754  0.5006
   74MOL   H18641212   2.663   7.839   0.249  1.5358 -2.9286 -1.6530
   74MOL   H18741213   2.596   7.890   0.100  0.3197  0.1188  1.4139
   74MOL   H18841214   2.767   7.707   0.092 -1.4323  0.8657  0.9849
   74MOL   H18941215   2.884   7.804   0.174 -1.6034  3.4867  1.4428
   74MOL   H19041216   2.894   7.961   8.086 -1.2818  0.7942 -1.0901
   74MOL   H19141217   2.951   7.801   8.037 -0.7027 -0.6009 -0.2114
   74MOL   H19241218   2.820   7.903   7.852  0.3518 -1.4292 -0.5420
   74MOL   H19341219   2.731   7.762   7.916 -3.8712  1.5290 -0.7151
   74MOL   H19441220   2.627   0.236   8.046 -1.3110  0.7559 -0.4871
   74MOL   H19541221   2.430   0.336   0.046  0.4932 -0.9100  0.8801
   74MOL   H19641222   2.189   8.098   8.046 -0.6060  1.5658  0.3514
   74MOL   H19741223   2.415   7.987   7.944 -1.2695  1.4440 -2.0577
   74MOL   O19841224   2.215   0.354   0.126  0.1355  0.5908  0.2016
   74MOL   C19941225   2.114   0.436   0.195  0.5404 -0.2970  0.1801
   74MOL   C20041226   2.181   0.534   0.289 -0.5087 -0.2110 -0.1393
   74MOL   C20141227   2.281   0.456   0.386 -0.3002  0.2038 -0.7402
   74MOL   C20241228   2.217   0.414   0.520 -0.0859 -0.2812  0.7963
   74MOL   O20341229   2.101   0.345   0.484  0.0584  0.1296  0.3602
   74MOL   C20441230   1.987   0.351   0.562  0.5467 -0.1043 -0.2776
   74MOL   O20541231   1.978   0.423   0.663 -0.3419 -0.1708  0.6390
   74MOL   C20641232   1.864   0.269   0.518  0.4235 -0.5479 -0.5485
   74MOL   C20741233   1.739   0.283   0.582  0.6881  0.2601  0.2561
   74MOL   C20841234   1.632   0.208   0.537  0.4805  0.1541  0.3318
   74MOL   C20941235   1.653   0.118   0.428 -0.7017 -0.2784  0.4755
   74MOL   C21041236   1.535   0.037   0.381 -0.6504 -0.0951  0.2079
   74MOL   O21141237   1.424   0.054   0.427  0.2231  0.2724  0.2954
   74MOL   C21241238   1.780   0.097   0.374 -0.0746  0.5530  0.8488
   74MOL   C21341239   1.886   0.170   0.420 -0.3357 -0.4178 -0.3838
   74MOL   H21441240   2.051   0.498   0.131  0.1247  0.1217  0.9970
   74MOL   H21541241   2.047   0.372   0.252 -0.7104  0.5889 -0.2786
   74MOL   H21641242   2.114   0.588   0.355  0.1262 -0.8375  1.0365
   74MOL   H21741243   2.228   0.601   0.217  2.5430 -3.3182 -1.1872
   74MOL   H21841244   2.335   0.377   0.334  4.1282  1.9190  0.9953
   74MOL   H21941245   2.359   0.530   0.405  1.9722 -2.0403 -1.0451
   74MOL   H22041246   2.285   0.363   0.587  0.8577  0.4727  0.4269
   74MOL   H22141247   2.202   0.510   0.570 -1.0549 -0.4912  0.9224
   74MOL   H22241248   1.716   0.345   0.667 -1.0630 -0.5405  0.3875
   74MOL   H22341249   1.530   0.218   0.571 -0.5948  0.0677 -2.7038
   74MOL   H22441250   1.797   0.030   0.291  1.6109  3.4607 -1.2355
   74MOL   H22541251   1.981   0.159   0.370  1.0976  1.6155  1.8183
   74MOL   O22641252   1.567   8.041   0.291  0.1530 -0.2801  0.0968
   74MOL   C22741253   1.463   7.960   0.232 -0.0139 -0.3845 -0.7863
   74MOL   C22841254   1.540   7.830   0.195 -0.2290 -0.1970 -0.3916
   74MOL   C22941255   1.617   7.762   0.312  0.0390  0.3524 -0.5821
   74MOL   C23041256   1.704   7.647   0.269 -0.4943 -0.4327 -0.7592
   74MOL   O23141257   1.610   7.541   0.239  0.7239  0.5720 -0.7639
   74MOL   C23241258   1.656   7.432   0.183 -0.3954  0.2487 -0.2296
   74MOL   O23341259   1.782   7.417   0.163  0.0655 -0.0152 -0.3967
   74MOL   C23441260   1.554   7.331   0.143  0.4050 -0.0621  0.5467
   74MOL   C23541261   1.415   7.364   0.146 -0.0496 -0.2594  0.3804
   74MOL   C23641262   1.321   7.271   0.117 -0.7142  0.2488 -0.7100
   74MOL   C23741263   1.355   7.139   0.085  0.1400 -0.3805 -0.2063
   74MOL   C23841264   1.261   7.029   0.069 -0.2783  0.6170  0.0752
   74MOL   O23941265   1.292   6.912   0.057 -0.0018  0.4054  1.3127
   74MOL   C24041266   1.489   7.103   0.081  0.2147 -0.8624  0.0147
   74MOL   C24141267   1.589   7.198   0.111 -0.1264 -0.0464 -0.1773
   74MOL   H24241268   1.380   7.949   0.302 -1.0626  0.4925 -1.8760
   74MOL   H24341269   1.408   8.002   0.148 -2.5712 -0.3262  0.8570
   74MOL   H24441270   1.613   7.847   0.116  1.9245 -1.0358  1.3422
   74MOL   H24541271   1.464   7.768   0.147 -1.0705  0.9920 -0.5991
   74MOL   H24641272   1.680   7.837   0.362 -1.7375  0.0190  2.2798
   74MOL   H24741273   1.549   7.736   0.393  1.6311 -1.6908  0.1151
   74MOL   H24841274   1.764   7.669   0.181  0.5666  1.6391  0.4240
   74MOL   H24941275   1.749   7.618   0.364 -1.0303 -0.9227 -0.6536
   74MOL   H25041276   1.387   7.465   0.171  1.7855  0.4444 -0.3188
   74MOL   H25141277   1.219   7.304   0.128 -0.7196 -0.2162  0.7479
   74MOL   H25241278   1.521   7.002   0.060  1.8950  0.1275 -2.5578
   74MOL   H25341279   1.688   7.154   0.111  0.1225  0.5121 -0.2315
   74MOL   O25441280   1.138   7.074   0.072  0.0744 -0.1699  0.1378
   74MOL   C25541281   1.031   6.982   0.073  0.9344  0.2765 -0.2717
   74MOL   C25641282   0.908   7.032   8.091 -0.3706  0.8294  0.1727
   74MOL   C25741283   0.927   7.035   7.936  0.2351 -0.0010 -0.9684
   74MOL   C25841284   0.808   7.084   7.856 -0.9324 -0.2187 -0.1315
   74MOL   O25941285   0.745   7.204   7.906  0.1467 -0.2501  0.1384
   74MOL   C26041286   0.632   7.193   7.993 -0.9300  0.7271  0.3039
   74MOL   O26141287   0.596   7.085   8.041 -0.1628  0.7314 -1.3091
   74MOL   C26241288   0.572   7.324   8.031  0.6336 -0.0634  0.3571
   74MOL   C26341289   0.437   7.337   8.062 -0.4222 -0.1509  0.0113
   74MOL   C26441290   0.377   7.465   8.084  0.2234 -0.2166 -0.3206
   74MOL   C26541291   0.457   7.581   8.083  0.2921 -0.0264 -0.9952
   74MOL   C26641292   0.398   7.725   0.007  0.3440 -0.1294  0.3921
   74MOL   O26741293   0.448   7.829   8.064 -0.4128  0.1062 -0.2597
   74MOL   C26841294   0.593   7.567   8.057  0.4806 -0.1959  0.0994
   74MOL   C26941295   0.654   7.441   8.031 -0.1985 -0.3391 -0.0412
   74MOL   H27041296   1.057   6.890   0.021 -1.9903 -0.1635 -1.0998
   74MOL   H27141297   0.990   6.952   0.169  1.4682  0.3033 -0.0397
   74MOL   H27241298   0.880   7.134   0.019 -1.4685  0.4366  0.5525
   74MOL   H27341299   0.827   6.970   0.028 -0.1801 -0.3992 -1.4863
   74MOL   H27441300   1.018   7.091   7.919  0.5851 -1.5065 -4.5288
   74MOL   H27541301   0.944   6.928   7.918 -1.9468 -0.6451  0.5420
   74MOL   H27641302   0.844   7.106   7.755  0.9468 -0.0914  0.5389
   74MOL   H27741303   0.740   6.999   7.848  0.9144 -1.6361 -1.1264
   74MOL   H27841304   0.375   7.248   8.064  0.0598 -0.5344 -1.3357
   74MOL   H27941305   0.271   7.466   0.009 -0.2265  1.1353 -2.2861
   74MOL   H28041306   0.651   7.655   8.038  0.3972  0.0702  1.0303
   74MOL   H28141307   0.758   7.440   8.003 -0.4452  1.1954 -1.0399
   74MOL   O28241308   0.292   7.719   0.080 -0.3442 -0.1841 -0.7567
   74MOL   C28341309   0.218   7.845   0.115  0.3734  0.0478  0.2114
   74MOL   C28441310   0.111   7.815   0.224  0.1903  0.1950  0.3854
   74MOL   C28541311   0.173   7.819   0.366  0.4462 -0.3009  0.5697
   74MOL   C28641312   0.073   7.785   0.469  0.1069  0.6489 -0.1616
   74MOL   O28741313   0.130   7.799   0.598 -0.4388 -0.0634  0.2345
   74MOL   C28841314   0.058   7.784   0.712  0.3640  0.1002  0.2797
   74MOL   O28941315   8.034   7.763   0.710  0.5033 -0.0359 -0.1231
   74MOL   C29041316   0.141   7.806   0.837  0.1329  0.4359  0.7191
   74MOL   C29141317   0.084   7.810   0.966 -0.8752 -0.4273  0.6199
   74MOL   C29241318   0.158   7.815   1.083 -0.1824 -0.0334 -0.0227
   74MOL   C29341319   0.305   7.828   1.074  0.4292 -0.6717 -0.1036
   74MOL   C29441320   0.382   7.860   1.196 -0.3860  0.1060 -0.4701
   74MOL   O29541321   0.499   7.893   1.190  0.0429  0.1069 -0.3097
   74MOL   C29641322   0.362   7.817   0.949 -0.2263  0.1211  0.4090
   74MOL   C29741323   0.280   7.809   0.830 -0.0055  0.0927  0.4215
   74MOL   H29841324   0.290   7.919   0.149 -0.1445 -0.0940  1.6513
   74MOL   H29941325   0.171   7.882   0.024 -3.5650 -0.1566  2.0547
   74MOL   H30041326   0.047   7.730   0.201 -1.3262  0.8082  2.2151
   74MOL   H30141327   0.041   7.898   0.220 -1.9209 -1.4987  0.9590
   74MOL   H30241328   0.249   7.741   0.359 -1.3507 -1.9641 -1.1653
   74MOL   H30341329   0.214   7.920   0.368  1.4771 -0.7239  1.5895
   74MOL   H30441330   8.080   7.840   0.450 -1.4797 -1.6648  0.5072
   74MOL   H30541331   0.040   7.682   0.457 -0.1949  0.6373  0.7084
   74MOL   H30641332   8.076   7.794   0.978 -0.9046 -1.0305 -0.4112
   74MOL   H30741333   0.105   7.826   1.176 -0.0647  3.8084 -0.3239
   74MOL   H30841334   0.468   7.822   0.927 -0.0414  1.7861  1.5762
   74MOL   H30941335   0.331   7.803   0.735  0.0670  1.4789  0.3514
   74MOL   O31041336   0.304   7.841   1.307 -0.5126  0.3549  0.6128
   74MOL   C31141337   0.359   7.853   1.433  0.1318 -1.1025  0.5365
   74MOL   C31241338   0.374   7.998   1.479  0.1319  0.2790 -0.1928
   74MOL   C31341339   0.402   8.012   1.627  0.3337 -0.1864 -0.4774
   74MOL   C31441340   0.423   0.061   1.665 -0.5643 -0.2100  0.5120
   74MOL   O31541341   0.422   0.060   1.806  0.4045 -0.3876 -0.1886
   74MOL   C31641342   0.467   0.165   1.873  0.1926  0.7558  0.7538
   74MOL   O31741343   0.533   0.263   1.821  0.3174  0.6701 -0.0490
   74MOL   C31841344   0.442   0.157   2.013  0.0299  0.2173 -0.4009
   74MOL   C31941345   0.450   0.279   2.089  0.4157 -0.1183  0.2804
   74MOL   C32041346   0.419   0.279   2.225 -0.1891  0.6299 -0.6688
   74MOL   C32141347   0.395   0.156   2.288 -0.1462  0.2117  0.2960
   74MOL   C32241348   0.390   0.138   2.440  0.3646 -0.4803 -0.4114
   74MOL   O32341349   0.428   0.221   2.526  0.2847  0.7406 -0.1428
   74MOL   C32441350   0.384   0.038   2.211  0.3623  0.1860  0.1266
   74MOL   C32541351   0.412   0.035   2.077  0.3240 -0.3949  0.8329
   74MOL   H32641352   0.287   7.805   1.500 -1.7599  0.3547 -0.4307
   74MOL   H32741353   0.452   7.797   1.448  1.3705  0.4809 -1.0989
   74MOL   H32841354   0.278   8.044   1.460  0.5974  0.6768 -1.5686
   74MOL   H32941355   0.440   8.053   1.413  0.0692  0.5453 -0.0344
   74MOL   H33041356   0.318   7.973   1.684  1.7390 -1.6157  0.6938
   74MOL   H33141357   0.486   7.949   1.658 -0.0642 -1.0777 -1.1749
   74MOL   H33241358   0.505   0.107   1.610  0.5443 -0.1663  2.1751
   74MOL   H33341359   0.341   0.120   1.625 -0.3171 -1.9571 -2.7348
   74MOL   H33441360   0.483   0.368   2.038 -2.0838  0.5066 -0.2820
   74MOL   H33541361   0.427   0.367   2.286  2.4180  1.0112 -1.5106
   74MOL   H33641362   0.358   8.044   2.261  1.3508 -0.0298  0.2574
   74MOL   H33741363   0.408   8.039   2.025  0.1171 -0.6440  1.3015
   74MOL   O33841364   0.331   0.020   2.480  0.5122 -0.0775 -0.1526
   74MOL   C33941365   0.348   8.069   2.613  0.3186 -0.2833 -0.7830
   74MOL   C34041366   0.290   7.921   2.615 -0.4762 -0.2386  0.1605
   74MOL   C34141367   0.274   7.861   2.749 -0.2845 -0.4301  0.2457
   74MOL   C34241368   0.208   7.728   2.747 -0.4661  0.6727  0.1123
   74MOL   O34341369   0.295   7.634   2.680 -0.6326  0.0787 -0.0404
   74MOL   C34441370   0.407   7.583   2.742  0.8277  0.0087  0.4309
   74MOL   O34541371   0.435   7.620   2.855  0.1307  0.4224 -0.3804
   74MOL   C34641372   0.479   7.478   2.670  0.5987 -0.1561 -0.8177
   74MOL   C34741373   0.440   7.416   2.558  0.2251 -0.4843 -0.2480
   74MOL   C34841374   0.522   7.325   2.493 -0.3672 -0.0931 -0.6934
   74MOL   C34941375   0.640   7.284   2.562  0.5911  0.2157  0.8568
   74MOL   C35041376   0.720   7.178   2.494  0.1525 -0.2835 -0.4763
   74MOL   O35141377   0.705   7.146   2.376 -0.7028 -0.1905  0.1850
   74MOL   C35241378   0.684   7.351   2.676  0.2318 -0.1006  0.0510
   74MOL   C35341379   0.602   7.453   2.727 -0.2962 -0.0078  0.3875
   74MOL   H35441380   0.450   8.072   2.651  0.3750  1.1035 -1.0333
   74MOL   H35541381   0.292   0.035   2.680  2.4814 -0.1613  0.9460
   74MOL   H35641382   0.353   7.866   2.545  0.7715  0.6064  0.5966
   74MOL   H35741383   0.192   7.936   2.571  0.6492  0.1868 -2.2636
   74MOL   H35841384   0.375   7.859   2.788 -0.2292 -1.2216  0.0544
   74MOL   H35941385   0.213   7.925   2.814  0.7200 -0.1605  0.9346
   74MOL   H36041386   0.188   7.714   2.853 -0.0837  0.6600  0.1828
   74MOL   H36141387   0.114   7.717   2.693  0.2823 -0.1139 -1.0451
   74MOL   H36241388   0.345   7.448   2.518  0.5041 -0.2351 -0.7207
   74MOL   H36341389   0.484   7.275   2.405  0.2794  0.2298 -1.1534
   74MOL   H36441390   0.769   7.329   2.739 -0.7381 -0.7520  1.1539
   74MOL   H36541391   0.636   7.500   2.818 -0.0562  0.0904  0.2495
   74MOL   O36641392   0.821   7.121   2.567 -0.0678  0.0033 -0.0658
   74MOL   C36741393   0.902   7.017   2.512 -0.3197  0.2326  0.0208
   74MOL   C36841394   1.008   7.068   2.415  0.0343 -0.5919 -0.7443
   74MOL   C36941395   1.052   6.948   2.328 -0.2798 -0.3165 -0.3888
   74MOL   C37041396   1.184   6.967   2.248  0.5176  0.0878  0.6018
   74MOL   O37141397   1.291   6.907   2.322  0.0237 -0.0463 -0.3670
   74MOL   C37241398   1.314   6.769   2.308 -0.6429  0.4537 -0.5950
   74MOL   O37341399   1.239   6.692   2.251  0.7363  0.0484 -0.2344
   74MOL   C37441400   1.447   6.729   2.371 -0.1774 -0.5983  0.6777
   74MOL   C37541401   1.540   6.825   2.400 -0.3875  0.0435  0.2371
   74MOL   C37641402   1.657   6.787   2.471  0.0177 -0.2907  0.2449
   74MOL   C37741403   1.677   6.654   2.520 -0.2371 -0.3905 -0.4405
   74MOL   C37841404   1.804   6.629   2.600 -0.6155 -0.4496 -0.2485
   74MOL   O37941405   1.907   6.699   2.586  0.3525  0.4707 -0.9348
   74MOL   C38041406   1.584   6.559   2.477  0.2171  0.2385 -0.5780
   74MOL   C38141407   1.469   6.596   2.408  0.0255 -0.1411 -0.6294
   74MOL   H38241408   0.967   6.982   2.593  2.5815  1.7858 -1.5500
   74MOL   H38341409   0.827   6.952   2.468  0.7002 -1.4588  0.7115
   74MOL   H38441410   1.091   7.104   2.476 -0.8136 -2.0586  1.3430
   74MOL   H38541411   0.977   7.146   2.346 -1.6836 -2.4280 -2.0955
   74MOL   H38641412   1.068   6.859   2.388  0.2731 -0.3512 -0.5872
   74MOL   H38741413   0.975   6.917   2.257  1.5409 -1.4041 -1.9120
   74MOL   H38841414   1.185   6.924   2.148  0.6966 -0.8778  1.0049
   74MOL   H38941415   1.206   7.072   2.228 -0.3766 -0.2277 -2.1026
   74MOL   H39041416   1.532   6.928   2.367 -1.0779 -0.0111  0.2286
   74MOL   H39141417   1.727   6.865   2.496  0.5143 -0.7532  0.3146
   74MOL   H39241418   1.605   6.454   2.489  0.0861  0.0490 -1.9235
   74MOL   H39341419   1.404   6.527   2.357 -0.6053 -0.8197  1.0415
   74MOL   O39441420   1.802   6.512   2.663  0.1754  0.4619  0.1724
   74MOL   C39541421   1.909   6.483   2.753  0.2724  0.0545 -0.2715
   74MOL   C39641422   1.875   6.345   2.812 -0.4016 -0.0474 -0.1629
   74MOL   C39741423   1.890   6.224   2.720 -0.6764 -0.7000 -0.5614
   74MOL   C39841424   2.035   6.208   2.669 -0.1786  0.3693 -1.0943
   74MOL   O39941425   2.124   6.234   2.775 -0.3192 -0.1290  0.0937
   74MOL   C40041426   2.261   6.237   2.747  0.3729 -0.4741  0.2123
   74MOL   O40141427   2.318   6.224   2.637 -0.1333 -0.1385 -0.0758
   74MOL   C40241428   2.341   6.266   2.872  0.1162  0.3820  0.0420
   74MOL   C40341429   2.280   6.311   2.991 -1.5170  0.6402 -0.8608
   74MOL   C40441430   2.348   6.332   3.112  0.4859  0.0270  0.0409
   74MOL   C40541431   2.485   6.309   3.110 -0.1252  0.0814  0.5979
   74MOL   C40641432   2.557   6.327   3.233 -1.2034 -0.8247 -0.8468
   74MOL   O40741433   2.503   6.343   3.345 -0.3766 -0.0418 -0.1913
   74MOL   C40841434   2.550   6.268   2.989  0.1964 -0.0910 -0.0561
   74MOL   C40941435   2.480   6.243   2.873 -1.5409 -0.3161 -0.0057
   74MOL   H41041436   2.006   6.493   2.706 -0.4890 -0.0934 -1.9001
   74MOL   H41141437   1.905   6.548   2.840 -0.6486  0.5771 -0.6993
   74MOL   H41241438   1.775   6.347   2.855 -0.1249 -1.2070  0.5550
   74MOL   H41341439   1.933   6.326   2.902 -0.8793 -0.7826 -0.0052
   74MOL   H41441440   1.852   6.128   2.755 -0.0212 -0.3128  1.2445
   74MOL   H41541441   1.833   6.245   2.630 -0.7832 -0.1207 -0.3584
   74MOL   H41641442   2.055   6.108   2.630 -1.1925 -0.4357  0.4256
   74MOL   H41741443   2.066   6.272   2.586  0.1173 -0.1251 -1.3681
   74MOL   H41841444   2.174   6.335   2.990 -1.6151  0.3961  1.2802
   74MOL   H41941445   2.288   6.368   3.194  1.2647 -1.1394  1.1289
   74MOL   H42041446   2.656   6.245   2.986  0.2272 -0.0436  0.5475
   74MOL   H42141447   2.537   6.203   2.790  0.5075  0.3492  1.0271
   74MOL   O42241448   2.685   6.330   3.213  0.0100 -0.5382 -0.0468
   74MOL   C42341449   2.779   6.374   3.315 -0.3048 -0.1627  0.6724
   74MOL   C42441450   2.905   6.301   3.276 -0.4445  0.1655 -0.0294
   74MOL   C42541451   2.977   6.342   3.151 -0.5121 -0.0708  0.2748
   74MOL   C42641452   3.066   6.471   3.170  0.6306  0.7080 -0.2477
   74MOL   O42741453   3.170   6.446   3.259 -0.4527  0.0494  0.0296
   74MOL   C42841454   3.256   6.542   3.282 -0.3964 -0.3176 -0.0431
   74MOL   O42941455   3.274   6.637   3.208 -0.4633  0.5645 -0.0479
   74MOL   C43041456   3.326   6.519   3.420  0.4023  0.4130  0.0137
   74MOL   C43141457   3.297   6.410   3.506 -0.1894  0.8661 -0.3278
   74MOL   C43241458   3.362   6.400   3.633  0.3387 -0.9184 -0.6484
   74MOL   C43341459   3.469   6.483   3.667  0.6286 -0.0466 -0.0818
   74MOL   C43441460   3.538   6.456   3.795 -0.1536  0.5053 -0.5102
   74MOL   O43541461   3.505   6.369   3.874  0.0569 -0.1578 -0.2336
   74MOL   C43641462   3.508   6.587   3.578  0.6016  0.0541 -0.2257
   74MOL   C43741463   3.437   6.602   3.456 -0.9354  0.3867  0.5334
   74MOL   H43841464   2.799   6.481   3.314 -0.5855 -0.1193 -0.4948
   74MOL   H43941465   2.739   6.353   3.415 -0.3904  0.4847  0.7783
   74MOL   H44041466   2.885   6.194   3.275  1.1503 -0.1808  1.2332
   74MOL   H44141467   2.969   6.314   3.364  0.3734  3.4842 -1.0621
   74MOL   H44241468   3.053   6.269   3.121  0.1301  1.7230 -2.7862
   74MOL   H44341469   2.914   6.348   3.062 -0.3799 -1.1332  0.1062
   74MOL   H44441470   3.109   6.510   3.078 -1.2737 -0.0268 -1.4873
   74MOL   H44541471   3.003   6.546   3.216  1.7391  0.6805  1.3963
   74MOL   H44641472   3.223   6.335   3.483 -1.8754  2.4073 -0.0845
   74MOL   H44741473   3.329   6.333   3.710 -0.5043  0.6790  0.4154
   74MOL   H44841474   3.588   6.650   3.613  0.5463 -1.2705  2.4482
   74MOL   H44941475   3.468   6.680   3.389  0.3755 -0.5668  0.0242
   74MOL   O45041476   3.634   6.548   3.819 -0.3771 -0.3420  0.2971
   74MOL   C45141477   3.717   6.541   3.933 -0.1528 -0.1169 -0.3945
   74MOL   C45241478   3.849   6.459   3.897 -0.1432 -0.1220  0.4448
   74MOL   C45341479   3.936   6.527   3.795 -0.3441 -0.5537 -0.2841
   74MOL   C45441480   3.987   6.663   3.847  0.6030  0.0796 -0.2099
   74MOL   O45541481   4.044   6.658   3.974 -0.0020 -0.3940 -0.1272
   74MOL   C45641482   4.093   6.765   4.030  0.2681  0.3440  0.0190
   74MOL   O45741483   4.104   6.870   3.968 -0.0425 -0.5771  0.0028
   74MOL   C45841484   4.132   6.749   4.172  0.4483  0.3901 -0.6419
   74MOL   C45941485   4.189   6.857   4.242 -0.3687  0.9818 -0.0392
   74MOL   C46041486   4.207   6.845   4.385 -0.3555 -0.1866 -0.1326
   74MOL   C46141487   4.165   6.726   4.450 -0.6970  1.2879 -0.3429
   74MOL   C46241488   4.162   6.721   4.605  0.0268  0.4856  0.4312
   74MOL   O46341489   4.160   6.821   4.679  0.4746  0.0019 -0.1078
   74MOL   C46441490   4.106   6.618   4.379  0.1139 -1.1212 -0.5212
   74MOL   C46541491   4.099   6.629   4.239  0.3217  0.6191  0.2159
   74MOL   H46641492   3.748   6.637   3.975 -0.6695 -2.8338  6.7189
   74MOL   H46741493   3.665   6.491   4.014  1.5635  0.6353  1.2077
   74MOL   H46841494   3.814   6.360   3.869 -1.4876 -0.3237  2.7065
   74MOL   H46941495   3.912   6.435   3.983  0.5230 -0.2088 -0.0632
   74MOL   H47041496   4.021   6.461   3.777 -0.8216 -1.5388  0.9773
   74MOL   H47141497   3.886   6.541   3.699  0.1132  3.5077 -0.0165
   74MOL   H47241498   4.058   6.698   3.771 -0.4351 -0.4538 -1.4476
   74MOL   H47341499   3.914   6.743   3.856 -0.3107 -0.8833  0.8914
   74MOL   H47441500   4.226   6.939   4.181  2.4294  0.2077  0.5660
   74MOL   H47541501   4.243   6.925   4.448  0.1579 -2.0317  2.0065
   74MOL   H47641502   4.047   6.542   4.428  0.0917 -1.1942 -0.6636
   74MOL   H47741503   4.058   6.548   4.181 -0.2014  1.3543 -0.4411
   74MOL   O47841504   4.167   6.595   4.645 -0.0601 -0.1685 -0.9563
   74MOL   C47941505   4.171   6.552   4.782  0.3906  0.5045 -0.0161
   74MOL   C48041506   4.223   6.401   4.790 -0.9294  0.2636 -0.0612
   74MOL   C48141507   4.168   6.302   4.676 -0.5384  0.0793  0.0639
   74MOL   C48241508   4.015   6.308   4.668 -0.6447 -0.0903 -0.1697
   74MOL   O48341509   3.969   6.184   4.624  0.2354  0.0905  0.0058
   74MOL   C48441510   3.846   6.161   4.582  0.2571 -0.3080  0.1357
   74MOL   O48541511   3.765   6.249   4.593 -0.2261 -0.2629 -0.1532
   74MOL   C48641512   3.819   6.017   4.553 -0.0134 -0.2976  0.3136
   74MOL   C48741513   3.916   5.917   4.567 -0.0587 -0.4681 -0.5589
   74MOL   C48841514   3.893   5.782   4.530  0.4094 -0.7182  0.4829
   74MOL   C48941515   3.760   5.741   4.493 -0.0390 -0.1064 -0.2801
   74MOL   C49041516   3.719   5.601   4.477  0.6660 -0.7611  0.1251
   74MOL   O49141517   3.791   5.502   4.503  0.0210  0.2551 -0.4190
   74MOL   C49241518   3.670   5.847   4.466  0.6972 -0.9165 -0.5931
   74MOL   C49341519   3.699   5.981   4.494 -0.5591 -0.3488  0.1952
   74MOL   H49441520   4.235   6.614   4.845  0.3727  0.3420  0.1613
   74MOL   H49541521   4.069   6.564   4.819 -0.7583 -1.9792 -2.2256
   74MOL   H49641522   4.194   6.362   4.887  0.3024 -1.2109 -0.2686
   74MOL   H49741523   4.331   6.395   4.782 -0.9316  0.5007 -0.2664
   74MOL   H49841524   4.208   6.327   4.578  0.7715 -1.7727  0.0988
   74MOL   H49941525   4.209   6.204   4.702  0.4654 -0.0678 -1.9838
   74MOL   H50041526   3.979   6.326   4.769  0.4870  0.7981  0.0828
   74MOL   H50141527   3.986   6.397   4.610 -1.1077 -0.3530 -0.3448
   74MOL   H50241528   4.019   5.939   4.592 -0.2395  0.4698 -0.6077
   74MOL   H50341529   3.964   5.703   4.551  1.4221  0.3304  1.0693
   74MOL   H50441530   3.571   5.832   4.426  0.8588  0.3916 -1.5337
   74MOL   H50541531   3.626   6.059   4.474  2.2663  2.4193  0.3161
   74MOL   O50641532   3.588   5.589   4.447  0.2760  0.5256  0.1394
   74MOL   C50741533   3.523   5.461   4.445  1.0114  1.2604 -0.2673
   74MOL   C50841534   3.369   5.487   4.467 -0.1917  0.0588 -0.1427
   74MOL   C50941535   3.341   5.595   4.578  0.4157  0.9067  0.2150
   74MOL   C51041536   3.204   5.580   4.640  0.2142 -0.4260 -0.1304
   74MOL   O51141537   3.196   5.671   4.756 -0.0370  0.0018  0.6407
   74MOL   C51241538   3.091   5.664   4.834 -0.0173  0.3963  0.3398
   74MOL   O51341539   2.993   5.592   4.812  0.6017 -0.3844 -0.0084
   74MOL   C51441540   3.117   5.725   4.968 -0.2649 -0.4937 -0.2166
   74MOL   C51541541   3.240   5.794   5.001  0.1278 -0.1689  0.5545
   74MOL   C51641542   3.261   5.851   5.128  0.9625 -0.3442 -0.2036
   74MOL   C51741543   3.147   5.844   5.219  0.1239  0.2166  0.5117
   74MOL   C51841544   3.154   5.921   5.344  0.0727 -0.2940  0.7555
   74MOL   O51941545   3.248   6.001   5.363  0.7234 -0.2769  0.0114
   74MOL   C52041546   3.037   5.763   5.188 -0.0297 -1.0099 -0.3049
   74MOL   C52141547   3.011   5.710   5.062 -0.8026  0.0287 -0.2675
   74MOL   H52241548   3.541   5.401   4.356 -1.3219  0.5567 -0.2805
   74MOL   H52341549   3.559   5.400   4.529 -0.8445  1.0821  0.4159
   74MOL   H52441550   3.315   5.400   4.505  0.9357  0.1689  1.7919
   74MOL   H52541551   3.319   5.511   4.374 -1.2426  2.0878  0.9386
   74MOL   H52641552   3.413   5.581   4.659 -1.8151  0.6852  2.2007
   74MOL   H52741553   3.355   5.697   4.541 -2.2276  0.9972 -0.6057
   74MOL   H52841554   3.120   5.609   4.577  1.1068  2.5111 -0.0406
   74MOL   H52941555   3.178   5.481   4.678  0.5949 -0.1979  0.7264
   74MOL   H53041556   3.306   5.809   4.916 -0.8607 -2.1582 -0.6034
   74MOL   H53141557   3.348   5.913   5.143  0.0271  1.0433 -0.4281
   74MOL   H53241558   2.951   5.762   5.254  0.0835  1.2405 -0.0818
   74MOL   H53341559   2.921   5.656   5.036 -0.4186 -0.4973 -0.5176
   74MOL   O53441560   3.051   5.903   5.425 -0.4574  0.1103  0.3782
   74MOL   C53541561   3.041   5.967   5.556  0.2261 -0.1392 -0.0547
   74MOL   C53641562   3.001   5.866   5.665 -0.2682 -0.3189 -0.0635
   74MOL   C53741563   2.946   5.936   5.793  0.2321  0.0256 -0.5894
   74MOL   C53841564   2.908   5.840   5.903 -0.7653  0.1959  0.1274
   74MOL   O53941565   2.845   5.904   6.014 -1.3138  0.2383 -0.0235
   74MOL   C54041566   2.761   5.831   6.089  0.0181 -0.4443 -0.0411
   74MOL   O54141567   2.763   5.704   6.093  0.5193 -0.3872 -0.0492
   74MOL   C54241568   2.680   5.909   6.179 -0.0135 -0.2376 -0.9411
   74MOL   C54341569   2.579   5.841   6.252  0.2182  0.4244 -0.3191
   74MOL   C54441570   2.496   5.909   6.339  0.5693 -0.2622 -0.1710
   74MOL   C54541571   2.517   6.049   6.352  0.0577  0.7299 -0.1011
   74MOL   C54641572   2.422   6.131   6.436 -0.0026 -0.0938  0.8572
   74MOL   O54741573   2.333   6.079   6.505  0.3173  0.2372  0.2691
   74MOL   C54841574   2.613   6.117   6.280  0.5664  0.4085  0.3419
   74MOL   C54941575   2.702   6.048   6.195 -0.3002 -0.6734  0.5149
   74MOL   H55041576   3.134   6.018   5.583  0.9941  0.0549 -2.8219
   74MOL   H55141577   2.954   6.033   5.549  1.0442  1.0275  0.5053
   74MOL   H55241578   3.088   5.808   5.697  0.4037  0.7735  0.0859
   74MOL   H55341579   2.918   5.806   5.625 -1.7889  0.9824  1.0599
   74MOL   H55441580   3.027   5.998   5.831  0.1393  0.2838 -0.8093
   74MOL   H55541581   2.863   5.999   5.760  0.8249  1.1188 -0.0335
   74MOL   H55641582   2.838   5.769   5.859 -2.1275 -0.1362  2.6848
   74MOL   H55741583   2.998   5.788   5.935 -1.9534 -0.2010  2.9868
   74MOL   H55841584   2.561   5.735   6.250  1.6092  0.1103  1.5610
   74MOL   H55941585   2.412   5.869   6.394 -0.7637  1.5599 -0.8324
   74MOL   H56041586   2.624   6.224   6.288  0.1183  0.4735  0.1283
   74MOL   H56141587   2.777   6.102   6.140 -1.8963 -2.4107 -3.5569
   74MOL   H56241588   2.449   6.237   6.437 -0.5893  0.0569  1.1913
   75MOL     O141589   2.357   3.645   7.032  0.4768  0.3049 -0.0796
   75MOL     C241590   2.359   3.533   7.120 -1.2193 -0.2432 -0.0906
   75MOL     C341591   2.489   3.454   7.095  0.4258 -0.5281 -0.5826
   75MOL     C441592   2.503   3.343   7.198 -0.1068  0.1250  0.2910
   75MOL     C541593   2.645   3.286   7.226 -0.3111 -0.6631  0.3389
   75MOL     O641594   2.677   3.194   7.122 -0.7517  0.3573 -0.3390
   75MOL     C741595   2.763   3.093   7.136 -0.2825 -0.2268  0.1112
   75MOL     O841596   2.817   3.058   7.239 -0.0078  0.9446 -0.8194
   75MOL     C941597   2.767   3.006   7.019  0.6421 -0.2994 -0.5545
   75MOL    C1041598   2.655   3.001   6.933  0.4652 -0.4225 -0.5669
   75MOL    C1141599   2.661   2.917   6.814 -0.2848  0.0405  0.4608
   75MOL    C1241600   2.786   2.852   6.785 -0.3338 -0.4565 -0.6766
   75MOL    C1341601   2.804   2.790   6.652  0.0264  0.3363 -0.3380
   75MOL    O1441602   2.890   2.705   6.628  0.0785 -0.7709 -0.3777
   75MOL    C1541603   2.890   2.851   6.876 -0.0210 -0.2080  0.2428
   75MOL    C1641604   2.881   2.925   6.996  0.1071  0.2110  0.8135
   75MOL    H1741605   2.348   3.569   7.222 -0.9363  0.0889 -0.1754
   75MOL    H1841606   2.267   3.477   7.100 -1.1014 -0.2501 -0.6268
   75MOL    H1941607   2.578   3.517   7.085  0.6013 -0.5826  0.6606
   75MOL    H2041608   2.461   3.399   7.005  0.7216 -0.4379 -0.7341
   75MOL    H2141609   2.473   3.382   7.295  0.7528 -1.9536  1.4219
   75MOL    H2241610   2.444   3.254   7.177 -0.1856  0.3582 -0.5055
   75MOL    H2341611   2.714   3.371   7.235 -0.7817 -0.2775  0.3216
   75MOL    H2441612   2.642   3.240   7.325 -0.0067  0.7798  1.0395
   75MOL    H2541613   2.569   3.064   6.947  0.7811  0.0455 -0.6949
   75MOL    H2641614   2.584   2.936   6.741  0.8551  0.9533 -0.5116
   75MOL    H2741615   2.986   2.807   6.855 -0.9762 -2.3690  0.2885
   75MOL    H2841616   2.962   2.922   7.067 -0.0073 -0.6787  0.9094
   75MOL    H2941617   2.423   3.709   7.053  0.6508  0.0870  0.0345
   75MOL    O3041618   2.715   2.835   6.562 -0.0255  0.0013  0.4087
   75MOL    C3141619   2.702   2.769   6.440  0.1240 -0.5651  0.2215
   75MOL    C3241620   2.618   2.842   6.338 -0.1095  0.3370  0.4526
   75MOL    C3341621   2.659   2.990   6.306  0.0884  0.1900  0.1178
   75MOL    C3441622   2.598   3.091   6.404 -0.0051 -0.2797 -0.0620
   75MOL    O3541623   2.459   3.076   6.403  0.4823  0.2576 -0.0060
   75MOL    C3641624   2.386   3.141   6.318  0.4211 -0.2638 -0.5113
   75MOL    O3741625   2.431   3.231   6.248 -0.4581 -0.2481 -0.6960
   75MOL    C3841626   2.239   3.099   6.319  0.4094 -0.2063  1.0744
   75MOL    C3941627   2.182   3.017   6.417 -0.7913 -0.0424  0.6512
   75MOL    C4041628   2.042   3.011   6.424  0.7090 -0.2223 -0.3388
   75MOL    C4141629   1.953   3.067   6.330  0.1730  0.3317 -0.0404
   75MOL    C4241630   1.802   3.049   6.326 -0.2058  0.1374  0.2358
   75MOL    O4341631   1.734   3.084   6.228  0.2301  0.2890 -0.2207
   75MOL    C4441632   2.015   3.145   6.231  0.0337 -0.0707 -0.2194
   75MOL    C4541633   2.157   3.169   6.227 -0.2865  0.5250  0.2852
   75MOL    H4641634   2.803   2.752   6.403 -0.1298 -0.5287 -0.4947
   75MOL    H4741635   2.656   2.673   6.463 -1.6801  0.1350 -0.3657
   75MOL    H4841636   2.513   2.822   6.360  0.0966 -1.9332 -0.4832
   75MOL    H4941637   2.653   2.783   6.253  1.7896  2.2246 -0.1391
   75MOL    H5041638   2.767   2.997   6.317  0.1778  0.5984 -1.0416
   75MOL    H5141639   2.632   3.010   6.203 -0.7295  0.5359  0.3945
   75MOL    H5241640   2.622   3.083   6.510 -1.1335  0.4956  0.2642
   75MOL    H5341641   2.629   3.193   6.383 -1.5162  0.0923 -0.5953
   75MOL    H5441642   2.244   2.965   6.488  1.1890  2.5874  0.9077
   75MOL    H5541643   1.996   2.957   6.505 -1.8303  1.4119 -0.6152
   75MOL    H5641644   1.949   3.193   6.160  0.1783  2.4846  1.3108
   75MOL    H5741645   2.202   3.231   6.151 -1.1582 -1.3645 -1.8637
   75MOL    O5841646   1.763   2.985   6.437 -0.2358 -0.5013  0.4841
   75MOL    C5941647   1.634   2.976   6.481 -0.2978 -0.2566  0.1720
   75MOL    C6041648   1.559   2.848   6.443  0.6157 -0.4396 -0.5388
   75MOL    C6141649   1.528   2.836   6.293  0.2258  0.4496 -0.6277
   75MOL    C6241650   1.443   2.947   6.234  0.4313 -0.6447  0.2070
   75MOL    O6341651   1.368   2.900   6.126  0.0791  0.0955 -0.1019
   75MOL    C6441652   1.281   2.987   6.069  0.3103 -0.1463 -0.4064
   75MOL    O6541653   1.282   3.106   6.083  0.1106  0.2251  0.5091
   75MOL    C6641654   1.185   2.924   5.970 -0.5464  0.3455  0.5451
   75MOL    C6741655   1.211   2.797   5.911  0.3070 -0.2418 -0.4623
   75MOL    C6841656   1.123   2.741   5.822  0.6372  0.0677  0.1075
   75MOL    C6941657   0.996   2.807   5.798 -0.2326  0.8126  1.2385
   75MOL    C7041658   0.898   2.747   5.709  0.3249 -0.0478 -0.3086
   75MOL    O7141659   0.801   2.809   5.663  0.2853  0.2538 -0.1328
   75MOL    C7241660   0.968   2.931   5.854  0.2788  0.5957 -0.3531
   75MOL    C7341661   1.065   2.987   5.936 -0.0625  0.7548  0.3148
   75MOL    H7441662   1.631   2.980   6.590  0.1159  1.2645  0.1409
   75MOL    H7541663   1.589   3.071   6.451 -1.0800 -0.9344 -0.8279
   75MOL    H7641664   1.465   2.850   6.497  1.0461 -2.3645  0.2985
   75MOL    H7741665   1.600   2.758   6.488 -1.5867 -0.1442  2.1737
   75MOL    H7841666   1.621   2.804   6.246  1.7511  0.9823  1.9017
   75MOL    H7941667   1.467   2.747   6.301  0.2928  0.4733  0.1587
   75MOL    H8041668   1.370   2.971   6.311 -0.4558  0.2512 -0.8921
   75MOL    H8141669   1.489   3.040   6.203  1.6513 -1.4617 -0.4899
   75MOL    H8241670   1.302   2.748   5.939  0.5735  1.2773  1.3946
   75MOL    H8341671   1.143   2.644   5.778  2.8815  0.3210  0.4871
   75MOL    H8441672   0.873   2.978   5.838  0.3411  0.7492 -0.2677
   75MOL    H8541673   1.056   3.081   5.989  3.1978  0.7584  0.9960
   75MOL    O8641674   0.917   2.622   5.696 -0.2426 -0.4068  0.2616
   75MOL    C8741675   0.822   2.540   5.621  0.2036 -0.5600  0.7592
   75MOL    C8841676   0.823   2.556   5.467 -0.3766  0.2271 -0.2816
   75MOL    C8941677   0.962   2.525   5.402  0.5510 -0.3226 -0.6340
   75MOL    C9041678   1.009   2.382   5.416 -0.1580 -0.1182 -0.5450
   75MOL    O9141679   1.043   2.354   5.554 -0.0591  0.1690  0.6719
   75MOL    C9241680   1.158   2.386   5.613  0.2023  0.4090  0.5069
   75MOL    O9341681   1.231   2.476   5.572 -0.8615 -0.2770  0.1415
   75MOL    C9441682   1.174   2.327   5.749 -0.2850 -0.1708 -0.4545
   75MOL    C9541683   1.262   2.386   5.840  0.0242  0.3843  0.1894
   75MOL    C9641684   1.278   2.332   5.972  0.4544 -0.3765 -0.2528
   75MOL    C9741685   1.228   2.209   6.010  0.3653  0.4041 -0.4288
   75MOL    C9841686   1.246   2.148   6.149  0.0819 -0.4112 -0.3235
   75MOL    O9941687   1.193   2.041   6.186  0.0192 -0.0074 -0.9078
   75MOL   C10041688   1.136   2.150   5.912  0.1499 -0.1936  0.2236
   75MOL   C10141689   1.100   2.207   5.790  0.0436 -0.4535 -0.3743
   75MOL   H10241690   0.834   2.438   5.657 -1.6344 -0.7999  0.7512
   75MOL   H10341691   0.728   2.573   5.667  0.0804  0.1209  0.0373
   75MOL   H10441692   0.792   2.660   5.452  1.0398  0.6786 -0.1229
   75MOL   H10541693   0.742   2.495   5.426  0.0360 -0.5532  0.0734
   75MOL   H10641694   0.973   2.561   5.300 -2.9451 -2.2064 -1.7706
   75MOL   H10741695   1.039   2.582   5.453  0.6275 -2.2839  1.5352
   75MOL   H10841696   0.921   2.321   5.396 -1.4511  1.8173 -0.8531
   75MOL   H10941697   1.094   2.349   5.356 -2.1224  0.2411 -3.6242
   75MOL   H11041698   1.324   2.469   5.810 -0.7096  0.8055 -0.2067
   75MOL   H11141699   1.338   2.385   6.044 -1.7836 -0.2403  1.5909
   75MOL   H11241700   1.095   2.053   5.934  2.1528 -1.0899  0.1201
   75MOL   H11341701   1.019   2.170   5.729  0.2257  0.0538 -0.9301
   75MOL   O11441702   1.318   2.238   6.221 -0.1755  0.7044 -0.6368
   75MOL   C11541703   1.367   2.197   6.349 -0.1606 -0.0837 -0.5558
   75MOL   C11641704   1.401   2.296   6.462  0.3391 -0.2441  0.8298
   75MOL   C11741705   1.540   2.370   6.447  0.8374  0.1454  0.5330
   75MOL   C11841706   1.566   2.459   6.569  0.2611 -0.1829 -0.2633
   75MOL   O11941707   1.698   2.507   6.583  0.2850  0.3083  0.1936
   75MOL   C12041708   1.789   2.436   6.644 -0.3233  0.1678 -0.8008
   75MOL   O12141709   1.757   2.335   6.708 -0.0558  0.3489 -0.1236
   75MOL   C12241710   1.927   2.471   6.634 -0.0988 -0.4711 -0.1110
   75MOL   C12341711   2.031   2.371   6.650  0.1085 -0.1015  0.4793
   75MOL   C12441712   2.165   2.409   6.661 -0.4563 -0.2226 -0.0589
   75MOL   C12541713   2.207   2.544   6.641 -0.5230  0.0791  0.5128
   75MOL   C12641714   2.346   2.591   6.657 -0.3189 -0.1534 -0.1857
   75MOL   O12741715   2.375   2.704   6.624 -0.1457 -1.0282 -0.1247
   75MOL   C12841716   2.107   2.637   6.603  0.0423 -0.8111 -0.3512
   75MOL   C12941717   1.968   2.602   6.603  0.4530 -0.0619  0.1565
   75MOL   H13041718   1.294   2.127   6.389  0.2386 -0.3246 -0.2499
   75MOL   H13141719   1.449   2.130   6.323 -0.2758 -0.6643  0.5503
   75MOL   H13241720   1.424   2.234   6.549  1.8360  1.2031  1.4911
   75MOL   H13341721   1.315   2.361   6.481  1.6303  1.3034  1.5282
   75MOL   H13441722   1.622   2.301   6.469 -0.3530 -1.1373  1.0475
   75MOL   H13541723   1.558   2.424   6.355  1.9439 -2.3380 -0.7699
   75MOL   H13641724   1.501   2.546   6.570 -0.4633 -0.7188 -0.4146
   75MOL   H13741725   1.539   2.401   6.658 -2.0705 -0.5078 -1.1460
   75MOL   H13841726   2.005   2.268   6.670  2.1853 -0.5726  0.8800
   75MOL   H13941727   2.240   2.336   6.688  0.4594 -0.0060 -1.9073
   75MOL   H14041728   2.133   2.738   6.573  0.1923 -1.7100 -3.4132
   75MOL   H14141729   1.895   2.677   6.578  1.0790  0.1785 -0.9617
   75MOL   O14241730   2.427   2.500   6.711  0.7330  0.2586 -0.2263
   75MOL   C14341731   2.559   2.524   6.725  0.7260 -0.3119  0.2504
   75MOL   C14441732   2.614   2.404   6.800  0.2309 -0.7439 -0.2912
   75MOL   C14541733   2.766   2.400   6.797 -0.6801  0.7338  0.5639
   75MOL   C14641734   2.823   2.272   6.868  0.9249 -0.4108  0.0374
   75MOL   O14741735   2.809   2.276   7.011  0.3408  0.2341  0.0266
   75MOL   C14841736   2.728   2.186   7.080 -0.5362 -0.9674  0.6766
   75MOL   O14941737   2.664   2.099   7.028  0.1704 -0.0979 -0.6034
   75MOL   C15041738   2.747   2.203   7.225 -0.0916  0.5590  0.7976
   75MOL   C15141739   2.670   2.120   7.310 -0.0605 -0.3128 -0.7831
   75MOL   C15241740   2.688   2.125   7.450  0.1233 -0.1451  0.3585
   75MOL   C15341741   2.788   2.213   7.511 -0.4679  0.1890  0.2192
   75MOL   C15441742   2.807   2.223   7.657  0.1293  0.6055  0.0104
   75MOL   O15541743   2.733   2.157   7.729 -0.4555 -0.0573  0.0720
   75MOL   C15641744   2.869   2.286   7.428 -0.8119 -0.5677 -0.2759
   75MOL   C15741745   2.845   2.288   7.288  0.2788 -0.9067  0.1502
   75MOL   H15841746   2.606   2.537   6.627  0.3878  0.5167  0.1984
   75MOL   H15941747   2.574   2.612   6.787  1.8426  0.4774 -1.0896
   75MOL   H16041748   2.576   2.312   6.756 -0.9878 -0.6649  0.5631
   75MOL   H16141749   2.580   2.395   6.903 -1.0078  1.6732 -0.4481
   75MOL   H16241750   2.812   2.384   6.700 -1.3034  1.3008  0.1641
   75MOL   H16341751   2.814   2.488   6.840  0.0758  0.9517 -0.6902
   75MOL   H16441752   2.800   2.173   6.828  0.5545 -0.4041  0.2271
   75MOL   H16541753   2.931   2.282   6.862  0.7064  1.0376 -1.8769
   75MOL   H16641754   2.594   2.058   7.265 -2.0405 -0.0432  2.0547
   75MOL   H16741755   2.634   2.057   7.513  1.8487 -1.1350  0.8081
   75MOL   H16841756   2.943   2.353   7.467 -2.4522  0.2196  1.6052
   75MOL   H16941757   2.903   2.351   7.222 -0.2594 -1.4311 -0.8302
   75MOL   O17041758   2.906   2.304   7.707 -0.0335  0.8568  0.2209
   75MOL   C17141759   2.943   2.309   7.846 -0.7105 -0.2803  0.4200
   75MOL   C17241760   2.896   2.431   7.925  0.5089  0.2221 -0.1057
   75MOL   C17341761   2.978   2.558   7.901 -0.4604 -0.1406 -0.1113
   75MOL   C17441762   2.906   2.686   7.942 -0.2013  0.1286 -0.6177
   75MOL   O17541763   2.791   2.684   7.852  0.3340 -0.1393  0.0517
   75MOL   C17641764   2.687   2.756   7.880 -0.0946  0.6898 -0.2334
   75MOL   O17741765   2.681   2.832   7.974  0.2269 -0.3505  0.3159
   75MOL   C17841766   2.574   2.736   7.788  0.0894  0.5547  0.5530
   75MOL   C17941767   2.450   2.803   7.813  0.5279  0.3049  0.5450
   75MOL   C18041768   2.338   2.781   7.730 -0.0406 -0.0878  0.8283
   75MOL   C18141769   2.340   2.681   7.632 -0.0763 -0.3778 -0.5687
   75MOL   C18241770   2.215   2.643   7.563  0.0447 -0.3265 -0.5063
   75MOL   O18341771   2.107   2.699   7.589  0.0238 -0.1192  0.2715
   75MOL   C18441772   2.459   2.623   7.596 -0.3874  0.2557  0.2421
   75MOL   C18541773   2.580   2.648   7.671  0.8539  0.2062 -0.5174
   75MOL   H18641774   2.907   2.216   7.891  0.0574 -0.6622  0.2585
   75MOL   H18741775   3.052   2.312   7.849 -0.6976  1.5340 -1.2954
   75MOL   H18841776   2.907   2.404   8.030 -0.0528  0.3920 -0.0015
   75MOL   H18941777   2.792   2.443   7.894  0.4572 -0.4179 -0.1891
   75MOL   H19041778   3.075   2.554   7.951  0.4937  2.5852 -1.6383
   75MOL   H19141779   3.017   2.568   7.799 -0.5813 -1.4123 -0.2834
   75MOL   H19241780   2.883   2.672   8.047 -0.7584  1.6554 -0.5242
   75MOL   H19341781   2.965   2.777   7.933  2.8519 -1.2808  3.6246
   75MOL   H19441782   2.439   2.872   7.895 -1.4563  1.3137 -0.5350
   75MOL   H19541783   2.248   2.833   7.761  0.6243  0.6731  1.5200
   75MOL   H19641784   2.465   2.573   7.500  0.8115 -1.2489  1.0922
   75MOL   H19741785   2.675   2.603   7.646  0.3798 -2.1927  1.8392
   75MOL   O19841786   2.225   2.544   7.468  0.1890 -0.0029  0.0604
   75MOL   C19941787   2.108   2.507   7.396 -0.5791  0.1256 -0.0092
   75MOL   C20041788   2.139   2.512   7.246 -0.3978 -0.8460 -0.5814
   75MOL   C20141789   2.025   2.445   7.165 -0.2993  0.1366  0.0509
   75MOL   C20241790   2.049   2.437   7.013  0.2615  0.0322  0.7034
   75MOL   O20341791   2.082   2.564   6.961 -0.3437 -0.3449 -0.2769
   75MOL   C20441792   1.983   2.659   6.941  0.1243 -0.7256  0.7179
   75MOL   O20541793   1.864   2.629   6.947  0.0499 -0.0980 -0.3800
   75MOL   C20641794   2.045   2.793   6.910  0.1827 -0.3464 -0.0698
   75MOL   C20741795   1.957   2.883   6.847  0.0155 -0.0790 -0.5444
   75MOL   C20841796   2.006   3.008   6.813  0.1923  1.1074  0.8306
   75MOL   C20941797   2.148   3.040   6.828 -0.3674  0.1490 -0.0362
   75MOL   C21041798   2.189   3.165   6.762  0.6323 -0.2009 -0.7762
   75MOL   O21141799   2.108   3.243   6.709 -0.4905 -0.2948 -0.1228
   75MOL   C21241800   2.235   2.956   6.891  0.1019  0.1613  0.1588
   75MOL   C21341801   2.181   2.832   6.932 -0.1349  0.6720 -0.2653
   75MOL   H21441802   2.105   2.401   7.420  1.1608 -0.1873 -1.0966
   75MOL   H21541803   2.014   2.550   7.431 -1.1011  0.8795 -2.2532
   75MOL   H21641804   2.236   2.466   7.226 -0.0873 -0.4827  0.0536
   75MOL   H21741805   2.139   2.615   7.210 -1.4785 -0.4784  0.4374
   75MOL   H21841806   2.019   2.343   7.202  0.0461 -0.8885 -2.6449
   75MOL   H21941807   1.930   2.496   7.185  0.1370  0.8651  0.2882
   75MOL   H22041808   2.137   2.377   6.991 -2.4722 -3.5315 -1.1330
   75MOL   H22141809   1.969   2.385   6.960  0.8500  0.4302 -0.6092
   75MOL   H22241810   1.853   2.862   6.826 -0.4352  1.2435  0.2306
   75MOL   H22341811   1.937   3.074   6.764  0.1072 -0.2049 -0.8708
   75MOL   H22441812   2.338   2.978   6.916  0.7005 -1.1045 -1.1119
   75MOL   H22541813   2.240   2.759   6.985 -2.5196 -0.7504  0.5106
   75MOL   O22641814   2.319   3.187   6.773 -0.1329 -0.5452 -0.0076
   75MOL   C22741815   2.374   3.310   6.721  0.4815 -0.5530 -0.3194
   75MOL   C22841816   2.523   3.307   6.711 -0.0654 -0.0846  0.7439
   75MOL   C22941817   2.585   3.450   6.712  0.6586  0.5508  0.1825
   75MOL   C23041818   2.740   3.452   6.686 -0.1260  0.6321 -0.8719
   75MOL   O23141819   2.790   3.579   6.706  0.4338 -0.3754 -0.7874
   75MOL   C23241820   2.812   3.633   6.833  0.1251  0.1824  0.6324
   75MOL   O23341821   2.796   3.560   6.932  0.6113  0.3767  0.4108
   75MOL   C23441822   2.870   3.774   6.835 -0.2849  0.1716  0.5701
   75MOL   C23541823   2.910   3.839   6.953  0.7692 -0.2951 -1.1014
   75MOL   C23641824   2.954   3.973   6.954 -0.6177 -0.2304  0.3955
   75MOL   C23741825   2.976   4.039   6.831 -0.5447 -0.4244  0.3140
   75MOL   C23841826   3.028   4.182   6.824 -0.4652 -0.2044 -0.5658
   75MOL   O23941827   3.079   4.235   6.727 -0.4056 -0.6005  0.0567
   75MOL   C24041828   2.942   3.973   6.712 -0.5204  0.1693 -0.2891
   75MOL   C24141829   2.889   3.840   6.711 -0.1954  0.1289 -0.3190
   75MOL   H24241830   2.334   3.339   6.624  0.4448  0.3694 -0.0323
   75MOL   H24341831   2.350   3.394   6.786  1.3312 -0.2887 -0.3379
   75MOL   H24441832   2.546   3.257   6.617 -2.1495 -1.9912  1.2087
   75MOL   H24541833   2.567   3.248   6.792  0.0648 -0.9988  0.0112
   75MOL   H24641834   2.537   3.500   6.628 -2.3946 -0.5944  1.1537
   75MOL   H24741835   2.558   3.500   6.805  0.3869  1.5841 -0.4506
   75MOL   H24841836   2.792   3.387   6.757  0.5263 -0.8697 -2.6902
   75MOL   H24941837   2.753   3.420   6.582 -3.6697  0.6124 -1.3457
   75MOL   H25041838   2.907   3.781   7.044  0.5232 -0.0732 -0.9665
   75MOL   H25141839   2.984   4.030   7.040 -0.5260  0.9862 -0.4279
   75MOL   H25241840   2.970   4.020   6.619  0.4322 -1.2298 -0.7252
   75MOL   H25341841   2.860   3.798   6.616 -0.4468 -0.0209 -0.1776
   75MOL   O25441842   3.007   4.247   6.941 -0.4284 -0.7258 -0.0811
   75MOL   C25541843   3.047   4.380   6.967 -0.4440 -0.8363  0.2782
   75MOL   C25641844   3.177   4.404   7.052  0.7586  0.2859 -0.3108
   75MOL   C25741845   3.301   4.366   6.964  0.5894  0.3516 -0.2597
   75MOL   C25841846   3.424   4.363   7.057 -0.7526 -0.4763 -0.2219
   75MOL   O25941847   3.446   4.482   7.120  0.1743  0.0714  0.6628
   75MOL   C26041848   3.549   4.498   7.203  0.0222  0.2360 -0.5013
   75MOL   O26141849   3.642   4.415   7.220  0.2721  0.5256 -0.0171
   75MOL   C26241850   3.539   4.626   7.294 -0.6934 -0.2578 -0.5314
   75MOL   C26341851   3.629   4.656   7.397  0.0897  0.0689  0.3370
   75MOL   C26441852   3.619   4.772   7.472 -0.0759  0.6892  0.3714
   75MOL   C26541853   3.517   4.865   7.446 -0.0971  0.3854  0.1395
   75MOL   C26641854   3.511   4.986   7.525 -0.3727 -0.0794 -0.9237
   75MOL   O26741855   3.589   5.012   7.619 -0.5330 -0.0345  0.2640
   75MOL   C26841856   3.420   4.829   7.345  0.3651  0.5570  0.0947
   75MOL   C26941857   3.432   4.713   7.263 -0.1203 -0.3995  0.1723
   75MOL   H27041858   3.062   4.423   6.868 -0.2725  1.5882  1.3067
   75MOL   H27141859   2.956   4.422   7.010 -0.2260  0.0729 -0.1323
   75MOL   H27241860   3.173   4.357   7.150 -2.0778  3.2575  1.0997
   75MOL   H27341861   3.188   4.509   7.076  0.8086 -0.1594  1.7446
   75MOL   H27441862   3.294   4.264   6.926  1.3686 -0.6296  2.1527
   75MOL   H27541863   3.304   4.431   6.877  2.6953  1.1149  0.3594
   75MOL   H27641864   3.417   4.288   7.137 -2.1157  0.7767  0.8652
   75MOL   H27741865   3.500   4.329   6.987 -1.0616 -0.4314 -0.5812
   75MOL   H27841866   3.704   4.583   7.424  0.1798 -0.4285 -1.2230
   75MOL   H27941867   3.689   4.787   7.553  0.6705  1.3880 -0.3890
   75MOL   H28041868   3.346   4.906   7.326 -1.6777 -0.5115  3.3822
   75MOL   H28141869   3.357   4.696   7.187  1.4865  2.0630 -2.0505
   75MOL   O28241870   3.409   5.069   7.494 -0.0338  0.1965  0.2004
   75MOL   C28341871   3.349   5.152   7.587  0.1340  0.3424  0.4715
   75MOL   C28441872   3.238   5.082   7.668 -0.5165  0.4936 -0.4705
   75MOL   C28541873   3.154   5.192   7.737 -0.4567  0.3793 -0.4014
   75MOL   C28641874   3.039   5.122   7.819 -0.3463 -0.4658  0.5107
   75MOL   O28741875   2.951   5.222   7.866 -0.0952 -0.1272 -0.5201
   75MOL   C28841876   2.834   5.189   7.919 -0.2380  0.2781  0.0712
   75MOL   O28941877   2.802   5.077   7.947 -0.5768  0.2829 -0.1141
   75MOL   C29041878   2.756   5.313   7.956  0.5520  0.5176 -0.0350
   75MOL   C29141879   2.670   5.309   8.068 -0.0246  0.0182  0.1813
   75MOL   C29241880   2.598   5.418   0.015 -0.0828 -0.0813 -0.4370
   75MOL   C29341881   2.590   5.527   8.033  0.3325 -0.7701 -0.2227
   75MOL   C29441882   2.498   5.648   8.067  0.0758  0.1637 -0.2514
   75MOL   O29541883   2.476   5.737   7.987 -0.0514  0.0741  0.1406
   75MOL   C29641884   2.667   5.542   7.919  0.2346 -0.2858  0.6726
   75MOL   C29741885   2.752   5.436   7.880  0.2960  0.8943  0.0062
   75MOL   H29841886   3.434   5.199   7.637  0.9718 -1.1897  0.5066
   75MOL   H29941887   3.302   5.232   7.530 -1.9537 -1.0123  0.2271
   75MOL   H30041888   3.284   5.016   7.741 -0.0390 -0.8536 -1.9557
   75MOL   H30141889   3.162   5.027   7.612 -1.4156  1.8282 -0.5951
   75MOL   H30241890   3.221   5.238   7.810 -0.5088 -0.4540  0.1846
   75MOL   H30341891   3.123   5.270   7.668 -1.6415  0.9054  0.7122
   75MOL   H30441892   2.984   5.060   7.749  0.5920 -0.6313 -0.0749
   75MOL   H30541893   3.080   5.070   7.905 -3.3983  0.4999  2.6294
   75MOL   H30641894   2.664   5.216   0.024 -0.5175  0.1545  0.3658
   75MOL   H30741895   2.538   5.407   0.104  1.9207 -0.3042  0.9206
   75MOL   H30841896   2.643   5.630   7.863  0.0279  0.3113  1.6967
   75MOL   H30941897   2.803   5.448   7.786  1.3652 -0.1619  0.4247
   75MOL   O31041898   2.450   5.647   0.098 -0.5017  0.6423 -0.7377
   75MOL   C31141899   2.376   5.754   0.154 -0.5939  0.8938  0.3319
   75MOL   C31241900   2.376   5.731   0.307 -0.7571  0.0107  0.6007
   75MOL   C31341901   2.301   5.848   0.369 -0.0589 -0.5031  0.3380
   75MOL   C31441902   2.296   5.849   0.523 -0.0384 -0.2504 -0.0588
   75MOL   O31541903   2.205   5.748   0.560 -0.2302 -0.0204  0.2571
   75MOL   C31641904   2.169   5.736   0.685  0.6318  0.8369 -0.5435
   75MOL   O31741905   2.202   5.816   0.770 -0.4839 -0.1868 -0.3531
   75MOL   C31841906   2.067   5.628   0.710  0.0093 -0.0317  0.3352
   75MOL   C31941907   2.034   5.527   0.611 -0.1356  0.0132 -0.7204
   75MOL   C32041908   1.945   5.427   0.653  0.4354 -0.1444  0.1421
   75MOL   C32141909   1.874   5.429   0.773 -0.5865 -0.0609 -0.1060
   75MOL   C32241910   1.783   5.325   0.822  0.5186 -0.0778 -0.1357
   75MOL   O32341911   1.730   5.327   0.935  0.0099 -0.3676 -0.0606
   75MOL   C32441912   1.899   5.533   0.865 -0.4352 -0.4214  0.1856
   75MOL   C32541913   1.990   5.635   0.831 -0.8376 -1.1354 -0.2594
   75MOL   H32641914   2.425   5.850   0.137 -0.1579  0.5378 -0.4290
   75MOL   H32741915   2.284   5.762   0.096  1.0670  0.9023 -2.4132
   75MOL   H32841916   2.480   5.735   0.337  0.3380  0.2620 -3.0161
   75MOL   H32941917   2.340   5.634   0.343  1.3015 -0.3215  1.8283
   75MOL   H33041918   2.342   5.947   0.351  2.8135 -2.0284 -1.8233
   75MOL   H33141919   2.199   5.843   0.330 -0.4507  0.6357  1.2012
   75MOL   H33241920   2.394   5.824   0.563  0.1031  2.4106  1.4260
   75MOL   H33341921   2.266   5.941   0.574 -0.4652 -1.5775  2.1403
   75MOL   H33441922   2.076   5.500   0.515  1.9322  0.7083 -0.0424
   75MOL   H33541923   1.921   5.346   0.586 -0.5178  0.3534 -0.1242
   75MOL   H33641924   1.861   5.537   0.966  1.4861  1.5896  0.8858
   75MOL   H33741925   2.008   5.712   0.905 -1.2999 -1.7360  0.4779
   75MOL   O33841926   1.764   5.234   0.725 -0.4777 -0.2595 -0.2795
   75MOL   C33941927   1.675   5.124   0.751  0.9807  0.4315 -0.2725
   75MOL   C34041928   1.523   5.170   0.745 -0.8708  0.2222  0.9670
   75MOL   C34141929   1.445   5.042   0.740  0.3196  0.1995  0.1537
   75MOL   C34241930   1.304   5.057   0.677 -0.7738  0.2379  0.2716
   75MOL   O34341931   1.213   5.121   0.758 -0.4110 -0.2022  0.0216
   75MOL   C34441932   1.092   5.149   0.717  0.3788  0.3908 -0.3062
   75MOL   O34541933   1.045   5.127   0.606 -0.5235  0.7066  0.0857
   75MOL   C34641934   1.010   5.191   0.832 -0.4431  0.0013  0.2194
   75MOL   C34741935   1.065   5.230   0.953 -0.5028 -0.5550 -0.5083
   75MOL   C34841936   0.982   5.293   1.050 -1.1037 -0.3995  0.1611
   75MOL   C34941937   0.845   5.294   1.030  0.4675 -0.4540 -0.1517
   75MOL   C35041938   0.765   5.361   1.137  0.4070 -0.1158  0.2930
   75MOL   O35141939   0.813   5.445   1.213 -0.1633  0.1202  0.1133
   75MOL   C35241940   0.787   5.249   0.914 -0.4366  0.3998 -0.6675
   75MOL   C35341941   0.869   5.202   0.812  0.3481  0.3339 -0.4568
   75MOL   H35441942   1.700   5.037   0.690  2.2975 -0.4517  1.4680
   75MOL   H35541943   1.681   5.081   0.851 -3.2180  0.7941  0.2328
   75MOL   H35641944   1.486   5.225   0.659 -0.0378 -1.2831 -0.3798
   75MOL   H35741945   1.499   5.232   0.831 -0.7210 -0.4348  1.4841
   75MOL   H35841946   1.501   4.984   0.666  0.7711  1.4226 -0.4769
   75MOL   H35941947   1.438   4.990   0.835  1.8959 -0.3837 -0.0215
   75MOL   H36041948   1.309   5.124   0.591  0.9068 -0.4948 -0.2274
   75MOL   H36141949   1.273   4.958   0.644  0.8655  0.3225 -1.6588
   75MOL   H36241950   1.172   5.225   0.967 -0.1825 -0.1895 -2.5644
   75MOL   H36341951   1.021   5.310   1.150  0.1177  0.4418 -0.4402
   75MOL   H36441952   0.681   5.237   0.896 -0.1951  0.5284 -2.2642
   75MOL   H36541953   0.839   5.166   0.715  2.2276  0.2060 -1.0085
   75MOL   O36641954   0.636   5.312   1.145 -0.3614 -0.2867 -0.2981
   75MOL   C36741955   0.553   5.352   1.254 -0.0751  0.0722  0.7437
   75MOL   C36841956   0.600   5.270   1.377 -0.0743  0.0302  0.5731
   75MOL   C36941957   0.515   5.275   1.499  0.2179  0.0058 -0.2650
   75MOL   C37041958   0.518   5.410   1.571  0.6525 -0.0672  0.7414
   75MOL   O37141959   0.423   5.418   1.674 -0.5199  0.2054  0.1761
   75MOL   C37241960   0.453   5.437   1.803 -0.5859 -0.3009 -0.1613
   75MOL   O37341961   0.564   5.456   1.850 -0.2341  0.4986 -0.4986
   75MOL   C37441962   0.327   5.436   1.883 -0.0704 -0.0330 -0.8149
   75MOL   C37541963   0.341   5.454   2.025  0.5320  0.8305 -0.1146
   75MOL   C37641964   0.230   5.439   2.109 -0.0845 -0.3373  0.3366
   75MOL   C37741965   0.104   5.415   2.053 -0.9265  0.3652  0.4570
   75MOL   C37841966   8.074   5.400   2.125 -0.1423  0.4030  0.1997
   75MOL   O37941967   7.964   5.389   2.070 -0.1426 -0.5390  0.4695
   75MOL   C38041968   0.088   5.409   1.911  0.0778 -0.8969 -0.5993
   75MOL   C38141969   0.198   5.424   1.828 -0.5893 -1.1870 -0.3852
   75MOL   H38241970   0.568   5.457   1.281  1.7056  0.3731 -1.2667
   75MOL   H38341971   0.447   5.335   1.240  0.1792 -0.6266 -0.3696
   75MOL   H38441972   0.702   5.288   1.413 -0.2775  0.1029  1.1182
   75MOL   H38541973   0.601   5.165   1.347 -0.6794  0.3067 -0.4203
   75MOL   H38641974   0.413   5.255   1.467  0.5758  1.2518 -2.2993
   75MOL   H38741975   0.540   5.189   1.560  0.3107 -0.3473 -0.7982
   75MOL   H38841976   0.619   5.442   1.596  1.6375  0.1201 -3.2012
   75MOL   H38941977   0.498   5.480   1.490 -1.2443  0.0278  1.2674
   75MOL   H39041978   0.441   5.458   2.066  0.9753 -0.3865 -1.0450
   75MOL   H39141979   0.250   5.433   2.215  0.4799  1.4534  0.3458
   75MOL   H39241980   8.094   5.384   1.861 -0.5563  1.3207 -0.5822
   75MOL   H39341981   0.183   5.410   1.722  0.6404 -1.8549 -0.4904
   75MOL   O39441982   8.096   5.426   2.257 -0.5728 -0.0351  0.0014
   75MOL   C39541983   7.989   5.449   2.343  0.3316  0.1393 -0.7301
   75MOL   C39641984   7.881   5.554   2.315  0.4251 -0.3365 -0.2280
   75MOL   C39741985   7.936   5.694   2.328  0.3527  0.0042  0.8719
   75MOL   C39841986   7.839   5.803   2.280  0.6732 -0.4487 -0.2041
   75MOL   O39941987   7.910   5.919   2.251 -0.0016 -0.7805  0.1782
   75MOL   C40041988   7.956   6.002   2.349  0.2273 -0.4455  0.0152
   75MOL   O40141989   7.958   5.970   2.467  0.1433  0.1836 -0.1644
   75MOL   C40241990   8.002   6.131   2.294 -0.2613  0.1850 -1.3283
   75MOL   C40341991   8.048   6.143   2.160 -0.4440 -0.4458  0.1310
   75MOL   C40441992   8.098   6.268   2.119  0.6922  0.6155 -0.6067
   75MOL   C40541993   0.005   6.377   2.201 -0.4544 -0.1558 -0.5754
   75MOL   C40641994   0.062   6.510   2.146  0.1677 -0.1309  0.1320
   75MOL   O40741995   0.111   6.514   2.032 -0.6211 -0.1963  0.4916
   75MOL   C40841996   8.047   6.370   2.328 -0.0925 -0.0011  0.2326
   75MOL   C40941997   7.994   6.246   2.381 -0.1841 -0.4948 -0.2169
   75MOL   H41041998   7.945   5.350   2.339  1.0212 -0.2849  1.4612
   75MOL   H41141999   8.023   5.469   2.444 -0.4159 -2.0218 -0.0348
   75MOL   H41242000   7.792   5.527   2.372 -0.1069 -0.9279 -1.3225
   75MOL   H41342001   7.834   5.543   2.217 -0.1199 -0.1204  0.0042
   75MOL   H41442002   7.976   5.716   2.427  0.6621 -1.7592  1.1697
   75MOL   H41542003   8.027   5.694   2.268  0.2106  0.9048  0.6542
   75MOL   H41642004   7.802   5.776   2.181  0.3821 -0.5850 -0.0587
   75MOL   H41742005   7.747   5.808   2.338 -0.2266 -0.0554 -1.6511
   75MOL   H41842006   8.040   6.064   2.087  1.2342 -0.4609 -0.0452
   75MOL   H41942007   0.044   6.280   2.021 -0.9101  1.1389 -1.2870
   75MOL   H42042008   8.051   6.454   2.396  0.0037 -1.7603  2.4657
   75MOL   H42142009   7.954   6.239   2.482 -0.4433  1.6670 -0.1528
   75MOL   O42242010   0.047   6.613   2.234  0.5582 -0.1530 -0.1338
   75MOL   C42342011   0.111   6.736   2.201 -0.4415  0.1652  0.9045
   75MOL   C42442012   0.259   6.743   2.245 -0.4112 -0.6157 -0.1087
   75MOL   C42542013   0.339   6.869   2.203 -0.4164  0.0745  0.4804
   75MOL   C42642014   0.483   6.868   2.248 -0.3629 -0.5911  0.0656
   75MOL   O42742015   0.546   6.758   2.197 -0.3733  0.2990 -0.0971
   75MOL   C42842016   0.673   6.747   2.216  0.7399  0.8017 -0.3178
   75MOL   O42942017   0.746   6.829   2.274  0.1269 -0.4420 -0.0340
   75MOL   C43042018   0.722   6.612   2.161 -0.1809 -1.0051 -0.5993
   75MOL   C43142019   0.646   6.527   2.085  0.0565 -0.5977 -0.9232
   75MOL   C43242020   0.691   6.400   2.049 -0.2500 -0.3360  0.3390
   75MOL   C43342021   0.821   6.361   2.071 -0.2594  0.3549 -0.3422
   75MOL   C43442022   0.857   6.229   2.019 -0.3143 -0.8846 -0.1249
   75MOL   O43542023   0.782   6.141   1.985  0.1808 -0.2322  0.5520
   75MOL   C43642024   0.912   6.454   2.126  0.4157 -0.4009 -0.5118
   75MOL   C43742025   0.856   6.577   2.172  0.2859 -0.3673 -0.3960
   75MOL   H43842026   0.093   6.764   2.097 -3.3558 -0.4804  1.1944
   75MOL   H43942027   0.049   6.807   2.255 -0.8948  0.8602 -0.5106
   75MOL   H44042028   0.304   6.656   2.198 -0.4841 -0.7568  0.0803
   75MOL   H44142029   0.279   6.724   2.351  0.3022 -1.3715 -0.3773
   75MOL   H44242030   0.344   6.864   2.095  2.2969 -0.3026  0.5824
   75MOL   H44342031   0.297   6.969   2.213 -0.4463  0.2481 -1.2183
   75MOL   H44442032   0.534   6.958   2.212 -0.9711 -0.7760 -1.2551
   75MOL   H44542033   0.481   6.870   2.357  0.5054 -0.3481  0.0818
   75MOL   H44642034   0.544   6.547   2.057  0.6084 -1.0867 -3.3637
   75MOL   H44742035   0.619   6.332   2.006 -0.4213 -0.7267  1.2176
   75MOL   H44842036   1.014   6.427   2.148  0.2551 -0.2138  0.5134
   75MOL   H44942037   0.923   6.645   2.221 -0.2256 -0.0827 -0.1006
   75MOL   O45042038   0.986   6.202   2.013  0.2285  0.3624 -0.2623
   75MOL   C45142039   1.037   6.100   1.930 -0.7192 -0.8169  0.0246
   75MOL   C45242040   1.058   5.960   1.995  0.0916 -0.4691  0.3881
   75MOL   C45342041   1.152   5.974   2.110 -0.1172 -0.0420 -0.0226
   75MOL   C45442042   1.297   5.958   2.080  0.0932  0.3498  0.0706
   75MOL   O45542043   1.372   5.959   2.197  0.7689 -0.1222 -0.5847
   75MOL   C45642044   1.510   5.940   2.197  0.3663 -0.7409 -0.4359
   75MOL   O45742045   1.579   5.927   2.104  0.0173  0.1268  0.2655
   75MOL   C45842046   1.560   5.942   2.335  0.9332  0.3970 -0.5897
   75MOL   C45942047   1.496   5.990   2.454  0.0425  0.6695  0.0957
   75MOL   C46042048   1.563   5.973   2.586 -0.2115 -1.0041 -0.4784
   75MOL   C46142049   1.683   5.897   2.592 -0.3094 -0.1830  0.7722
   75MOL   C46242050   1.750   5.858   2.721  0.0586  0.0260 -0.3027
   75MOL   O46342051   1.864   5.819   2.737  0.4062  0.0003  0.1872
   75MOL   C46442052   1.747   5.862   2.476  0.0951  0.1343  0.2978
   75MOL   C46542053   1.688   5.886   2.354 -0.1533  0.0063 -0.5593
   75MOL   H46642054   0.983   6.095   1.836 -1.3502 -0.2316  0.3545
   75MOL   H46742055   1.133   6.131   1.890 -1.0911  0.8201  0.3800
   75MOL   H46842056   1.095   5.895   1.916 -1.5532 -0.2791 -0.5539
   75MOL   H46942057   0.966   5.904   2.010  1.0873 -2.1317  0.3884
   75MOL   H47042058   1.131   6.069   2.160 -2.0976 -0.6067  0.2899
   75MOL   H47142059   1.123   5.903   2.188 -0.1494 -1.7951 -1.5849
   75MOL   H47242060   1.320   5.858   2.044 -2.4706 -0.5299  0.7569
   75MOL   H47342061   1.332   6.030   2.006  1.6004 -0.0788  0.3591
   75MOL   H47442062   1.398   6.034   2.450  0.5711  1.7215 -1.9469
   75MOL   H47542063   1.510   5.999   2.677 -1.5895 -1.1392 -1.2351
   75MOL   H47642064   1.841   5.809   2.483  0.2112  0.6769  4.0166
   75MOL   H47742065   1.751   5.858   2.272 -0.7770 -0.9644 -0.7169
   75MOL   O47842066   1.665   5.877   2.826 -0.6613 -0.8990 -0.2812
   75MOL   C47942067   1.714   5.844   2.950 -0.2510  0.4052 -0.4198
   75MOL   C48042068   1.639   5.936   3.050 -0.3825  0.1077  0.5527
   75MOL   C48142069   1.676   6.091   3.051 -0.3344 -0.4527  0.3561
   75MOL   C48242070   1.803   6.118   3.126  0.3092 -0.0220 -0.5552
   75MOL   O48342071   1.829   6.260   3.138  0.1060 -0.5323 -0.0935
   75MOL   C48442072   1.943   6.312   3.182  0.4496 -0.1855 -0.1773
   75MOL   O48542073   2.036   6.235   3.215  0.4333  0.3181  0.1451
   75MOL   C48642074   1.941   6.455   3.189  0.0938  0.4228  0.2542
   75MOL   C48742075   1.846   6.533   3.128 -0.9088  0.6980 -0.3656
   75MOL   C48842076   1.839   6.675   3.137  0.1635  0.1259 -1.0343
   75MOL   C48942077   1.943   6.745   3.199 -0.6807 -0.1702 -0.4106
   75MOL   C49042078   1.942   6.893   3.194  0.9830 -0.4819  0.0481
   75MOL   O49142079   1.859   6.969   3.143  0.2303  0.5074 -0.2094
   75MOL   C49242080   2.041   6.670   3.264 -0.0748 -0.3744 -0.4319
   75MOL   C49342081   2.038   6.528   3.261 -0.1067 -0.5669 -0.1768
   75MOL   H49442082   1.695   5.740   2.976 -2.5051  0.9391  0.1729
   75MOL   H49542083   1.822   5.860   2.944 -0.2071 -0.3471 -2.1304
   75MOL   H49642084   1.661   5.894   3.148  0.9641  0.1357  0.2751
   75MOL   H49742085   1.532   5.915   3.042 -0.1698  0.1635 -2.9522
   75MOL   H49842086   1.699   6.139   2.955 -0.5836  2.2663  1.6125
   75MOL   H49942087   1.595   6.142   3.102 -1.3409 -1.2802 -0.3772
   75MOL   H50042088   1.794   6.085   3.229  3.0610 -1.5780 -0.7557
   75MOL   H50142089   1.891   6.083   3.071 -0.1247 -1.2577 -0.4573
   75MOL   H50242090   1.761   6.490   3.077 -0.7599 -0.1028  0.0537
   75MOL   H50342091   1.756   6.722   3.087  1.2130 -0.0510 -2.9827
   75MOL   H50442092   2.115   6.712   3.331 -1.9037 -1.2974  2.2839
   75MOL   H50542093   2.120   6.477   3.308  0.0130  2.3525  2.9139
   75MOL   O50642094   2.048   6.934   3.245 -0.2092  0.2749 -0.0833
   75MOL   C50742095   2.087   7.070   3.244  0.2462  0.6552 -0.0507
   75MOL   C50842096   2.239   7.091   3.270  0.2168  0.0110 -0.2729
   75MOL   C50942097   2.295   7.041   3.404 -0.0510  0.5077 -0.1997
   75MOL   C51042098   2.457   7.047   3.410 -0.5829  0.8695  0.5692
   75MOL   O51142099   2.494   7.180   3.434 -0.4089  0.1027  0.2669
   75MOL   C51242100   2.621   7.214   3.462 -0.0441  0.6464 -0.1602
   75MOL   O51342101   2.704   7.127   3.453 -0.2062 -0.5463 -0.4616
   75MOL   C51442102   2.636   7.357   3.495 -0.1554  0.2591 -0.1296
   75MOL   C51542103   2.537   7.437   3.554 -0.3257  0.8728 -0.5517
   75MOL   C51642104   2.563   7.567   3.600 -0.5400 -0.2480 -0.3711
   75MOL   C51742105   2.688   7.623   3.572  0.5579 -0.6590  0.2564
   75MOL   C51842106   2.720   7.762   3.614  0.3473 -0.2031 -0.1508
   75MOL   O51942107   2.815   7.825   3.586 -1.0462  0.2865  0.3619
   75MOL   C52042108   2.781   7.555   3.496  0.3499  0.7663 -0.4784
   75MOL   C52142109   2.764   7.419   3.469  0.5593 -0.4022 -0.2259
   75MOL   H52242110   2.059   7.125   3.153 -0.9037  0.0268 -0.0830
   75MOL   H52342111   2.027   7.131   3.311 -0.5642 -0.4402  0.2203
   75MOL   H52442112   2.257   7.197   3.251 -0.0447  0.1791  0.3942
   75MOL   H52542113   2.285   7.037   3.188  0.0010  0.8154 -0.9278
   75MOL   H52642114   2.241   7.102   3.476 -0.8879 -0.6864  0.2117
   75MOL   H52742115   2.256   6.940   3.417  0.4211  0.4861  1.0772
   75MOL   H52842116   2.489   6.995   3.500  2.4323 -0.4113 -1.1649
   75MOL   H52942117   2.500   6.997   3.324  0.3668  0.2198  1.4158
   75MOL   H53042118   2.449   7.384   3.586  1.2158 -2.3763 -1.5579
   75MOL   H53142119   2.487   7.623   3.653  0.7510 -0.0982  1.3922
   75MOL   H53242120   2.876   7.597   3.465  0.5082  1.0514  0.3644
   75MOL   H53342121   2.838   7.357   3.420 -1.3171 -3.2761  0.4469
   75MOL   O53442122   2.627   7.795   3.706 -0.0124  0.0366  0.1108
   75MOL   C53542123   2.634   7.919   3.767 -0.6036  0.4207  0.0212
   75MOL   C53642124   2.552   8.021   3.695  0.1517  0.0653  0.3319
   75MOL   C53742125   2.624   0.016   3.597  1.0706 -0.3094  0.1986
   75MOL   C53842126   2.547   0.146   3.555 -0.2268  0.1270  0.1988
   75MOL   O53942127   2.624   0.233   3.471  0.5566  0.2991 -0.2946
   75MOL   C54042128   2.671   0.188   3.355 -0.0630 -0.3148  0.4243
   75MOL   O54142129   2.642   0.076   3.310 -0.5981  0.6200  0.2483
   75MOL   C54242130   2.743   0.294   3.270 -0.2849  0.0201  0.3096
   75MOL   C54342131   2.794   0.262   3.146 -0.0658  0.4367  0.6766
   75MOL   C54442132   2.865   0.352   3.068 -0.0942 -0.0241 -0.3413
   75MOL   C54542133   2.889   0.484   3.114  0.3570  0.1376 -0.4174
   75MOL   C54642134   2.964   0.584   3.033  0.0155  0.6015  0.3257
   75MOL   O54742135   3.004   0.691   3.076  0.0287  0.1276 -0.4105
   75MOL   C54842136   2.850   0.516   3.245 -0.1252  0.0093 -0.4750
   75MOL   C54942137   2.788   0.422   3.323  0.5105  0.3709  0.0483
   75MOL   H55042138   2.587   7.896   3.863 -2.6735 -0.6001 -1.2133
   75MOL   H55142139   2.738   7.943   3.789  0.7478 -1.6774 -3.6136
   75MOL   H55242140   2.509   8.078   3.777  0.9028  2.2286 -0.7454
   75MOL   H55342141   2.464   7.979   3.647 -1.2951  1.6610  1.5277
   75MOL   H55442142   2.728   0.029   3.626  1.2940  2.8191 -1.7340
   75MOL   H55542143   2.632   8.049   3.510 -2.4427  0.9353 -1.1761
   75MOL   H55642144   2.456   0.133   3.496 -0.5240 -0.0442  0.6990
   75MOL   H55742145   2.529   0.200   3.647 -0.7841 -0.2249  0.2982
   75MOL   H55842146   2.784   0.166   3.098 -1.2288  1.0803 -0.4213
   75MOL   H55942147   2.880   0.322   2.965  1.7444  1.1188 -0.4276
   75MOL   H56042148   2.892   0.606   3.290  1.9945  0.1821 -2.6828
   75MOL   H56142149   2.774   0.446   3.427  1.2504  1.2383 -0.0379
   75MOL   H56242150   3.001   0.553   2.935  0.0696  1.3052  0.1223
   76MOL     O142151   0.600   7.407   0.280 -0.9713 -0.1212  0.0561
   76MOL     C242152   0.493   7.466   0.334  0.4560  0.5596 -1.2736
   76MOL     C342153   0.486   7.418   0.476 -0.1489 -0.0413  0.5369
   76MOL     C442154   0.603   7.454   0.571 -0.0860  0.2758 -0.3051
   76MOL     C542155   0.568   7.578   0.657  0.4632 -0.5375 -0.0227
   76MOL     O642156   0.555   7.695   0.574  0.1813 -0.6069 -0.1297
   76MOL     C742157   0.591   7.811   0.622  0.1989 -0.0546  0.2525
   76MOL     O842158   0.624   7.833   0.733  0.5475 -0.5091 -0.3403
   76MOL     C942159   0.585   7.925   0.519  0.4313  0.3578 -0.4647
   76MOL    C1042160   0.567   7.889   0.383  0.1321 -0.2005  0.3708
   76MOL    C1142161   0.555   7.989   0.285 -0.3048  0.0801 -0.1116
   76MOL    C1242162   0.571   0.026   0.327 -1.4674 -0.0892 -0.0877
   76MOL    C1342163   0.568   0.130   0.233  0.3361  0.1989 -0.1554
   76MOL    O1442164   0.577   0.248   0.255  0.2561 -0.4013 -0.1975
   76MOL    C1542165   0.608   0.055   0.466 -0.3682 -0.3692  0.7961
   76MOL    C1642166   0.606   8.055   0.562 -0.5642  0.1639 -0.4290
   76MOL    H1742167   0.496   7.574   0.322  0.0325  0.5961 -1.0540
   76MOL    H1842168   0.403   7.432   0.282  0.6002 -2.0965  0.0873
   76MOL    H1942169   0.466   7.311   0.479 -2.2889  0.3304  0.6338
   76MOL    H2042170   0.393   7.467   0.507 -0.2377  2.9932 -3.9642
   76MOL    H2142171   0.620   7.378   0.647 -0.1529  1.8134  1.2936
   76MOL    H2242172   0.702   7.466   0.526 -0.7096  0.6897 -1.5910
   76MOL    H2342173   0.465   7.561   0.691  1.2579 -1.3870  2.0244
   76MOL    H2442174   0.638   7.590   0.739  1.5878 -0.0526 -1.0365
   76MOL    H2542175   0.550   7.786   0.356  2.3053 -0.7466  0.9756
   76MOL    H2642176   0.519   7.958   0.188 -3.3764  1.8205  0.3950
   76MOL    H2742177   0.647   0.153   0.490 -3.0408  1.1394 -0.7596
   76MOL    H2842178   0.621   8.085   0.665 -0.6543  0.2868 -0.4513
   76MOL    H2942179   0.613   7.443   0.194 -1.2193 -1.7115 -0.6748
   76MOL    O3042180   0.555   0.082   0.109  0.2581  0.0566 -0.1935
   76MOL    C3142181   0.540   0.169   8.094  0.3084 -0.6026  0.6631
   76MOL    C3242182   0.394   0.189   8.046 -0.9519 -0.3383 -0.4645
   76MOL    C3342183   0.314   0.054   8.037 -0.2437  0.2170  0.1961
   76MOL    C3442184   0.185   0.074   7.953 -0.2615 -0.1839  0.5485
   76MOL    O3542185   0.141   8.039   7.923 -0.1663  0.4409 -0.0101
   76MOL    C3642186   0.130   8.003   7.798 -1.2034 -0.3511 -0.0230
   76MOL    O3742187   0.158   8.071   7.700 -0.2576 -0.5341 -1.1755
   76MOL    C3842188   0.099   7.857   7.797 -1.1961 -0.4510 -0.0062
   76MOL    C3942189   0.159   7.769   7.703 -0.2735  0.1173 -0.9195
   76MOL    C4042190   0.135   7.630   7.707 -0.5127 -0.4264 -0.3474
   76MOL    C4142191   0.057   7.574   7.811  0.1370  0.5605  0.3989
   76MOL    C4242192   0.048   7.425   7.818 -0.4586  0.1703  0.2772
   76MOL    O4342193   0.121   7.349   7.756  0.1006 -0.4913 -0.5500
   76MOL    C4442194   8.088   7.662   7.895  0.9284  0.4751  0.1875
   76MOL    C4542195   0.008   7.800   7.891 -0.2830 -0.3877 -0.4022
   76MOL    H4642196   0.588   0.266   0.003 -1.5073  0.3762 -0.0908
   76MOL    H4742197   0.598   0.120   8.016  2.2499  2.6703 -0.0416
   76MOL    H4842198   0.393   0.248   7.955 -3.2406 -0.6425 -0.6589
   76MOL    H4942199   0.351   0.244   0.032 -0.4729 -0.4855 -0.1196
   76MOL    H5042200   0.374   8.081   7.980  1.4523  2.7181 -1.2621
   76MOL    H5142201   0.292   0.026   0.041 -1.4611 -0.8229 -0.3462
   76MOL    H5242202   0.112   0.138   8.001 -0.1289  0.0404  0.4513
   76MOL    H5342203   0.206   0.127   7.860 -1.5900 -0.9609 -0.2071
   76MOL    H5442204   0.234   7.801   7.632  1.7897  0.4694  1.3500
   76MOL    H5542205   0.169   7.569   7.625 -1.0291 -0.8267 -0.2625
   76MOL    H5642206   8.024   7.620   7.971  1.5316 -0.3093  0.2644
   76MOL    H5742207   8.055   7.862   7.963  1.0905 -0.7049  0.8698
   76MOL    O5842208   8.056   7.390   7.912  0.3732  0.4335 -0.0298
   76MOL    C5942209   8.040   7.254   7.950 -0.8040 -0.9926  0.5313
   76MOL    C6042210   0.003   7.232   8.095 -0.2775 -0.1898 -0.6095
   76MOL    C6142211   8.038   7.315   0.108 -0.2852  0.3448 -0.0738
   76MOL    C6242212   0.035   7.347   0.224 -0.3774 -0.0926 -0.1978
   76MOL    O6342213   0.067   7.226   0.292 -0.1668 -0.2875 -0.2861
   76MOL    C6442214   0.149   7.227   0.398 -0.3431  0.0000  0.3731
   76MOL    O6542215   0.188   7.327   0.450 -0.2237 -0.4075 -0.0052
   76MOL    C6642216   0.168   7.090   0.458 -0.1891 -1.1943 -0.5898
   76MOL    C6742217   0.274   7.073   0.552  0.3970  0.4149 -0.1599
   76MOL    C6842218   0.306   6.951   0.607 -0.4396  0.3681 -0.0989
   76MOL    C6942219   0.224   6.839   0.573 -0.7215  0.0106 -0.0557
   76MOL    C7042220   0.260   6.707   0.626 -0.2519  0.4488 -0.2266
   76MOL    O7142221   0.344   6.692   0.720  0.6012  0.0754  0.2411
   76MOL    C7242222   0.115   6.856   0.480 -0.3029 -0.4095 -0.5045
   76MOL    C7342223   0.084   6.984   0.427  0.5677  0.5712  0.2548
   76MOL    H7442224   7.936   7.220   7.945 -1.0638 -0.1523  0.2381
   76MOL    H7542225   0.006   7.199   7.881  1.4786  0.4695  1.4595
   76MOL    H7642226   0.111   7.248   0.002 -0.4848  1.6381 -1.4050
   76MOL    H7742227   8.078   7.128   0.017  0.9013 -0.4705 -0.6909
   76MOL    H7842228   8.028   7.418   0.073 -0.0571  0.7130  0.9337
   76MOL    H7942229   7.935   7.290   0.132 -0.3990  2.1005  1.3759
   76MOL    H8042230   0.120   7.399   0.180 -0.9994  0.0597 -1.2224
   76MOL    H8142231   8.084   7.408   0.299 -0.0953  1.6193 -1.3817
   76MOL    H8242232   0.336   7.156   0.585 -0.6251  0.1112  2.6978
   76MOL    H8342233   0.388   6.944   0.678  1.2794 -0.0746 -2.0739
   76MOL    H8442234   0.052   6.774   0.450 -0.7655  0.1161 -0.9711
   76MOL    H8542235   8.091   6.994   0.371 -0.3571  0.9941  1.7993
   76MOL    O8642236   0.209   6.597   0.562  0.1837 -0.5138  0.1864
   76MOL    C8742237   0.244   6.461   0.589  0.5137  0.0184 -0.4528
   76MOL    C8842238   0.157   6.370   0.499  0.4665  0.1327 -0.5302
   76MOL    C8942239   0.017   6.344   0.550 -0.8229 -0.0598 -0.0663
   76MOL    C9042240   8.038   6.269   0.446  0.4154  0.4175 -0.2016
   76MOL    O9142241   7.916   6.225   0.502 -1.1355  0.0680  0.1850
   76MOL    C9242242   7.797   6.224   0.430 -0.7419 -0.2095  0.3365
   76MOL    O9342243   7.787   6.249   0.307  0.4187  0.0345 -0.0109
   76MOL    C9442244   7.679   6.172   0.507  0.4848 -0.5961 -0.1605
   76MOL    C9542245   7.688   6.144   0.640  0.5361  0.1261  0.2365
   76MOL    C9642246   7.575   6.098   0.707 -0.3746  0.8891 -0.2024
   76MOL    C9742247   7.447   6.072   0.649  0.0719  0.1476 -0.0633
   76MOL    C9842248   7.333   6.011   0.731 -0.0389  0.2555 -0.2614
   76MOL    O9942249   7.353   5.979   0.850 -0.1687  0.0975  0.0057
   76MOL   C10042250   7.440   6.108   0.512 -0.7050 -0.4633  0.4866
   76MOL   C10142251   7.555   6.151   0.440  0.4107 -1.0005 -0.0934
   76MOL   H10242252   0.351   6.466   0.565  0.9063 -1.0573  0.9615
   76MOL   H10342253   0.220   6.438   0.693 -1.6584 -0.7364 -1.0951
   76MOL   H10442254   0.211   6.278   0.474  1.4756  0.0246  1.8095
   76MOL   H10542255   0.141   6.427   0.408  1.9119  1.8910  0.2893
   76MOL   H10642256   0.021   6.279   0.637 -0.1405 -1.2635 -0.9838
   76MOL   H10742257   8.070   6.437   0.586  1.7196  0.4637  1.9300
   76MOL   H10842258   8.018   6.325   0.354 -1.4507 -2.4590 -1.6230
   76MOL   H10942259   8.093   6.179   0.419 -1.5127 -0.8257 -0.0938
   76MOL   H11042260   7.783   6.149   0.691  1.0126  1.2645 -0.7373
   76MOL   H11142261   7.590   6.068   0.810 -0.4370  0.3419 -0.3543
   76MOL   H11242262   7.349   6.089   0.456  0.9128  0.4591 -2.5802
   76MOL   H11342263   7.544   6.170   0.335  0.2457  1.1341  0.2824
   76MOL   O11442264   7.221   6.008   0.665  0.4611 -0.1112  0.0130
   76MOL   C11542265   7.101   5.948   0.712 -0.2850  0.0040 -0.4086
   76MOL   C11642266   7.006   5.903   0.597 -0.8495 -0.6990  0.2829
   76MOL   C11742267   6.896   6.005   0.554  0.0046  0.1778 -0.4810
   76MOL   C11842268   6.942   6.088   0.435  0.1882  0.9913  0.2038
   76MOL   O11942269   6.834   6.168   0.408 -0.7859 -0.6915  0.0010
   76MOL   C12042270   6.848   6.274   0.321  0.0260 -0.9800 -0.2005
   76MOL   O12142271   6.942   6.291   0.247  0.1051 -0.4821  0.2810
   76MOL   C12242272   6.727   6.362   0.313  0.2415  0.0632 -0.3063
   76MOL   C12342273   6.738   6.475   0.232  0.1664 -0.2063 -0.5625
   76MOL   C12442274   6.639   6.575   0.235  0.4201 -0.6802  0.4228
   76MOL   C12542275   6.518   6.547   0.297 -0.9106  0.1499 -1.1254
   76MOL   C12642276   6.406   6.643   0.277 -0.5883  0.0317 -0.4893
   76MOL   O12742277   6.400   6.739   0.204 -0.0048 -0.9975 -0.6981
   76MOL   C12842278   6.502   6.430   0.371  0.2665 -0.8177  0.3135
   76MOL   C12942279   6.604   6.341   0.380 -0.2299  0.0298 -0.5528
   76MOL   H13042280   7.127   5.858   0.767  0.5612  1.3585  1.4378
   76MOL   H13142281   7.039   6.010   0.777  0.2144 -0.3684  0.4173
   76MOL   H13242282   6.953   5.814   0.630 -0.6993 -0.2488  1.8263
   76MOL   H13342283   7.076   5.880   0.517 -0.6484  2.5632 -0.5784
   76MOL   H13442284   6.804   5.954   0.527 -0.1704 -0.0837  0.5626
   76MOL   H13542285   6.864   6.069   0.637 -1.5453 -0.7267 -0.3552
   76MOL   H13642286   7.032   6.141   0.466 -0.5559  2.9867 -0.9746
   76MOL   H13742287   6.956   6.014   0.356 -1.7393  0.4386  0.3606
   76MOL   H13842288   6.832   6.491   0.181  0.1959 -0.4773 -0.5901
   76MOL   H13942289   6.653   6.669   0.183 -1.4137  0.0616  1.2279
   76MOL   H14042290   6.410   6.406   0.422 -0.5432  0.3836 -0.5588
   76MOL   H14142291   6.596   6.246   0.430 -1.6892 -0.1617 -1.1258
   76MOL   O14242292   6.300   6.609   0.358 -0.0488 -0.2345 -0.3790
   76MOL   C14342293   6.185   6.694   0.372 -0.2698  0.1641 -0.6665
   76MOL   C14442294   6.165   6.752   0.513 -0.3451 -0.2948  0.0817
   76MOL   C14542295   6.061   6.860   0.518 -0.1431 -0.0175 -0.2662
   76MOL   C14642296   6.066   6.935   0.647  0.3733 -0.2851 -0.0354
   76MOL   O14742297   6.042   6.844   0.749 -0.1430 -0.2218  0.1887
   76MOL   C14842298   6.086   6.862   0.875  0.2492 -0.1760  0.1788
   76MOL   O14942299   6.158   6.954   0.909  0.3494  0.0259  0.2519
   76MOL   C15042300   6.038   6.747   0.955  0.3630 -0.0297  0.3748
   76MOL   C15142301   6.029   6.766   1.093  0.5238  0.4699 -0.3538
   76MOL   C15242302   5.981   6.662   1.181  0.1816 -0.1838 -0.2143
   76MOL   C15342303   5.944   6.537   1.132 -0.1638 -0.1593 -0.5281
   76MOL   C15442304   5.925   6.426   1.219 -0.6990  0.5138  0.0244
   76MOL   O15542305   5.907   6.311   1.175 -0.0446 -0.0955  0.4895
   76MOL   C15642306   5.943   6.518   0.994 -0.0503  0.3532 -0.6441
   76MOL   C15742307   5.987   6.619   0.913  0.4951 -0.5197 -0.2762
   76MOL   H15842308   6.190   6.773   0.297 -0.6153  0.2619 -0.5874
   76MOL   H15942309   6.094   6.646   0.336 -0.2030  0.2608 -0.9686
   76MOL   H16042310   6.255   6.783   0.565  0.4215 -1.7586 -0.3591
   76MOL   H16142311   6.135   6.669   0.577 -3.0952  1.3775  1.0329
   76MOL   H16242312   6.085   6.932   0.440  0.9682  0.1455  0.2162
   76MOL   H16342313   5.964   6.823   0.485 -1.0021 -1.2940  3.4767
   76MOL   H16442314   6.163   6.986   0.654  0.1666  0.3204 -1.3216
   76MOL   H16542315   5.992   7.014   0.635  0.9748  0.1430 -1.0134
   76MOL   H16642316   6.052   6.864   1.133 -1.8839  1.9312 -2.3772
   76MOL   H16742317   5.975   6.685   1.286 -0.5156 -0.5512 -0.1729
   76MOL   H16842318   5.921   6.421   0.952 -1.0035  0.0410  0.5445
   76MOL   H16942319   5.980   6.597   0.807 -0.0573  0.7171 -0.5019
   76MOL   O17042320   5.906   6.463   1.347  0.0090 -0.6387 -0.0295
   76MOL   C17142321   5.873   6.369   1.445 -0.0636  0.0449  0.1602
   76MOL   C17242322   5.893   6.411   1.589 -0.2449 -1.0535  0.0948
   76MOL   C17342323   5.791   6.520   1.625 -0.1097  0.5983  0.0488
   76MOL   C17442324   5.804   6.592   1.758  0.3319  0.6272 -0.3445
   76MOL   O17542325   5.754   6.505   1.857 -0.3036  0.3617  0.2280
   76MOL   C17642326   5.683   6.553   1.965  0.0878  0.1736 -0.2899
   76MOL   O17742327   5.647   6.667   1.973 -0.6340 -0.3584 -0.6951
   76MOL   C17842328   5.665   6.451   2.071  0.2248  0.2308  0.5136
   76MOL   C17942329   5.613   6.497   2.198 -0.7142 -0.4077 -0.7298
   76MOL   C18042330   5.611   6.408   2.304  0.6024 -0.2770  0.8796
   76MOL   C18142331   5.638   6.268   2.286  0.0114 -0.4788 -0.4112
   76MOL   C18242332   5.627   6.174   2.398  0.8247  1.0273 -1.0646
   76MOL   O18342333   5.642   6.052   2.391 -0.2839  0.3131 -0.5040
   76MOL   C18442334   5.670   6.225   2.159  0.1579 -0.3993  0.4199
   76MOL   C18542335   5.689   6.315   2.051  0.2387 -0.1428 -0.4144
   76MOL   H18642336   5.770   6.335   1.436 -0.1071  0.6925 -1.8594
   76MOL   H18742337   5.939   6.284   1.431  1.1264  1.0857 -0.6258
   76MOL   H18842338   5.997   6.441   1.605  0.1910 -2.2086 -0.5002
   76MOL   H18942339   5.863   6.336   1.662 -0.1118 -1.3524 -0.1571
   76MOL   H19042340   5.793   6.599   1.550 -0.1554 -1.5702 -2.3161
   76MOL   H19142341   5.690   6.480   1.620  0.4859 -1.0700  1.1674
   76MOL   H19242342   5.911   6.611   1.762  0.6698 -0.8844 -2.0145
   76MOL   H19342343   5.738   6.679   1.756 -2.0573 -1.1317 -0.5400
   76MOL   H19442344   5.592   6.602   2.211 -0.6943 -0.1063 -2.9297
   76MOL   H19542345   5.587   6.447   2.402 -2.7969 -1.5197  0.6263
   76MOL   H19642346   5.687   6.120   2.143 -1.8300 -0.8318  1.0327
   76MOL   H19742347   5.726   6.274   1.958 -1.5176 -1.2313 -0.6730
   76MOL   O19842348   5.603   6.235   2.514 -0.1154 -0.0195  0.1017
   76MOL   C19942349   5.580   6.149   2.625 -0.6184  0.0024  0.2444
   76MOL   C20042350   5.521   6.231   2.741 -0.6272  0.5238  0.6865
   76MOL   C20142351   5.399   6.307   2.696 -0.3555  0.1018 -0.5954
   76MOL   C20242352   5.279   6.216   2.695 -0.0743 -0.0294  0.2182
   76MOL   O20342353   5.164   6.279   2.662  0.5574 -0.7800 -0.3038
   76MOL   C20442354   5.094   6.337   2.754  0.8189 -0.4776 -0.0951
   76MOL   O20542355   5.131   6.355   2.867 -0.3564  0.1216  0.5425
   76MOL   C20642356   4.962   6.380   2.713  0.0338  0.0156 -0.5315
   76MOL   C20742357   4.863   6.426   2.803 -0.1163  0.2844  0.2186
   76MOL   C20842358   4.737   6.476   2.761 -0.1138  0.1605 -0.1711
   76MOL   C20942359   4.710   6.481   2.622  0.5906  0.3056 -0.1216
   76MOL   C21042360   4.586   6.534   2.564 -0.6534 -0.3495 -0.1067
   76MOL   O21142361   4.567   6.537   2.443  0.0307  0.0155 -0.0615
   76MOL   C21242362   4.803   6.428   2.534  0.2432 -0.3735 -0.4163
   76MOL   C21342363   4.925   6.377   2.579  0.4103 -0.1178  0.1403
   76MOL   H21442364   5.512   6.068   2.599 -1.8382  0.5077  1.7759
   76MOL   H21542365   5.678   6.113   2.656  0.0812  1.3056 -0.4386
   76MOL   H21642366   5.599   6.305   2.759  0.3570  0.2062 -1.9720
   76MOL   H21742367   5.499   6.174   2.832  1.0761 -0.8817  0.2536
   76MOL   H21842368   5.387   6.388   2.768  0.9511  0.8250 -1.1790
   76MOL   H21942369   5.411   6.366   2.605 -0.4931  1.4560  0.2526
   76MOL   H22042370   5.298   6.150   2.610  0.2261 -0.5944  0.7227
   76MOL   H22142371   5.274   6.172   2.794  1.3641  1.8507  1.1636
   76MOL   H22242372   4.895   6.447   2.904  1.1387 -2.0942  0.3744
   76MOL   H22342373   4.668   6.523   2.830 -0.5151 -0.8990  0.1616
   76MOL   H22442374   4.779   6.426   2.429 -0.7384 -0.5243 -0.1968
   76MOL   H22542375   4.990   6.335   2.504  1.2328 -2.5555  2.1433
   76MOL   O22642376   4.502   6.582   2.655  0.5838 -0.6828  0.3523
   76MOL   C22742377   4.392   6.657   2.609 -0.2910  0.7531  0.3912
   76MOL   C22842378   4.269   6.579   2.573 -0.4404 -0.9416  0.2442
   76MOL   C22942379   4.219   6.490   2.691  0.7353  0.1272  0.1226
   76MOL   C23042380   4.085   6.423   2.658  0.4476  0.1124  0.0004
   76MOL   O23142381   3.979   6.519   2.673  0.5336  1.0052  0.2646
   76MOL   C23242382   3.850   6.483   2.637 -0.4248  0.7988  0.2845
   76MOL   O23342383   3.820   6.364   2.609  0.2602 -0.4159  0.3944
   76MOL   C23442384   3.764   6.604   2.619 -0.0576 -0.1366  0.7627
   76MOL   C23542385   3.827   6.732   2.633  0.3305  0.1894  0.1912
   76MOL   C23642386   3.745   6.840   2.599  0.3575 -0.2925 -0.3263
   76MOL   C23742387   3.611   6.821   2.551  0.6954  0.0914 -0.4874
   76MOL   C23842388   3.519   6.928   2.523  0.8375 -0.4979 -0.5807
   76MOL   O23942389   3.405   6.926   2.480  0.4570  0.1792  0.8013
   76MOL   C24042390   3.552   6.691   2.549 -0.5368 -0.2752  0.0414
   76MOL   C24142391   3.634   6.581   2.574  0.1309  0.6272 -0.2001
   76MOL   H24242392   4.371   6.721   2.695  2.9820 -0.8764  2.5343
   76MOL   H24342393   4.419   6.721   2.525 -1.1171 -1.0141 -1.2432
   76MOL   H24442394   4.282   6.516   2.485 -1.2944  2.3449 -2.3487
   76MOL   H24542395   4.195   6.657   2.554 -0.0680 -0.5003  0.5930
   76MOL   H24642396   4.289   6.407   2.696  0.0583 -0.5783 -1.5721
   76MOL   H24742397   4.191   6.538   2.785 -1.2316  0.6131 -0.6760
   76MOL   H24842398   4.084   6.379   2.558  2.2251  2.3500 -1.0559
   76MOL   H24942399   4.068   6.342   2.729 -1.6538  0.0867 -0.4802
   76MOL   H25042400   3.932   6.744   2.655  0.3583 -1.8031  1.2080
   76MOL   H25142401   3.792   6.934   2.623 -1.8703  0.0753  2.7795
   76MOL   H25242402   3.448   6.676   2.523 -0.6953  1.2754 -0.2553
   76MOL   H25342403   3.598   6.479   2.575  4.3182 -1.0476 -3.7098
   76MOL   O25442404   3.579   7.052   2.547  0.3157  0.2144  0.1623
   76MOL   C25542405   3.511   7.166   2.502  0.2822  0.0408 -0.1227
   76MOL   C25642406   3.537   7.197   2.356  0.1981  0.2656 -0.2839
   76MOL   C25742407   3.465   7.319   2.305 -0.0095  0.1358 -0.2870
   76MOL   C25842408   3.501   7.448   2.375  0.1411 -0.2319 -0.3984
   76MOL   O25942409   3.413   7.470   2.492  0.0908 -0.7285  0.5020
   76MOL   C26042410   3.423   7.588   2.567  0.2010 -0.7359  0.5199
   76MOL   O26142411   3.486   7.683   2.526  0.0393  0.5104 -0.3206
   76MOL   C26242412   3.346   7.581   2.695 -0.4508  0.4307  0.1087
   76MOL   C26342413   3.325   7.453   2.749 -0.4096  0.4049 -0.1892
   76MOL   C26442414   3.238   7.443   2.860  0.1726 -0.8113 -0.0172
   76MOL   C26542415   3.180   7.559   2.926  0.2613  0.8075 -0.2091
   76MOL   C26642416   3.098   7.545   3.044  0.4357 -0.5938  0.3962
   76MOL   O26742417   3.071   7.439   3.101  0.1387  0.1420  0.1466
   76MOL   C26842418   3.209   7.687   2.865 -0.8848  0.7843 -0.3374
   76MOL   C26942419   3.288   7.696   2.750 -0.2466 -0.4303 -0.4183
   76MOL   H27042420   3.406   7.161   2.529  0.4036 -2.8323 -0.0548
   76MOL   H27142421   3.554   7.250   2.557 -0.4999  1.6848 -1.9668
   76MOL   H27242422   3.502   7.123   2.284 -4.0474  2.2604 -0.4054
   76MOL   H27342423   3.644   7.214   2.344  0.1344  0.3202 -0.8042
   76MOL   H27442424   3.483   7.335   2.199 -1.6422  0.1426 -0.5701
   76MOL   H27542425   3.357   7.304   2.307 -0.3576  2.4162 -0.2181
   76MOL   H27642426   3.608   7.452   2.396  0.1934 -0.6390 -0.5799
   76MOL   H27742427   3.491   7.536   2.312  1.4706  0.1117 -0.1353
   76MOL   H27842428   3.377   7.371   2.701  1.6947  1.9352 -0.5848
   76MOL   H27942429   3.200   7.352   2.904 -3.5134  1.4505  1.6449
   76MOL   H28042430   3.178   7.775   2.920 -2.6886 -0.1547  0.1668
   76MOL   H28142431   3.309   7.793   2.708  1.0933  0.2489  1.6992
   76MOL   O28242432   3.073   7.671   3.091  0.4762  0.2537  0.2593
   76MOL   C28342433   2.997   7.694   3.207  0.6364 -0.2534 -0.6085
   76MOL   C28442434   2.904   7.810   3.166 -0.0147 -0.2090  0.1189
   76MOL   C28542435   2.768   7.759   3.111  0.0202  0.5818 -0.1554
   76MOL   C28642436   2.663   7.863   3.067  0.2097  0.7480 -0.2165
   76MOL   O28742437   2.723   7.959   2.979 -0.7060 -0.5698 -0.2556
   76MOL   C28842438   2.655   8.050   2.909 -0.4421 -1.1921  0.2628
   76MOL   O28942439   2.535   8.071   2.921 -0.0184 -0.0493  0.5375
   76MOL   C29042440   2.748   0.048   2.830 -0.2091  1.1614 -1.3778
   76MOL   C29142441   2.893   0.032   2.823 -0.0278 -0.0617  0.2054
   76MOL   C29242442   2.965   0.123   2.742 -0.4163 -0.0471 -0.2233
   76MOL   C29342443   2.910   0.237   2.678 -0.3890 -0.0399  0.5701
   76MOL   C29442444   2.994   0.323   2.594 -0.1087  1.1211 -1.1936
   76MOL   O29542445   2.948   0.428   2.549 -0.3542 -0.1741  0.2367
   76MOL   C29642446   2.772   0.253   2.694 -0.3895 -0.0529 -0.2509
   76MOL   C29742447   2.690   0.156   2.762 -0.0042  0.5093 -0.9829
   76MOL   H29842448   2.945   7.606   3.247 -0.6701  0.3233 -0.9953
   76MOL   H29942449   3.069   7.723   3.283 -1.1959 -4.0464  2.7861
   76MOL   H30042450   2.955   7.869   3.090  3.3032 -1.9552  0.8855
   76MOL   H30142451   2.897   7.878   3.251 -0.8229  2.2274 -1.8412
   76MOL   H30242452   2.781   7.693   3.025 -2.5130  0.4093 -0.4415
   76MOL   H30342453   2.726   7.693   3.187  0.9837  0.8923  0.6603
   76MOL   H30442454   2.587   7.804   3.017  2.0215 -1.3096 -0.6165
   76MOL   H30542455   2.606   7.909   3.148 -1.2792 -0.1378 -0.7418
   76MOL   H30642456   2.942   8.045   2.867 -0.2276 -0.8380 -1.0447
   76MOL   H30742457   3.070   0.096   2.734  0.0179  1.2041  0.8569
   76MOL   H30842458   2.731   0.345   2.655 -0.0302  0.5554  0.7843
   76MOL   H30942459   2.584   0.176   2.759 -0.4980 -1.7226  0.1803
   76MOL   O31042460   3.118   0.283   2.579  0.1887  0.0548  0.3115
   76MOL   C31142461   3.201   0.346   2.484  0.2092 -0.3853  0.0288
   76MOL   C31242462   3.324   0.265   2.446  0.4977 -0.0019  0.6787
   76MOL   C31342463   3.409   0.323   2.325  0.1210  0.1617 -0.1555
   76MOL   C31442464   3.549   0.272   2.330  0.1586  0.6000  0.0148
   76MOL   O31542465   3.622   0.298   2.459  0.0750 -0.2930  0.4320
   76MOL   C31642466   3.738   0.230   2.490  0.2413 -0.6692  0.2538
   76MOL   O31742467   3.793   0.154   2.404 -0.0534  0.2493 -0.1984
   76MOL   C31842468   3.777   0.242   2.626  0.5842  0.5755  0.4330
   76MOL   C31942469   3.895   0.177   2.661 -0.0596  0.5425 -0.1330
   76MOL   C32042470   3.931   0.173   2.798  0.0476 -0.2414  0.3816
   76MOL   C32142471   3.859   0.240   2.899  0.4754  0.1600  0.2961
   76MOL   C32242472   3.916   0.239   3.036  0.6605 -0.2984  0.5189
   76MOL   O32342473   4.030   0.191   3.057 -0.0834 -0.2198 -0.0876
   76MOL   C32442474   3.740   0.314   2.861 -0.2902 -0.1233  0.6140
   76MOL   C32542475   3.704   0.311   2.722  0.1618 -0.6073  0.0608
   76MOL   H32642476   3.142   0.367   2.395  0.8248  2.2164  0.1866
   76MOL   H32742477   3.237   0.444   2.515 -1.5467  0.4769 -0.6254
   76MOL   H32842478   3.290   0.164   2.421  1.1500  0.3760 -1.8506
   76MOL   H32942479   3.386   0.261   2.535  0.9915 -1.5129  0.2860
   76MOL   H33042480   3.367   0.305   2.226 -0.8194 -0.8230  0.4228
   76MOL   H33142481   3.422   0.431   2.332 -0.2135  0.3567 -2.3344
   76MOL   H33242482   3.549   0.168   2.298  3.4657  0.5348  0.0588
   76MOL   H33342483   3.600   0.331   2.254 -1.5242  1.0237 -0.8219
   76MOL   H33442484   3.946   0.116   2.589  3.1723  1.0852  1.6339
   76MOL   H33542485   4.010   0.108   2.834 -1.0570 -0.2886  2.8174
   76MOL   H33642486   3.683   0.379   2.925 -0.2654 -1.7053  2.2727
   76MOL   H33742487   3.623   0.377   2.694  0.3188  0.0170  1.0218
   76MOL   O33842488   3.831   0.285   3.123 -0.5900 -0.4118  0.3744
   76MOL   C33942489   3.890   0.323   3.256 -0.0979  0.8847  0.2496
   76MOL   C34042490   3.774   0.387   3.339  0.0004 -0.1930 -0.2265
   76MOL   C34142491   3.745   0.531   3.308  0.5070 -0.3422 -0.3658
   76MOL   C34242492   3.680   0.552   3.169 -0.1719  0.7253  0.4270
   76MOL   O34342493   3.623   0.686   3.156 -0.1809  0.4636  0.1428
   76MOL   C34442494   3.576   0.726   3.030 -0.4692 -0.3623  0.1801
   76MOL   O34542495   3.593   0.655   2.934 -0.6251  0.4960 -0.4723
   76MOL   C34642496   3.510   0.859   3.036  0.8829  0.1112 -0.1414
   76MOL   C34742497   3.409   0.893   3.134 -0.1260  1.0097 -0.4034
   76MOL   C34842498   3.336   1.014   3.130  0.3542  0.7347  0.2761
   76MOL   C34942499   3.373   1.115   3.030 -0.1435  0.2944 -0.1525
   76MOL   C35042500   3.304   1.244   3.025  0.2861 -0.0997 -0.7520
   76MOL   O35142501   3.254   1.297   3.122  0.4927  0.4267  0.4080
   76MOL   C35242502   3.463   1.075   2.927  0.1398  0.5355 -0.2989
   76MOL   C35342503   3.533   0.949   2.931 -0.2448 -0.0839  0.1152
   76MOL   H35442504   3.919   0.234   3.311  0.1175 -0.8283 -2.5099
   76MOL   H35542505   3.972   0.395   3.264  2.0261 -1.2572 -1.6267
   76MOL   H35642506   3.797   0.373   3.445 -2.6103  2.3943  0.7170
   76MOL   H35742507   3.684   0.329   3.320 -0.9944  0.6875  1.6546
   76MOL   H35842508   3.683   0.573   3.387  0.0024  0.6694 -1.3023
   76MOL   H35942509   3.834   0.594   3.317  0.2516 -0.2058  1.2327
   76MOL   H36042510   3.760   0.529   3.098 -0.4007  1.1919  0.0164
   76MOL   H36142511   3.594   0.486   3.166 -0.2264  0.7393  1.3660
   76MOL   H36242512   3.395   0.824   3.216 -1.1562  0.3400 -1.1293
   76MOL   H36342513   3.264   1.030   3.208 -0.2269 -0.8221  0.0691
   76MOL   H36442514   3.479   1.136   2.839 -3.0793  0.8149 -0.7272
   76MOL   H36542515   3.609   0.934   2.857  1.2605  0.7583  1.4724
   76MOL   O36642516   3.305   1.300   2.903  0.5445 -0.2479  0.4435
   76MOL   C36742517   3.233   1.424   2.882  0.1116  0.3968 -0.0252
   76MOL   C36842518   3.225   1.466   2.733 -0.3026 -0.6222 -0.3106
   76MOL   C36942519   3.159   1.364   2.645  0.3999 -0.5855 -0.2272
   76MOL   C37042520   3.193   1.387   2.489 -0.1955  0.5727 -0.2330
   76MOL   O37142521   3.330   1.343   2.469  0.5952  0.0129  0.7144
   76MOL   C37242522   3.387   1.364   2.352  0.1189  0.1198  0.4188
   76MOL   O37342523   3.333   1.428   2.266 -0.1239  0.3000  0.2091
   76MOL   C37442524   3.523   1.303   2.337 -0.3795  0.1673  0.8451
   76MOL   C37542525   3.600   1.338   2.223  0.0741  0.1504 -0.0004
   76MOL   C37642526   3.721   1.281   2.203  0.5701 -0.0211  0.6049
   76MOL   C37742527   3.784   1.196   2.303 -0.0217  0.5148  0.5426
   76MOL   C37842528   3.915   1.134   2.278  0.1082 -0.2561  0.6218
   76MOL   O37942529   3.991   1.181   2.192  0.4002  0.4259  0.0318
   76MOL   C38042530   3.712   1.171   2.422  0.0427  0.4952 -0.6225
   76MOL   C38142531   3.579   1.227   2.438  0.2371  1.0775  0.9547
   76MOL   H38242532   3.133   1.418   2.926  0.1050  2.2312  0.2677
   76MOL   H38342533   3.271   1.510   2.937  2.5402 -0.9679  0.4998
   76MOL   H38442534   3.327   1.478   2.697 -0.8803 -1.4906 -2.3019
   76MOL   H38542535   3.175   1.562   2.722  1.3246 -0.0408 -3.0851
   76MOL   H38642536   3.175   1.260   2.672  1.4876 -0.3421  0.1073
   76MOL   H38742537   3.053   1.388   2.650  0.6191  0.4519 -0.2638
   76MOL   H38842538   3.121   1.329   2.430  1.6687 -0.2985 -1.7080
   76MOL   H38942539   3.197   1.493   2.465  0.2397  1.3988  3.2688
   76MOL   H39042540   3.576   1.413   2.149 -2.2669 -1.6202 -1.0860
   76MOL   H39142541   3.788   1.307   2.122  0.2360 -2.3282 -0.4542
   76MOL   H39242542   3.749   1.097   2.492 -0.5308  0.2262 -0.6071
   76MOL   H39342543   3.528   1.206   2.531  0.3963  1.4192  1.1195
   76MOL   O39442544   3.930   1.028   2.347 -0.7411  0.8281  0.0151
   76MOL   C39542545   4.039   0.945   2.306 -0.1125 -0.4534 -0.1472
   76MOL   C39642546   4.029   0.875   2.168 -0.1530 -0.5361 -0.0041
   76MOL   C39742547   4.144   0.776   2.139 -0.3098  0.0412 -0.6053
   76MOL   C39842548   4.130   0.717   1.996 -0.4946 -0.1967 -0.1673
   76MOL   O39942549   4.222   0.610   2.002  0.1234  0.4135  0.2986
   76MOL   C40042550   4.254   0.551   1.889 -0.4052 -0.3072 -0.0016
   76MOL   O40142551   4.187   0.556   1.788  0.0480  0.6072 -0.5318
   76MOL   C40242552   4.376   0.469   1.911 -0.7184  0.4306 -0.5202
   76MOL   C40342553   4.468   0.508   2.013  0.0402  0.0375  0.5888
   76MOL   C40442554   4.587   0.426   2.042  0.4869 -0.2748 -0.4268
   76MOL   C40542555   4.604   0.305   1.972  0.2445  0.2708 -0.2174
   76MOL   C40642556   4.721   0.220   1.994 -0.0678 -0.5840 -0.1283
   76MOL   O40742557   4.765   0.144   1.909 -0.1235 -0.1677  0.1216
   76MOL   C40842558   4.509   0.271   1.874  0.5626  0.0546  0.8770
   76MOL   C40942559   4.397   0.344   1.840  0.1319 -0.4351 -0.1751
   76MOL   H41042560   4.135   0.994   2.294 -0.3619  0.3726  1.1040
   76MOL   H41142561   4.044   0.862   2.376  0.5125 -0.9347 -0.7538
   76MOL   H41242562   4.029   0.941   2.081  0.5570 -1.8527 -1.0154
   76MOL   H41342563   3.929   0.833   2.156 -0.3195  0.2161 -1.3872
   76MOL   H41442564   4.240   0.826   2.153 -0.2361  0.2184 -1.7113
   76MOL   H41542565   4.139   0.694   2.210  0.8739  0.3245 -0.1955
   76MOL   H41642566   4.027   0.682   1.995 -0.7770  0.5920  0.5292
   76MOL   H41742567   4.167   0.785   1.919 -1.2565  0.3701 -0.0465
   76MOL   H41842568   4.452   0.598   2.070  1.5132  1.0077 -0.4723
   76MOL   H41942569   4.653   0.444   2.126 -0.2012  1.8660 -0.3113
   76MOL   H42042570   4.531   0.186   1.812  0.5875  1.1503 -0.6522
   76MOL   H42142571   4.325   0.320   1.764 -2.8356  0.3432  2.2580
   76MOL   O42242572   4.770   0.226   2.121  1.0054 -0.1995  0.0707
   76MOL   C42342573   4.878   0.143   2.168 -0.1147 -0.7073 -0.6567
   76MOL   C42442574   4.945   0.195   2.295 -0.0873  0.3651 -0.2061
   76MOL   C42542575   5.051   0.093   2.347  0.2318 -0.2640 -0.5450
   76MOL   C42642576   4.993   8.077   2.429 -0.0747  0.1550  0.1078
   76MOL   O42742577   4.918   7.989   2.348  0.4564 -0.6565 -0.2132
   76MOL   C42842578   4.912   7.860   2.394  0.6157 -0.1740 -0.3498
   76MOL   O42942579   4.940   7.828   2.513 -1.0631  0.0442 -0.2146
   76MOL   C43042580   4.862   7.767   2.296  1.0439  0.1538  0.4322
   76MOL   C43142581   4.806   7.812   2.172  0.4695  0.1595 -0.5087
   76MOL   C43242582   4.766   7.720   2.075  0.3075  0.0075  0.1648
   76MOL   C43342583   4.769   7.577   2.104 -0.0641  0.1687 -0.4664
   76MOL   C43442584   4.737   7.463   2.006  0.4818  0.0846 -0.1440
   76MOL   O43542585   4.779   7.349   2.019 -0.2222 -0.2786 -0.2595
   76MOL   C43642586   4.817   7.536   2.231 -0.4222  0.3739  0.6492
   76MOL   C43742587   4.873   7.627   2.323 -0.4527  0.1100 -0.8119
   76MOL   H43842588   4.845   0.039   2.171 -2.9146  0.1605  1.8981
   76MOL   H43942589   4.957   0.143   2.093  0.6500  0.0025  0.1350
   76MOL   H44042590   4.878   0.210   2.380  0.4497  0.2561  0.2472
   76MOL   H44142591   4.996   0.290   2.279 -0.2217  0.6566  1.0450
   76MOL   H44242592   5.096   0.055   2.255  0.6817  0.4329 -0.6218
   76MOL   H44342593   5.129   0.152   2.395 -0.1283  1.4293 -2.0073
   76MOL   H44442594   5.077   8.034   2.485  1.8195  1.7234 -1.4338
   76MOL   H44542595   4.925   0.024   2.500 -0.6160 -0.5401  0.0390
   76MOL   H44642596   4.808   7.914   2.135  0.6874  0.6642  0.8731
   76MOL   H44742597   4.728   7.754   1.980  0.5766  3.0482  1.0924
   76MOL   H44842598   4.823   7.432   2.260 -1.9830  0.1127  0.1043
   76MOL   H44942599   4.926   7.599   2.413  0.0656 -0.3770 -1.2756
   76MOL   O45042600   4.647   7.500   1.913 -0.1487  0.0920 -0.4933
   76MOL   C45142601   4.599   7.411   1.812 -0.1933  0.3147 -0.3827
   76MOL   C45242602   4.500   7.485   1.722 -0.0667  0.0064  0.4115
   76MOL   C45342603   4.578   7.561   1.614  0.2345 -0.7845  0.0920
   76MOL   C45442604   4.490   7.641   1.511  0.6279 -0.2537 -0.3449
   76MOL   O45542605   4.582   7.695   1.417  0.2345  0.2861  0.5218
   76MOL   C45642606   4.549   7.721   1.291 -0.2439 -0.2870  0.2786
   76MOL   O45742607   4.445   7.679   1.236  0.0391  0.0463 -0.6332
   76MOL   C45842608   4.635   7.820   1.232 -0.2099  0.2227  0.5577
   76MOL   C45942609   4.591   7.900   1.123 -0.2420  0.3143 -0.4867
   76MOL   C46042610   4.671   7.993   1.059 -1.0983 -0.1863 -0.6850
   76MOL   C46142611   4.797   8.020   1.108  0.7873 -0.2345 -0.0200
   76MOL   C46242612   4.886   0.023   1.050  0.6045  0.9398  0.1716
   76MOL   O46342613   4.997   0.044   1.092 -0.2713  0.2600 -0.0072
   76MOL   C46442614   4.844   7.942   1.211  0.6499 -0.1503  0.3746
   76MOL   C46542615   4.770   7.835   1.272  0.1653 -0.1198 -0.4308
   76MOL   H46642616   4.680   7.365   1.755 -1.4199 -0.6562 -1.3835
   76MOL   H46742617   4.549   7.328   1.862  0.5337 -0.6886 -1.2872
   76MOL   H46842618   4.443   7.557   1.781 -3.8951 -0.1899 -2.9039
   76MOL   H46942619   4.422   7.424   1.677 -0.9508 -0.3234  2.3366
   76MOL   H47042620   4.648   7.631   1.659  1.2258 -1.6032 -0.1528
   76MOL   H47142621   4.634   7.485   1.558  1.6803 -0.0596  0.5336
   76MOL   H47242622   4.420   7.574   1.461  0.6391  0.4526 -1.3217
   76MOL   H47342623   4.418   7.706   1.558 -0.1836  0.0869 -2.0235
   76MOL   H47442624   4.489   7.885   1.091 -0.8667  0.9364  1.1888
   76MOL   H47542625   4.629   8.052   0.978 -1.8797  0.7766  0.4149
   76MOL   H47642626   4.942   7.956   1.255  0.3837 -1.1698  1.3238
   76MOL   H47742627   4.809   7.778   1.356  1.7860 -0.0183 -1.0850
   76MOL   O47842628   4.825   0.093   0.954 -0.3899  0.5368  0.7792
   76MOL   C47942629   4.889   0.192   0.886 -0.4173 -0.0625  0.5750
   76MOL   C48042630   4.791   0.259   0.788  0.4248  0.2611 -0.2610
   76MOL   C48142631   4.757   0.179   0.663  0.0150 -0.7779 -0.3395
   76MOL   C48242632   4.655   0.069   0.699  0.1984  0.5621  0.0337
   76MOL   O48342633   4.569   0.049   0.586  0.5658 -0.2462 -0.8642
   76MOL   C48442634   4.474   8.053   0.590  0.0050  0.1275  0.0480
   76MOL   O48542635   4.467   7.967   0.680  0.4273  0.1056  0.1208
   76MOL   C48642636   4.378   8.066   0.480 -0.4617 -0.0740 -0.7889
   76MOL   C48742637   4.381   0.068   0.388 -0.3398 -0.3862  1.2415
   76MOL   C48842638   4.277   0.085   0.290 -0.5553  0.4926  0.3220
   76MOL   C48942639   4.176   8.085   0.269 -0.5787  0.1614  0.2744
   76MOL   C49042640   4.082   0.002   0.155  0.2213  0.3436  0.2840
   76MOL   O49142641   4.100   0.086   0.066 -0.2255 -0.0955  0.5010
   76MOL   C49242642   4.177   7.977   0.364  0.1037 -0.2976  0.4841
   76MOL   C49342643   4.272   7.968   0.470  0.2123 -0.0789 -0.6543
   76MOL   H49442644   4.910   0.277   0.951 -1.9763  0.2838  0.6635
   76MOL   H49542645   4.973   0.165   0.822 -1.2769  0.0495 -0.6186
   76MOL   H49642646   4.834   0.352   0.752  1.9954 -0.0467  0.7851
   76MOL   H49742647   4.708   0.290   0.851  0.2417 -0.9668  0.1189
   76MOL   H49842648   4.712   0.245   0.589 -3.2042  0.4240  2.5415
   76MOL   H49942649   4.844   0.134   0.616  0.6789 -1.5425  1.5600
   76MOL   H50042650   4.713   8.077   0.715 -0.7483  0.4348  3.1006
   76MOL   H50142651   4.588   0.080   0.785 -0.9016  0.3836 -0.7990
   76MOL   H50242652   4.460   0.141   0.398  0.6920 -1.1303 -1.0109
   76MOL   H50342653   4.274   0.168   0.222  0.7635  0.3522  0.0789
   76MOL   H50442654   4.090   7.914   0.364  0.8432 -1.4172 -2.2250
   76MOL   H50542655   4.271   7.900   0.553  1.9870  0.5058 -0.1444
   76MOL   O50642656   3.968   8.027   0.161  0.5102  0.3150  0.4688
   76MOL   C50742657   3.873   8.048   0.058 -0.1520 -0.0813 -0.0938
   76MOL   C50842658   3.732   7.991   0.091  0.2555 -0.3250 -0.2545
   76MOL   C50942659   3.655   8.013   0.217  0.1993  0.4358 -0.2951
   76MOL   C51042660   3.615   0.059   0.244  0.4041  0.0382 -0.2929
   76MOL   O51142661   3.737   0.122   0.291 -0.1622  0.1834 -0.0062
   76MOL   C51242662   3.754   0.134   0.428 -0.0153  0.1101  0.1998
   76MOL   O51342663   3.676   0.086   0.513 -0.1585  0.5637 -0.5230
   76MOL   C51442664   3.885   0.193   0.464  0.3864 -0.4150 -0.0220
   76MOL   C51542665   3.941   0.297   0.388  0.6181  0.5054 -0.8417
   76MOL   C51642666   4.059   0.361   0.424 -0.5020 -0.4117 -0.2817
   76MOL   C51742667   4.127   0.307   0.537 -0.4227  0.8650 -0.1956
   76MOL   C51842668   4.261   0.362   0.587  0.4800 -0.0969 -0.2769
   76MOL   O51942669   4.295   0.333   0.696  0.1453  0.3128  0.7288
   76MOL   C52042670   4.081   0.201   0.614  0.7008 -0.5441 -0.1939
   76MOL   C52142671   3.959   0.142   0.572  0.1426 -0.3176 -0.3830
   76MOL   H52242672   3.867   0.057   0.038  1.9839  0.0055 -0.4575
   76MOL   H52342673   3.915   8.017   8.061  1.1584  2.8096 -0.5016
   76MOL   H52442674   3.735   7.882   0.089 -1.0433 -0.4136  1.4899
   76MOL   H52542675   3.674   8.005   8.098 -0.1139 -1.8426 -0.2686
   76MOL   H52642676   3.560   7.960   0.213  1.0642 -1.3124  1.2313
   76MOL   H52742677   3.698   7.963   0.304  1.5005 -1.1832 -1.8276
   76MOL   H52842678   3.586   0.114   0.155 -2.6786  1.8771  1.7590
   76MOL   H52942679   3.539   0.063   0.322 -0.0339 -1.3532 -0.6473
   76MOL   H53042680   3.880   0.340   0.310 -0.0588 -1.6297 -1.5209
   76MOL   H53142681   4.093   0.448   0.371  1.0091  0.4566  2.0184
   76MOL   H53242682   4.133   0.149   0.693  1.4591 -1.9851 -1.5990
   76MOL   H53342683   3.928   0.049   0.619 -0.9242 -0.5595 -1.5213
   76MOL   O53442684   4.325   0.435   0.491  0.3017 -0.0908 -0.4645
   76MOL   C53542685   4.448   0.508   0.527  0.1889 -0.0807  0.2099
   76MOL   C53642686   4.522   0.563   0.405 -0.1200  0.3708 -0.0609
   76MOL   C53742687   4.676   0.541   0.413  0.7621  0.0262  0.2941
   76MOL   C53842688   4.756   0.560   0.287 -0.0634 -0.8042  0.6151
   76MOL   O53942689   4.775   0.694   0.253  0.4077 -0.3775  0.0160
   76MOL   C54042690   4.885   0.740   0.188 -0.1377  0.6279  0.3298
   76MOL   O54142691   4.972   0.666   0.144 -0.4739  0.5356  0.2154
   76MOL   C54242692   4.881   0.890   0.164  0.3403 -0.0665  1.0216
   76MOL   C54342693   4.937   0.931   0.042 -0.2855 -0.5220  0.3672
   76MOL   C54442694   4.947   1.069   0.018  0.3254 -0.2582 -0.2135
   76MOL   C54542695   4.895   1.169   0.102  0.3818  0.1984  0.1045
   76MOL   C54642696   4.906   1.314   0.074 -0.2906 -0.0308  0.1759
   76MOL   O54742697   4.865   1.409   0.149 -0.2609  0.0887  0.0345
   76MOL   C54842698   4.838   1.122   0.228 -0.0054 -0.1204  0.3809
   76MOL   C54942699   4.833   0.981   0.260  0.5646  0.3672  0.3021
   76MOL   H55042700   4.421   0.589   0.595  1.0441 -1.1926  1.9078
   76MOL   H55142701   4.515   0.435   0.572  2.1218  0.0270 -2.4268
   76MOL   H55242702   4.507   0.671   0.394 -0.0317  0.3370 -0.5313
   76MOL   H55342703   4.497   0.510   0.314 -0.5581  0.2968  0.1024
   76MOL   H55442704   4.719   0.611   0.485  2.1142 -0.5823  0.0998
   76MOL   H55542705   4.701   0.439   0.442  3.7599  1.0806  1.6451
   76MOL   H55642706   4.852   0.514   0.311 -0.5696 -1.0058  2.3524
   76MOL   H55742707   4.723   0.515   0.194  1.0748 -0.4325  0.0208
   76MOL   H55842708   4.989   0.857   8.082  0.6186 -0.5094  1.1372
   76MOL   H55942709   5.003   1.109   8.033  0.0702 -0.4294 -0.4717
   76MOL   H56042710   4.810   1.200   0.298 -0.9949  0.4572 -0.6353
   76MOL   H56142711   4.793   0.946   0.354  0.6615  0.4222  0.3640
   76MOL   H56242712   4.957   1.334   8.079 -1.5708 -2.1692 -1.0123
   77MOL     O142713   1.487   6.004   7.397 -0.2253 -0.1309  0.5515
   77MOL     C242714   1.458   5.867   7.383 -0.4028  1.0987  0.1994
   77MOL     C342715   1.496   5.823   7.235  0.7348  0.6061  0.0076
   77MOL     C442716   1.646   5.832   7.202  0.5791 -0.6632  0.1140
   77MOL     C542717   1.730   5.779   7.321  0.1330  0.8966  0.4016
   77MOL     O642718   1.677   5.656   7.360  0.3847  0.2230 -0.1536
   77MOL     C742719   1.745   5.563   7.411 -0.2882  0.3698  0.0560
   77MOL     O842720   1.867   5.564   7.445 -0.7353 -0.6089  0.0259
   77MOL     C942721   1.683   5.427   7.423  0.0212  0.1750 -0.0606
   77MOL    C1042722   1.739   5.330   7.510 -0.1537  0.0536 -0.6565
   77MOL    C1142723   1.689   5.196   7.512 -0.1006 -0.5592 -0.3849
   77MOL    C1242724   1.577   5.164   7.433 -0.1547 -0.6179 -0.9009
   77MOL    C1342725   1.531   5.021   7.417  0.3410  0.2302  0.2118
   77MOL    O1442726   1.605   4.929   7.435  0.3790  0.6824  0.8104
   77MOL    C1542727   1.508   5.267   7.360  0.0450 -0.1516 -0.1353
   77MOL    C1642728   1.558   5.398   7.357 -0.5704 -0.7413 -0.3748
   77MOL    H1742729   1.513   5.807   7.455 -0.7507  1.6871  0.9619
   77MOL    H1842730   1.354   5.845   7.408 -0.7047 -1.2939 -2.8005
   77MOL    H1942731   1.449   5.892   7.165 -1.6303 -2.1665 -1.2062
   77MOL    H2042732   1.453   5.726   7.209 -4.0764  2.7358 -0.5317
   77MOL    H2142733   1.670   5.766   7.119  2.4469 -0.8844  0.8240
   77MOL    H2242734   1.690   5.925   7.167  1.8852 -2.2759 -2.6599
   77MOL    H2342735   1.831   5.784   7.281  0.6400  3.6508  1.8864
   77MOL    H2442736   1.728   5.834   7.415  0.3368 -0.2987  1.1262
   77MOL    H2542737   1.820   5.353   7.578  0.1648  0.6843 -1.2471
   77MOL    H2642738   1.731   5.127   7.583 -2.9087  1.5995  3.5846
   77MOL    H2742739   1.422   5.258   7.296 -0.9466  3.0098  0.6796
   77MOL    H2842740   1.513   5.477   7.300  1.2190  1.6835  1.4313
   77MOL    H2942741   1.409   6.048   7.365 -0.6491 -1.3798 -0.1882
   77MOL    O3042742   1.403   5.005   7.376  0.4034  0.0380 -0.1022
   77MOL    C3142743   1.346   4.874   7.362  0.4992  0.2860 -0.1571
   77MOL    C3242744   1.204   4.881   7.303 -0.0662  0.5164 -0.4011
   77MOL    C3342745   1.182   4.925   7.160 -0.2060 -0.2762 -0.2711
   77MOL    C3442746   1.196   5.076   7.149  0.2697 -0.4834 -0.0710
   77MOL    O3542747   1.185   5.108   7.012 -0.3331 -0.3488  0.5230
   77MOL    C3642748   1.154   5.236   6.985  0.6629  0.4844  0.0009
   77MOL    O3742749   1.164   5.320   7.074 -0.1507  0.3586 -0.7069
   77MOL    C3842750   1.118   5.262   6.839 -0.2457 -0.4124 -0.2993
   77MOL    C3942751   1.055   5.386   6.804  0.2365  0.2366 -0.4458
   77MOL    C4042752   1.017   5.416   6.671 -0.1459  0.7830 -0.5356
   77MOL    C4142753   1.041   5.313   6.567  0.0155 -0.9843  0.1354
   77MOL    C4242754   1.029   5.361   6.426  0.0948 -0.5516  0.0002
   77MOL    O4342755   0.973   5.468   6.392 -0.7021 -0.2222 -0.3342
   77MOL    C4442756   1.098   5.191   6.608  1.2307  0.8041 -0.2794
   77MOL    C4542757   1.139   5.172   6.739  0.4016  0.2322 -0.4008
   77MOL    H4642758   1.418   4.802   7.323  0.6005  0.6506 -0.6542
   77MOL    H4742759   1.323   4.845   7.464  0.8964 -2.3353 -0.7980
   77MOL    H4842760   1.159   4.939   7.384 -0.3600  0.0194 -0.2050
   77MOL    H4942761   1.162   4.780   7.304  2.0469 -0.4100 -2.3446
   77MOL    H5042762   1.232   4.864   7.084 -0.2627 -0.6013 -0.0494
   77MOL    H5142763   1.078   4.899   7.139  0.6563 -1.5985 -3.1982
   77MOL    H5242764   1.124   5.133   7.208  0.6044  1.0120 -1.0708
   77MOL    H5342765   1.293   5.115   7.179 -1.2800  2.8692  0.8245
   77MOL    H5442766   1.051   5.459   6.883  1.4990  1.1471 -1.2159
   77MOL    H5542767   0.977   5.515   6.659 -0.6338  0.5971 -0.4526
   77MOL    H5642768   1.116   5.113   6.535 -0.9711 -1.0615  1.1009
   77MOL    H5742769   1.183   5.077   6.768 -0.8003 -0.2762 -0.2074
   77MOL    O5842770   1.088   5.273   6.345 -0.1186 -0.2341 -0.7200
   77MOL    C5942771   1.086   5.299   6.201 -0.4186  0.0270 -0.5055
   77MOL    C6042772   1.186   5.212   6.126  0.5952 -0.4426  0.2326
   77MOL    C6142773   1.166   5.063   6.150 -0.6345 -0.2682 -0.4561
   77MOL    C6242774   1.214   4.973   6.036 -0.4700  0.4347  0.2324
   77MOL    O6342775   1.262   4.848   6.088 -0.2306  0.1272  0.3991
   77MOL    C6442776   1.181   4.740   6.101  0.9617  0.2235 -0.4517
   77MOL    O6542777   1.059   4.739   6.079 -0.3121 -0.3677 -0.4309
   77MOL    C6642778   1.260   4.619   6.137  0.0234  0.3240  0.1812
   77MOL    C6742779   1.210   4.489   6.103  0.0796 -1.3662 -0.1956
   77MOL    C6842780   1.298   4.381   6.120  0.0827 -0.0662  0.1404
   77MOL    C6942781   1.426   4.389   6.176  0.3971  0.1935 -0.4983
   77MOL    C7042782   1.507   4.265   6.181 -0.3254 -0.0272 -0.1396
   77MOL    O7142783   1.465   4.153   6.149 -0.2986  0.2677 -1.4492
   77MOL    C7242784   1.468   4.522   6.206 -0.7916 -0.6728  0.1415
   77MOL    C7342785   1.393   4.633   6.196  1.0806 -0.3414 -0.3846
   77MOL    H7442786   0.987   5.272   6.165 -0.5604 -1.8198  1.2353
   77MOL    H7542787   1.114   5.404   6.191  1.1352 -0.5100 -2.0801
   77MOL    H7642788   1.291   5.240   6.136  0.5435 -0.7598  1.8215
   77MOL    H7742789   1.171   5.224   6.019  0.8285  0.3562  0.2824
   77MOL    H7842790   1.204   5.038   6.249  0.1150 -0.5848 -0.8219
   77MOL    H7942791   1.057   5.053   6.156 -1.1687  3.4081 -2.4264
   77MOL    H8042792   1.146   4.971   5.951 -1.1846  0.0412  0.8106
   77MOL    H8142793   1.298   5.013   5.980 -1.4588  1.0317 -0.8382
   77MOL    H8242794   1.118   4.469   6.050  1.1301  0.1029 -2.6371
   77MOL    H8342795   1.280   4.287   6.069  1.8051 -0.1393 -0.3449
   77MOL    H8442796   1.571   4.533   6.237 -0.2014  1.4745 -2.4489
   77MOL    H8542797   1.436   4.730   6.215  0.1325 -0.0511  0.2977
   77MOL    O8642798   1.627   4.281   6.231  0.4946  0.5856  0.0584
   77MOL    C8742799   1.723   4.180   6.234 -0.5601  0.0164  0.1289
   77MOL    C8842800   1.743   4.127   6.377 -0.2809  0.1462 -0.2914
   77MOL    C8942801   1.632   4.033   6.415  0.1689  0.5257  0.6155
   77MOL    C9042802   1.634   3.976   6.551 -0.0701 -0.3248 -0.3673
   77MOL    O9142803   1.519   3.899   6.581 -0.1159 -0.4609  0.5706
   77MOL    C9242804   1.506   3.771   6.549 -0.5461 -0.5045  0.2415
   77MOL    O9342805   1.586   3.701   6.485  0.3248 -0.0321  0.8859
   77MOL    C9442806   1.375   3.720   6.599 -0.1326 -0.5866  0.1604
   77MOL    C9542807   1.337   3.587   6.572  0.7368 -0.0965  0.1821
   77MOL    C9642808   1.217   3.524   6.621  0.0764 -0.1055 -0.1098
   77MOL    C9742809   1.122   3.607   6.687  0.6859 -0.1578 -0.7119
   77MOL    C9842810   0.987   3.558   6.738  0.6107  0.7119  0.6240
   77MOL    O9942811   0.904   3.632   6.797 -0.1862  0.0543  0.1196
   77MOL   C10042812   1.155   3.744   6.706  0.1374  0.1560  0.3667
   77MOL   C10142813   1.280   3.800   6.663  0.4015  0.1259 -0.1051
   77MOL   H10242814   1.705   4.101   6.162 -0.9604  0.6720 -0.4899
   77MOL   H10342815   1.816   4.233   6.214 -1.7491  2.5337  1.0177
   77MOL   H10442816   1.744   4.203   6.455 -0.6412 -1.3129  1.1517
   77MOL   H10542817   1.842   4.084   6.394 -1.0748 -1.6765 -0.2389
   77MOL   H10642818   1.542   4.094   6.412 -1.7356 -2.2424 -0.4762
   77MOL   H10742819   1.616   3.952   6.344  1.4201  1.1650 -0.4154
   77MOL   H10842820   1.718   3.908   6.566 -0.6226 -0.4260  2.3864
   77MOL   H10942821   1.638   4.045   6.635 -5.1660 -0.1039 -0.1434
   77MOL   H11042822   1.404   3.516   6.525  1.3457 -0.0112  0.9034
   77MOL   H11142823   1.188   3.425   6.590  0.0050  0.7726 -3.0040
   77MOL   H11242824   1.079   3.798   6.760 -0.2779  0.2837 -0.3386
   77MOL   H11342825   1.290   3.904   6.688  0.3378  0.1960 -0.3698
   77MOL   O11442826   0.964   3.429   6.703 -0.1830 -0.2645  0.3755
   77MOL   C11542827   0.837   3.377   6.730  0.5353  0.2146  0.0033
   77MOL   C11642828   0.850   3.309   6.871 -0.0659 -0.3044 -0.1803
   77MOL   C11742829   0.717   3.252   6.931  0.4859  0.0735  0.2365
   77MOL   C11842830   0.728   3.140   7.027  0.0508 -0.5233 -0.7594
   77MOL   O11942831   0.790   3.022   6.966 -0.3022  0.3531  0.0071
   77MOL   C12042832   0.734   2.945   6.872  0.2534  0.6697  1.1249
   77MOL   O12142833   0.620   2.955   6.832  0.6806  0.3025  0.4609
   77MOL   C12242834   0.835   2.852   6.812  0.4761 -0.5417 -0.4236
   77MOL   C12342835   0.812   2.833   6.672  0.5715 -0.3850  0.0872
   77MOL   C12442836   0.898   2.757   6.597  0.2203 -0.0333 -0.1195
   77MOL   C12542837   1.008   2.700   6.656 -0.6178  0.4433 -0.7669
   77MOL   C12642838   1.116   2.639   6.572 -0.1009  0.6253  0.2612
   77MOL   O12742839   1.202   2.566   6.622 -0.0938  0.0743 -0.1820
   77MOL   C12842840   1.020   2.707   6.796  0.0445 -0.2655  0.1235
   77MOL   C12942841   0.935   2.785   6.874 -0.0691 -1.0797 -0.7563
   77MOL   H13042842   0.757   3.451   6.735  0.1876 -0.3115  2.6916
   77MOL   H13142843   0.806   3.309   6.650  4.1228  0.6559 -1.8603
   77MOL   H13242844   0.898   3.384   6.934  0.0097 -0.9725  0.5687
   77MOL   H13342845   0.914   3.221   6.869 -0.8543 -0.9142  0.4608
   77MOL   H13442846   0.663   3.334   6.978  0.4765  1.2654 -1.8221
   77MOL   H13542847   0.657   3.226   6.844  1.6070  1.2118 -0.8900
   77MOL   H13642848   0.801   3.167   7.104 -0.7608 -1.0317  0.2014
   77MOL   H13742849   0.633   3.104   7.067  0.4437 -1.7214 -0.8877
   77MOL   H13842850   0.739   2.891   6.617  1.3943 -0.3823 -1.0355
   77MOL   H13942851   0.882   2.754   6.490  0.6704  0.0521 -0.1897
   77MOL   H14042852   1.103   2.659   6.844 -0.2017  0.1992  1.0312
   77MOL   H14142853   0.949   2.791   6.981 -1.7622 -1.7500 -0.4711
   77MOL   O14242854   1.114   2.670   6.443 -0.8957  0.7351  0.7239
   77MOL   C14342855   1.206   2.622   6.336  0.0042  0.3065  0.6767
   77MOL   C14442856   1.125   2.544   6.230 -0.6155  0.1793  0.8751
   77MOL   C14542857   0.998   2.615   6.191  0.9667  0.6469  0.2263
   77MOL   C14642858   0.907   2.550   6.087  0.1552 -0.1837 -0.4176
   77MOL   O14742859   0.901   2.419   6.122 -0.2475 -0.4426  0.3305
   77MOL   C14842860   0.853   2.329   6.034  0.0687  0.1926  1.0651
   77MOL   O14942861   0.841   2.348   5.912 -0.4287  0.0597  0.2047
   77MOL   C15042862   0.824   2.198   6.100 -0.0934 -0.2137  0.0629
   77MOL   C15142863   0.810   2.080   6.019  0.0304  0.1708  0.0479
   77MOL   C15242864   0.782   1.955   6.084 -0.0237  0.0928 -0.2212
   77MOL   C15342865   0.759   1.951   6.222  0.4908 -0.0571  0.3921
   77MOL   C15442866   0.737   1.817   6.284 -0.0552  0.1790 -0.5147
   77MOL   O15542867   0.700   1.794   6.398  0.2595  0.2926  0.1443
   77MOL   C15642868   0.778   2.067   6.302  0.5584 -0.1306 -0.3386
   77MOL   C15742869   0.810   2.190   6.247  0.3925 -0.2991 -0.1946
   77MOL   H15842870   1.239   2.715   6.289 -0.7559 -0.2165 -0.9047
   77MOL   H15942871   1.292   2.576   6.384 -0.7747  0.6181  2.4216
   77MOL   H16042872   1.103   2.447   6.274 -0.6809 -0.7323 -1.0776
   77MOL   H16142873   1.186   2.518   6.143 -0.4106  0.7386  0.8538
   77MOL   H16242874   0.931   2.631   6.275  1.1340 -0.6693  0.6254
   77MOL   H16342875   1.021   2.717   6.160 -0.3511  0.1272 -2.5615
   77MOL   H16442876   0.806   2.591   6.081 -0.0556 -0.3717  1.6158
   77MOL   H16542877   0.956   2.566   5.991  1.2306 -0.7038  0.0319
   77MOL   H16642878   0.826   2.099   5.913 -1.9535 -1.1420 -0.5069
   77MOL   H16742879   0.776   1.868   6.020 -0.7804 -0.0932  0.1034
   77MOL   H16842880   0.779   2.056   6.409  1.0367  0.0853 -0.3199
   77MOL   H16942881   0.822   2.279   6.306 -0.3200 -1.7287  2.1767
   77MOL   O17042882   0.779   1.723   6.205 -0.0216 -0.0547 -0.4331
   77MOL   C17142883   0.796   1.588   6.266 -0.2320  0.3750  0.5861
   77MOL   C17242884   0.848   1.499   6.155  0.5148 -0.2316  0.5222
   77MOL   C17342885   0.980   1.544   6.098  0.5755  0.4905 -0.2354
   77MOL   C17442886   0.973   1.613   5.966  0.1628 -0.1250  0.1277
   77MOL   O17542887   1.096   1.651   5.928  0.1418  0.0872  0.2122
   77MOL   C17642888   1.176   1.577   5.852  0.1161  0.2838 -0.1095
   77MOL   O17742889   1.151   1.470   5.804 -0.2232  0.5252  0.0764
   77MOL   C17842890   1.310   1.641   5.829  0.5361  0.8101 -0.0471
   77MOL   C17942891   1.341   1.763   5.891  0.6139  0.0850 -0.4679
   77MOL   C18042892   1.465   1.835   5.877  0.8021  0.6115 -0.1735
   77MOL   C18142893   1.554   1.777   5.778 -0.3186  0.4940 -0.1885
   77MOL   C18242894   1.675   1.858   5.740  0.2600 -0.0408 -0.5856
   77MOL   O18342895   1.686   1.971   5.777  0.0345  0.1321 -0.1717
   77MOL   C18442896   1.527   1.651   5.718 -0.5321 -0.1629  0.0989
   77MOL   C18542897   1.401   1.587   5.735  0.8731 -1.0625 -0.0414
   77MOL   H18642898   0.869   1.606   6.345 -1.9908  2.2224  1.8336
   77MOL   H18742899   0.696   1.562   6.301  0.2180 -0.1202  1.5198
   77MOL   H18842900   0.772   1.491   6.077  1.6930 -0.6060 -0.6255
   77MOL   H18942901   0.865   1.398   6.191 -0.5968 -0.4108  0.5653
   77MOL   H19042902   1.039   1.592   6.176  0.6822 -1.1559  0.7183
   77MOL   H19142903   1.023   1.444   6.089 -0.2745  0.1928 -1.1775
   77MOL   H19242904   0.920   1.552   5.893  0.8462 -0.1904 -0.3254
   77MOL   H19342905   0.919   1.707   5.968 -0.8537 -0.6924 -0.1744
   77MOL   H19442906   1.275   1.821   5.954  2.1261  0.7864  0.5066
   77MOL   H19542907   1.483   1.928   5.930  1.8519 -0.8882  2.1868
   77MOL   H19642908   1.604   1.618   5.651  0.0286 -0.8595  1.0797
   77MOL   H19742909   1.384   1.501   5.672 -1.2596  0.4832 -1.6350
   77MOL   O19842910   1.765   1.792   5.659 -0.2034 -0.1132 -0.6001
   77MOL   C19942911   1.886   1.851   5.621  0.4047  0.2527  0.1782
   77MOL   C20042912   1.968   1.752   5.535  0.5458  0.1869 -0.0820
   77MOL   C20142913   1.920   1.722   5.391  0.0752 -0.3165  0.4429
   77MOL   C20242914   2.019   1.640   5.309  1.3296  0.4005  0.4577
   77MOL   O20342915   1.944   1.601   5.190 -0.2113  0.0076  0.5435
   77MOL   C20442916   2.013   1.550   5.092  0.1411 -0.8885  0.0749
   77MOL   O20542917   2.128   1.511   5.105  0.1061 -0.6539 -0.2647
   77MOL   C20642918   1.937   1.537   4.966  0.0719  0.2998  0.1516
   77MOL   C20742919   2.008   1.528   4.843 -0.2547  0.7440  0.3510
   77MOL   C20842920   1.947   1.520   4.722  0.8878  0.5145  0.1322
   77MOL   C20942921   1.805   1.509   4.721 -0.1856  0.0588  0.9305
   77MOL   C21042922   1.740   1.505   4.590  0.8152 -0.2001 -0.7508
   77MOL   O21142923   1.808   1.502   4.490 -0.9393  0.0607  0.5350
   77MOL   C21242924   1.728   1.515   4.841 -0.0308 -0.1378  0.6659
   77MOL   C21342925   1.796   1.527   4.964 -0.2054 -0.8761  0.0047
   77MOL   H21442926   1.882   1.943   5.563  1.7399 -1.6590 -3.0352
   77MOL   H21542927   1.943   1.879   5.710  0.6436  0.0066  0.1003
   77MOL   H21642928   1.989   1.656   5.581 -0.5128 -0.7184 -1.4410
   77MOL   H21742929   2.067   1.792   5.512  0.8252 -1.0855 -1.2291
   77MOL   H21842930   1.824   1.676   5.414 -0.7729  0.9405 -0.4960
   77MOL   H21942931   1.895   1.812   5.334 -3.0294  0.6129  3.1344
   77MOL   H22042932   2.103   1.702   5.276 -0.6425  1.6794 -2.3920
   77MOL   H22142933   2.047   1.551   5.366 -0.4641  0.7738  1.9587
   77MOL   H22242934   2.115   1.539   4.848  0.1931 -3.1677  1.0278
   77MOL   H22342935   2.004   1.509   4.631 -0.6993 -1.0834 -0.7249
   77MOL   H22442936   1.620   1.517   4.845 -0.0398 -0.5921  0.7257
   77MOL   H22542937   1.738   1.534   5.055 -2.7604 -1.9703 -1.4943
   77MOL   O22642938   1.600   1.503   4.586  0.3330 -0.3306  0.0274
   77MOL   C22742939   1.533   1.493   4.458 -0.2697  0.4424 -0.0659
   77MOL   C22842940   1.423   1.604   4.444 -0.4072 -0.7821 -0.1265
   77MOL   C22942941   1.302   1.590   4.537  0.6408 -0.0849 -0.1654
   77MOL   C23042942   1.204   1.715   4.527 -0.0628  0.2014  0.2564
   77MOL   O23142943   1.111   1.716   4.639 -0.9175  0.6075 -0.2250
   77MOL   C23242944   0.990   1.758   4.629 -0.1088  0.0949  0.6213
   77MOL   O23342945   0.934   1.795   4.520 -0.1925  0.1585  0.0809
   77MOL   C23442946   0.910   1.760   4.757  0.9489  0.5031 -0.1303
   77MOL   C23542947   0.792   1.840   4.762 -0.6602 -0.2307 -0.4634
   77MOL   C23642948   0.711   1.837   4.879  0.1947 -0.4340 -0.4533
   77MOL   C23742949   0.762   1.771   4.994  0.2612 -0.4494  0.2470
   77MOL   C23842950   0.699   1.781   5.128  0.7622 -0.1032 -0.1916
   77MOL   O23942951   0.735   1.716   5.224  0.7836  0.0184  0.0184
   77MOL   C24042952   0.881   1.688   4.982  0.3765 -0.3623 -1.3909
   77MOL   C24142953   0.953   1.697   4.868 -0.3310  0.7107 -0.4615
   77MOL   H24242954   1.602   1.519   4.378  0.2345 -0.7422 -0.0233
   77MOL   H24342955   1.499   1.390   4.446 -0.0384  0.2437  0.9252
   77MOL   H24442956   1.385   1.595   4.342  0.5609  0.1088 -0.5705
   77MOL   H24542957   1.462   1.705   4.454 -1.7746 -0.2900  0.3551
   77MOL   H24642958   1.247   1.499   4.515 -0.3895  0.6717 -0.7666
   77MOL   H24742959   1.344   1.589   4.638  1.2325 -1.1588 -0.4185
   77MOL   H24842960   1.260   1.809   4.531 -0.0054  0.0833  3.5193
   77MOL   H24942961   1.158   1.709   4.428 -0.8451  1.8484  0.4875
   77MOL   H25042962   0.766   1.899   4.675  0.6590 -0.2433 -0.8791
   77MOL   H25142963   0.618   1.891   4.870 -0.2910 -1.2130 -0.1458
   77MOL   H25242964   0.927   1.645   5.070 -0.6519  0.0758 -0.6348
   77MOL   H25342965   1.037   1.628   4.865 -0.2154  0.8746 -1.0631
   77MOL   O25442966   0.597   1.878   5.141 -0.0700  0.3983  0.5490
   77MOL   C25542967   0.508   1.878   5.249  0.3704 -0.2047 -0.9453
   77MOL   C25642968   0.413   1.992   5.229  0.5411  0.0074 -0.1764
   77MOL   C25742969   0.332   2.003   5.094 -0.3495  0.1821 -1.0421
   77MOL   C25842970   0.214   1.902   5.083  0.7997  0.4918 -0.9526
   77MOL   O25942971   0.244   1.771   5.131  0.1046  1.0232 -0.4157
   77MOL   C26042972   0.308   1.685   5.055 -0.1618  0.8748  0.8828
   77MOL   O26142973   0.335   1.707   4.937 -0.4968  0.0203 -0.4196
   77MOL   C26242974   0.352   1.565   5.137 -0.0623  0.3484 -0.2604
   77MOL   C26342975   0.482   1.515   5.114 -1.3060 -0.4157 -0.1479
   77MOL   C26442976   0.531   1.409   5.201  0.2387  0.1394 -0.1331
   77MOL   C26542977   0.456   1.371   5.316 -0.4157  0.2253  0.1862
   77MOL   C26642978   0.506   1.264   5.407 -0.7728  0.0836  0.6725
   77MOL   O26742979   0.614   1.201   5.397  0.5261 -1.0080 -0.0743
   77MOL   C26842980   0.318   1.427   5.337  0.1072 -0.0992  0.3669
   77MOL   C26942981   0.263   1.512   5.240  0.4366  0.3528 -0.3901
   77MOL   H27042982   0.451   1.787   5.268  0.2322  0.1499  0.4067
   77MOL   H27142983   0.571   1.890   5.338 -2.2594  1.0349  0.8117
   77MOL   H27242984   0.475   2.081   5.236  0.9933 -0.3439  0.3989
   77MOL   H27342985   0.341   1.996   5.311 -0.1504 -2.0126 -0.6731
   77MOL   H27442986   0.298   2.105   5.077  1.2552  0.6776 -1.3886
   77MOL   H27542987   0.403   1.979   5.015  0.4674 -0.0869 -0.2437
   77MOL   H27642988   0.136   1.930   5.154  0.4818  0.0987 -1.1477
   77MOL   H27742989   0.177   1.888   4.982 -1.0322  0.4976 -0.3080
   77MOL   H27842990   0.536   1.568   5.037  0.9655  1.2865  2.5117
   77MOL   H27942991   0.637   1.384   5.202  0.0472 -0.7021  0.4002
   77MOL   H28042992   0.259   1.391   5.420  0.2789 -1.7590 -0.2115
   77MOL   H28142993   0.169   1.565   5.250  0.2726  0.0248 -0.1925
   77MOL   O28242994   0.417   1.235   5.505  0.2025 -0.0164 -0.3464
   77MOL   C28342995   0.442   1.123   5.584  0.0353  0.6617 -0.7862
   77MOL   C28442996   0.346   1.133   5.706  0.9944 -0.1852 -0.2740
   77MOL   C28542997   0.322   1.012   5.784 -0.8145  0.2161 -0.3600
   77MOL   C28642998   0.215   1.035   5.887 -0.3169  0.4248 -0.7006
   77MOL   O28742999   0.143   0.917   5.922 -0.0012  0.4430  0.3920
   77MOL   C28843000   0.184   0.833   6.020 -0.1050 -0.6814  0.7560
   77MOL   O28943001   0.291   0.849   6.076 -0.1157  0.0277 -0.2765
   77MOL   C29043002   0.084   0.726   6.050 -0.0710 -0.8995  0.1691
   77MOL   C29143003   8.053   0.733   5.994 -0.1281 -0.2511  0.1850
   77MOL   C29243004   7.964   0.639   6.040 -0.0247 -0.9516  0.1733
   77MOL   C29343005   7.994   0.539   6.145  0.7265 -0.9908 -0.1327
   77MOL   C29443006   7.886   0.454   6.201 -0.0231 -0.1173  0.9470
   77MOL   O29543007   7.781   0.507   6.251 -0.5046  0.0138  0.4410
   77MOL   C29643008   0.030   0.533   6.186  0.5747 -0.4051 -1.2212
   77MOL   C29743009   0.122   0.625   6.138 -0.0751 -0.0789 -0.1381
   77MOL   H29843010   0.428   1.034   5.523  0.5536  0.2489 -0.3089
   77MOL   H29943011   0.543   1.125   5.625 -1.2365  2.0930  2.4029
   77MOL   H30043012   0.248   1.170   5.675  0.3743 -1.9574 -0.4890
   77MOL   H30143013   0.374   1.214   5.773 -0.3338 -0.2429  0.3667
   77MOL   H30243014   0.282   0.945   5.708 -1.0661 -1.5591  1.2912
   77MOL   H30343015   0.415   0.978   5.830 -1.3577 -0.3392  0.3358
   77MOL   H30443016   0.252   1.093   5.972 -2.6760  2.4007 -0.9563
   77MOL   H30543017   0.146   1.111   5.850  0.2154  2.2063  1.8024
   77MOL   H30643018   8.026   0.811   5.924  2.0518 -0.2327 -0.6756
   77MOL   H30743019   7.861   0.634   6.008  0.1669 -2.0686 -0.3082
   77MOL   H30843020   0.059   0.467   6.266 -1.2512  0.9267  0.6097
   77MOL   H30943021   0.225   0.611   6.165  0.1807  1.2393 -0.4009
   77MOL   O31043022   7.925   0.326   6.210 -0.2461  0.1622 -0.5745
   77MOL   C31143023   7.838   0.232   6.275  0.3215 -0.2229 -0.3530
   77MOL   C31243024   7.896   0.095   6.245  0.4987 -0.0636  0.1265
   77MOL   C31343025   7.842   8.082   6.324  0.0933 -0.1226  0.1805
   77MOL   C31443026   7.921   8.058   6.461  0.3285 -0.1692 -0.1170
   77MOL   O31543027   7.855   7.950   6.527 -0.5786  0.6184  0.2377
   77MOL   C31643028   7.910   7.897   6.639  0.2266 -0.2556 -0.0166
   77MOL   O31743029   8.006   7.948   6.693  0.0928 -0.2861 -0.1439
   77MOL   C31843030   7.828   7.787   6.690 -0.3748  0.0080  1.3429
   77MOL   C31943031   7.801   7.771   6.824  0.4094  0.0941 -0.6391
   77MOL   C32043032   7.704   7.668   6.860  0.0529  0.0882  0.4193
   77MOL   C32143033   7.640   7.585   6.769  0.3428  0.1359  0.4172
   77MOL   C32243034   7.545   7.475   6.812  0.0918 -0.0526  0.5817
   77MOL   O32343035   7.525   7.442   6.928 -0.2905 -0.3422  0.2453
   77MOL   C32443036   7.680   7.597   6.633  0.1044 -0.6354 -0.0398
   77MOL   C32543037   7.774   7.695   6.595 -0.2782  0.3123 -1.1325
   77MOL   H32643038   7.829   0.255   6.381  1.8684 -0.3352 -0.1782
   77MOL   H32743039   7.743   0.243   6.223 -0.1896 -0.2999  0.5683
   77MOL   H32843040   8.004   0.094   6.260  0.2305 -0.2698  2.1533
   77MOL   H32943041   7.884   0.077   6.138 -4.2804 -0.0111  0.5590
   77MOL   H33043042   7.735   8.088   6.341  0.2511 -0.4840  1.3419
   77MOL   H33143043   7.848   7.999   6.253 -0.5268 -0.1050  0.1027
   77MOL   H33243044   8.024   8.034   6.436  0.4690  1.4458 -1.1747
   77MOL   H33343045   7.926   0.051   6.520  1.2596 -0.5153  0.3503
   77MOL   H33443046   7.836   7.834   6.904  1.5426 -0.8037 -0.4174
   77MOL   H33543047   7.675   7.640   6.960 -1.8560  2.1081  0.4576
   77MOL   H33643048   7.661   7.521   6.559 -1.8242  1.4570 -1.7718
   77MOL   H33743049   7.810   7.707   6.494  0.1840  1.0921 -0.8792
   77MOL   O33843050   7.477   7.425   6.707 -0.9438 -0.1850  0.2796
   77MOL   C33943051   7.399   7.304   6.721  0.9460  0.7305  0.6472
   77MOL   C34043052   7.247   7.344   6.728 -0.7300  0.2388  0.0435
   77MOL   C34143053   7.179   7.349   6.595 -0.0185 -0.2234 -0.2933
   77MOL   C34243054   7.143   7.212   6.536  0.6948  0.1924  0.2490
   77MOL   O34343055   7.079   7.135   6.637  0.8229  0.5910 -0.2650
   77MOL   C34443056   6.994   7.030   6.604 -0.4201 -0.6044 -0.1240
   77MOL   O34543057   6.964   7.001   6.490 -0.0258  0.0485 -0.5536
   77MOL   C34643058   6.950   6.956   6.725  0.7561  0.3140  0.7992
   77MOL   C34743059   6.852   6.856   6.723 -0.1977 -0.1015 -0.2225
   77MOL   C34843060   6.804   6.795   6.838  0.6136  0.2252 -0.4043
   77MOL   C34943061   6.859   6.836   6.961  0.0788 -0.6078 -0.9921
   77MOL   C35043062   6.812   6.777   7.091  0.5792  0.1472 -0.5064
   77MOL   O35143063   6.729   6.688   7.099  0.7363  0.0847  0.3335
   77MOL   C35243064   6.970   6.930   6.964  0.6611  0.1858  0.2811
   77MOL   C35343065   7.013   6.985   6.848  0.2774 -0.0340 -0.5574
   77MOL   H35443066   7.396   7.246   6.629  0.1316  0.0163  1.1212
   77MOL   H35543067   7.426   7.253   6.813 -0.4361  2.2321  1.9120
   77MOL   H35643068   7.236   7.437   6.782 -0.3229  0.6066 -0.5005
   77MOL   H35743069   7.205   7.264   6.790  1.0595 -0.7943 -0.0268
   77MOL   H35843070   7.092   7.414   6.603 -0.1754 -0.5623  0.7089
   77MOL   H35943071   7.246   7.398   6.524 -2.1827  2.8813 -0.2939
   77MOL   H36043072   7.075   7.217   6.451 -0.6851  0.6725  1.3537
   77MOL   H36143073   7.239   7.167   6.512  0.5642 -0.8726  1.7171
   77MOL   H36243074   6.810   6.831   6.627  0.6553 -0.5431 -0.4935
   77MOL   H36343075   6.718   6.732   6.856  0.6086  0.7993  1.6280
   77MOL   H36443076   7.018   6.958   7.056  1.8616 -0.5317 -0.1236
   77MOL   H36543077   7.101   7.047   6.854  2.4367 -2.8865 -1.8098
   77MOL   O36643078   6.884   6.817   7.199  0.2178 -0.1630  0.5479
   77MOL   C36743079   6.843   6.777   7.326  0.1597  0.3574  0.2728
   77MOL   C36843080   6.956   6.782   7.426 -0.1842 -0.4748  0.3537
   77MOL   C36943081   7.046   6.908   7.430  0.3409  0.6179 -0.2513
   77MOL   C37043082   6.966   7.040   7.421 -0.4031 -0.0326 -0.1147
   77MOL   O37143083   6.903   7.060   7.549  0.2025 -0.2571 -0.5998
   77MOL   C37243084   6.864   7.178   7.592 -0.3637  0.0465 -0.0452
   77MOL   O37343085   6.895   7.276   7.532  0.0338  0.5975  0.2044
   77MOL   C37443086   6.789   7.178   7.722 -0.6358  0.4726 -0.7467
   77MOL   C37543087   6.795   7.067   7.812 -0.1587 -0.1100 -0.5694
   77MOL   C37643088   6.749   7.080   7.942  0.2350  0.5550 -0.1306
   77MOL   C37743089   6.690   7.196   7.999  0.1077  0.1117  0.8491
   77MOL   C37843090   6.624   7.187   0.033  0.0082  0.7860  1.0240
   77MOL   O37943091   6.653   7.103   0.115 -0.5809 -0.0369  0.8376
   77MOL   C38043092   6.674   7.301   7.906  0.1857 -0.2161 -0.2011
   77MOL   C38143093   6.729   7.296   7.774  0.3073 -0.5068 -0.2871
   77MOL   H38243094   6.755   6.828   7.366 -0.1482 -0.1890  0.3053
   77MOL   H38343095   6.807   6.674   7.315  0.3124  0.3896 -0.5330
   77MOL   H38443096   7.016   6.694   7.409  2.3756  1.3642 -0.3880
   77MOL   H38543097   6.915   6.774   7.527 -1.3041  1.0823  0.0461
   77MOL   H38643098   7.125   6.919   7.504  1.6008 -1.4050 -1.2533
   77MOL   H38743099   7.115   6.900   7.345  0.2344 -1.6120 -0.1558
   77MOL   H38843100   7.026   7.126   7.392  1.1494 -2.3952 -4.2527
   77MOL   H38943101   6.885   7.017   7.352 -1.9975  0.1065  1.6658
   77MOL   H39043102   6.822   6.966   7.784 -0.6331 -0.9603  1.8895
   77MOL   H39143103   6.741   6.995   8.007 -0.1522  0.4053 -0.3699
   77MOL   H39243104   6.625   7.391   7.941 -1.9166 -1.2947 -0.3264
   77MOL   H39343105   6.725   7.372   7.698 -1.7935 -0.8429 -0.5195
   77MOL   O39443106   6.539   7.293   0.052  0.1395 -0.4697  1.1840
   77MOL   C39543107   6.496   7.321   0.181  0.4533 -0.1443  0.0729
   77MOL   C39643108   6.359   7.275   0.219  0.4068  0.2585  0.1616
   77MOL   C39743109   6.344   7.120   0.254  0.5169 -0.0618 -0.4616
   77MOL   C39843110   6.432   7.079   0.380 -0.1174  0.9179 -0.3301
   77MOL   O39943111   6.406   7.158   0.491 -0.5243  0.3480 -0.2382
   77MOL   C40043112   6.492   7.241   0.541 -0.4547  0.3725 -0.5056
   77MOL   O40143113   6.593   7.281   0.484 -0.3600 -0.3322 -0.1091
   77MOL   C40243114   6.463   7.274   0.680 -0.3670  0.6044  1.0065
   77MOL   C40343115   6.341   7.248   0.753  0.0632  0.7627  0.3486
   77MOL   C40443116   6.343   7.252   0.894 -0.0054  0.5816 -0.8510
   77MOL   C40543117   6.448   7.312   0.964  0.0479 -0.4946 -0.3221
   77MOL   C40643118   6.453   7.328   1.112 -0.4612 -0.0962 -0.6570
   77MOL   O40743119   6.530   7.410   1.169 -0.4467  0.2977 -0.0675
   77MOL   C40843120   6.556   7.366   0.889 -0.9277  0.4701 -0.4500
   77MOL   C40943121   6.563   7.342   0.752 -0.3390  0.0520  0.1392
   77MOL   H41043122   6.573   7.306   0.257  1.9100  0.5753 -1.2242
   77MOL   H41143123   6.489   7.430   0.174  0.7082 -0.1534 -0.3440
   77MOL   H41243124   6.290   7.296   0.138  0.1707  1.3957  0.6497
   77MOL   H41343125   6.324   7.333   0.305  0.2039 -0.4875  0.5882
   77MOL   H41443126   6.239   7.099   0.273  0.2295  0.0836 -1.8024
   77MOL   H41543127   6.376   7.075   0.160 -1.0959 -0.2432 -0.9389
   77MOL   H41643128   6.414   6.974   0.401 -2.4683  1.0685 -1.4139
   77MOL   H41743129   6.538   7.079   0.354 -0.7706 -0.2089 -3.2458
   77MOL   H41843130   6.263   7.195   0.700 -0.6363  3.6822 -1.6838
   77MOL   H41943131   6.256   7.218   0.949 -0.2206  1.0932 -0.8658
   77MOL   H42043132   6.627   7.426   0.944 -0.4555 -1.8194  1.5427
   77MOL   H42143133   6.648   7.380   0.698 -0.4723 -1.3100 -1.0420
   77MOL   O42243134   6.361   7.252   1.172 -0.0342  0.0736 -0.1116
   77MOL   C42343135   6.347   7.269   1.309  0.3840 -0.7696 -0.6096
   77MOL   C42443136   6.443   7.191   1.398  0.0862 -0.3844  0.3503
   77MOL   C42543137   6.570   7.252   1.431  0.2167 -0.0548  0.5435
   77MOL   C42643138   6.665   7.196   1.547  0.4676 -0.6926  0.5933
   77MOL   O42743139   6.686   7.061   1.507  0.4693  0.2552  0.3252
   77MOL   C42843140   6.794   7.021   1.434 -0.0818  0.2240  0.4675
   77MOL   O42943141   6.886   7.098   1.403 -0.3935  0.3453 -0.1205
   77MOL   C43043142   6.792   6.877   1.397 -0.1556  0.0478 -0.8639
   77MOL   C43143143   6.875   6.837   1.288  0.2225  0.7631 -0.4205
   77MOL   C43243144   6.872   6.703   1.254 -0.1662 -0.4407 -0.9681
   77MOL   C43343145   6.790   6.609   1.318 -0.6498  0.3493  0.1812
   77MOL   C43443146   6.794   6.461   1.287  0.5694 -0.3644  0.3638
   77MOL   O43543147   6.755   6.374   1.360  0.0240  0.7295  0.6939
   77MOL   C43643148   6.704   6.655   1.425  0.4990 -0.1664 -0.4537
   77MOL   C43743149   6.698   6.790   1.459 -0.0915 -0.3339  0.0943
   77MOL   H43843150   6.363   7.375   1.330 -0.0844 -0.9396  0.6500
   77MOL   H43943151   6.243   7.254   1.338  0.6813  0.6584  1.2588
   77MOL   H44043152   6.456   7.095   1.347  2.2027  0.2914 -0.4592
   77MOL   H44143153   6.382   7.172   1.487 -0.2965 -0.8074  0.0047
   77MOL   H44243154   6.629   7.238   1.341  0.5783  3.8404  0.1040
   77MOL   H44343155   6.559   7.360   1.436  1.7196  0.1008  0.8078
   77MOL   H44443156   6.761   7.247   1.552  0.5503 -0.5625 -1.8453
   77MOL   H44543157   6.615   7.203   1.644  0.0899 -2.2110  0.5286
   77MOL   H44643158   6.945   6.891   1.225  2.4300 -2.0269 -0.4601
   77MOL   H44743159   6.937   6.679   1.171  3.9491  2.4693  1.2279
   77MOL   H44843160   6.647   6.585   1.485  1.0961 -1.4889 -1.4168
   77MOL   H44943161   6.631   6.823   1.537 -2.4635  0.4039 -2.1870
   77MOL   O45043162   6.843   6.440   1.164 -0.0321  0.1996 -0.3060
   77MOL   C45143163   6.854   6.307   1.106 -0.2276 -0.6555 -0.0918
   77MOL   C45243164   6.742   6.253   1.011  0.2135 -0.1498 -0.6897
   77MOL   C45343165   6.704   6.337   0.897  0.4072 -0.1032 -0.2197
   77MOL   C45443166   6.660   6.256   0.770  0.4353  1.3104 -0.0542
   77MOL   O45543167   6.584   6.135   0.808 -0.4130 -0.2286  0.5229
   77MOL   C45643168   6.538   6.049   0.717  0.3468  0.0163  0.9282
   77MOL   O45743169   6.562   6.059   0.600  0.0078 -0.5815 -0.2072
   77MOL   C45843170   6.466   5.930   0.772 -0.2988 -0.1067 -0.6480
   77MOL   C45943171   6.400   5.841   0.682 -0.0908  0.5170 -0.1342
   77MOL   C46043172   6.326   5.738   0.737  0.1113 -0.0037  0.1104
   77MOL   C46143173   6.310   5.722   0.880  0.2062  0.0531 -0.0989
   77MOL   C46243174   6.222   5.606   0.922 -0.3599 -0.1164  0.1329
   77MOL   O46343175   6.136   5.561   0.856 -0.1285 -0.0828 -0.5491
   77MOL   C46443176   6.381   5.808   0.962  0.1181  0.1307 -0.8743
   77MOL   C46543177   6.458   5.910   0.910  0.2516  0.5607  0.6053
   77MOL   H46643178   6.939   6.328   1.041 -0.8515  2.2320 -0.0198
   77MOL   H46743179   6.885   6.241   1.188 -0.7361  0.5460  1.0908
   77MOL   H46843180   6.663   6.215   1.077 -1.5334  3.2390 -0.7312
   77MOL   H46943181   6.803   6.168   0.978 -1.8618 -1.0714 -2.2912
   77MOL   H47043182   6.623   6.405   0.924 -0.9069 -1.9869  0.7208
   77MOL   H47143183   6.778   6.412   0.869  1.6125 -0.0596  2.8618
   77MOL   H47243184   6.614   6.316   0.692  0.7834  0.5108 -0.8810
   77MOL   H47343185   6.746   6.232   0.709 -2.0207 -0.6689 -2.8862
   77MOL   H47443186   6.424   5.849   0.577 -0.2656  0.1839 -0.1989
   77MOL   H47543187   6.291   5.654   0.678  0.3952 -0.7505  0.9968
   77MOL   H47643188   6.371   5.781   1.066 -3.7724  0.4452 -1.0723
   77MOL   H47743189   6.515   5.969   0.980  1.4110 -0.0821  0.2252
   77MOL   O47843190   6.262   5.563   1.049  0.4347 -0.3377  0.0009
   77MOL   C47943191   6.197   5.444   1.107 -0.0935  0.3557 -0.0543
   77MOL   C48043192   6.248   5.309   1.040 -0.6022 -0.8570  0.6801
   77MOL   C48143193   6.173   5.182   1.080 -0.1723  0.3407  0.9565
   77MOL   C48243194   6.246   5.058   1.057  0.0624  0.1083  0.3408
   77MOL   O48343195   6.268   5.054   0.913  0.5196  0.6713 -0.2491
   77MOL   C48443196   6.327   4.945   0.868 -0.2923 -0.4594  1.0867
   77MOL   O48543197   6.351   4.847   0.941  0.7181  0.9735  0.2668
   77MOL   C48643198   6.343   4.953   0.722 -0.1259 -0.1479 -0.0958
   77MOL   C48743199   6.296   5.073   0.647  0.1706 -0.2149 -0.6361
   77MOL   C48843200   6.329   5.087   0.511 -0.2507 -0.3242  0.2953
   77MOL   C48943201   6.401   4.985   0.449  0.0332  0.4763 -0.3202
   77MOL   C49043202   6.428   5.001   0.306  0.3028 -0.1878  0.0453
   77MOL   O49143203   6.354   5.077   0.236  0.7758 -0.8113  0.4189
   77MOL   C49243204   6.440   4.870   0.521  0.3233  0.4178 -0.0051
   77MOL   C49343205   6.406   4.852   0.656 -0.1099 -0.2535 -0.5106
   77MOL   H49443206   6.220   5.431   1.213  2.6946 -4.1984 -1.0447
   77MOL   H49543207   6.092   5.463   1.088  0.0159 -0.9614 -2.0853
   77MOL   H49643208   6.353   5.291   1.066 -0.6240 -1.8395  0.0948
   77MOL   H49743209   6.253   5.321   0.932 -0.9453  0.4274  0.7960
   77MOL   H49843210   6.152   5.182   1.187  2.2965 -2.0067  1.5275
   77MOL   H49943211   6.075   5.177   1.034  0.0299  0.0077  0.5517
   77MOL   H50043212   6.342   5.067   1.107  0.0388 -1.5832  0.7108
   77MOL   H50143213   6.192   4.971   1.094  0.2248  0.0201  0.3703
   77MOL   H50243214   6.248   5.150   0.705 -0.2590 -0.5079 -0.6026
   77MOL   H50343215   6.296   5.173   0.455 -3.1466 -1.1291  0.6877
   77MOL   H50443216   6.494   4.785   0.481 -2.6178 -0.4179 -2.4264
   77MOL   H50543217   6.440   4.764   0.710  1.8919 -0.0391 -1.3697
   77MOL   O50643218   6.515   4.914   0.261  0.5111 -0.4380  0.1352
   77MOL   C50743219   6.545   4.900   0.119  0.2243 -0.5772 -0.1383
   77MOL   C50843220   6.668   4.979   0.083  0.2700  0.3215 -0.3172
   77MOL   C50943221   6.660   5.134   0.100  0.4338  0.7996 -0.2526
   77MOL   C51043222   6.781   5.207   0.051 -0.2049  0.0889 -0.2858
   77MOL   O51143223   6.798   5.194   8.006 -0.6783  0.4714 -0.0160
   77MOL   C51243224   6.916   5.235   7.957  0.1410  0.2222 -0.0131
   77MOL   O51343225   6.995   5.308   8.022 -0.3470 -0.1591  0.2787
   77MOL   C51443226   6.928   5.192   7.817 -0.0889  0.1260  0.0767
   77MOL   C51543227   6.850   5.088   7.752  0.3111 -0.2548 -0.3563
   77MOL   C51643228   6.885   5.032   7.627 -0.0980 -0.5184 -0.5620
   77MOL   C51743229   6.993   5.077   7.558  0.1309  0.4618 -0.5085
   77MOL   C51843230   7.025   5.010   7.431  0.7346  0.0955 -0.2275
   77MOL   O51943231   6.988   4.895   7.401 -0.1988 -0.0511  0.2649
   77MOL   C52043232   7.068   5.179   7.617  0.2438  0.0719  0.0615
   77MOL   C52143233   7.029   5.242   7.738  0.1108 -0.6484  0.6751
   77MOL   H52243234   6.559   4.794   0.099  1.5307 -0.3835 -0.2692
   77MOL   H52343235   6.457   4.925   0.060  1.1528 -0.1462 -1.3395
   77MOL   H52443236   6.699   4.940   8.084  0.4459  1.2111 -0.6191
   77MOL   H52543237   6.747   4.941   0.148  0.4288  0.7355 -0.2650
   77MOL   H52643238   6.565   5.169   0.059 -0.9492 -1.4678  0.8965
   77MOL   H52743239   6.656   5.139   0.209  0.6434  0.0044 -0.2082
   77MOL   H52843240   6.776   5.314   0.067  2.3304  0.1941 -0.0439
   77MOL   H52943241   6.861   5.163   0.110  1.3174  1.6894 -1.1301
   77MOL   H53043242   6.766   5.052   7.808 -0.4572 -0.2529 -1.4914
   77MOL   H53143243   6.819   4.956   7.586  1.2694 -1.1361 -1.6735
   77MOL   H53243244   7.162   5.210   7.572  0.9001 -2.2774 -0.2322
   77MOL   H53343245   7.105   5.310   7.770 -1.8319  2.3338 -0.8237
   77MOL   O53443246   7.092   5.089   7.345 -0.1888  0.5042  0.1169
   77MOL   C53543247   7.106   5.043   7.212 -0.3274  0.1834 -0.1303
   77MOL   C53643248   6.986   5.093   7.136 -0.0628 -0.5502 -0.4798
   77MOL   C53743249   6.966   5.052   6.988 -0.5205  0.5866 -0.2696
   77MOL   C53843250   6.938   4.897   6.965 -0.1597  0.0927 -0.4812
   77MOL   O53943251   6.901   4.869   6.835  0.1945 -0.4358 -0.2259
   77MOL   C54043252   6.973   4.780   6.756 -0.1090  0.7718  0.2210
   77MOL   O54143253   7.084   4.730   6.786  0.5197 -0.7286  0.1616
   77MOL   C54243254   6.912   4.757   6.623  0.7535 -1.0661 -0.2833
   77MOL   C54343255   6.955   4.654   6.532 -0.1123 -0.0087 -0.1150
   77MOL   C54443256   6.896   4.644   6.404 -1.0381 -0.0825  0.4414
   77MOL   C54543257   6.798   4.733   6.363 -1.1400 -0.5511  0.2652
   77MOL   C54643258   6.739   4.723   6.225  0.0129 -0.1467 -0.0479
   77MOL   O54743259   6.775   4.644   6.140 -0.0234  1.0576  0.1664
   77MOL   C54843260   6.752   4.834   6.450 -0.4575 -0.3350 -0.0152
   77MOL   C54943261   6.802   4.840   6.582 -0.0075 -0.0731  0.4414
   77MOL   H55043262   7.193   5.094   7.173  0.3882 -1.2657 -0.4846
   77MOL   H55143263   7.116   4.936   7.194  1.1018  0.6777 -2.3773
   77MOL   H55243264   6.971   5.201   7.146 -2.6176 -1.2380  4.3588
   77MOL   H55343265   6.891   5.057   7.175  0.3135 -0.1348  0.8418
   77MOL   H55443266   6.875   5.098   6.948 -1.9215 -0.5421  1.5274
   77MOL   H55543267   7.050   5.088   6.929  0.7779  1.1874  1.8805
   77MOL   H55643268   7.022   4.837   7.002 -0.6879 -0.8601 -0.8100
   77MOL   H55743269   6.859   4.866   7.033  0.5318 -0.8881 -0.1078
   77MOL   H55843270   7.024   4.575   6.556 -0.0491 -0.4410 -1.6912
   77MOL   H55943271   6.942   4.568   6.342  2.0296  2.2861 -0.3229
   77MOL   H56043272   6.668   4.896   6.421 -1.9869 -1.9103  0.9012
   77MOL   H56143273   6.768   4.911   6.656 -1.4148  0.7657 -0.9828
   77MOL   H56243274   6.653   4.789   6.213  0.2986  0.4503  1.1109
   78MOL     O143275   6.101   4.700   1.094 -0.0740  0.0178 -0.5419
   78MOL     C243276   6.060   4.601   1.006  0.2519  0.0252 -0.1848
   78MOL     C343277   6.045   4.656   0.860  0.1561 -0.6270  0.8661
   78MOL     C443278   5.913   4.729   0.841 -0.0603 -0.5468 -0.4159
   78MOL     C543279   5.880   4.853   0.928  0.3474 -0.0870  0.4621
   78MOL     O643280   5.749   4.888   0.905  0.0752 -0.1559  1.0557
   78MOL     C743281   5.692   4.991   0.981 -0.1858  0.0403 -1.0890
   78MOL     O843282   5.753   5.044   1.078  0.3744 -0.5754  0.3463
   78MOL     C943283   5.552   5.020   0.941  0.1046 -0.2502 -0.1699
   78MOL    C1043284   5.476   5.101   1.030 -1.0797  0.1394 -0.3590
   78MOL    C1143285   5.344   5.137   0.987  0.4141 -0.0907 -0.0301
   78MOL    C1243286   5.294   5.093   0.861 -0.4258  0.4168 -0.3135
   78MOL    C1343287   5.154   5.137   0.822  0.1600 -0.4743 -0.3675
   78MOL    O1443288   5.090   5.216   0.891  0.3976 -0.2279 -0.2791
   78MOL    C1543289   5.373   5.015   0.776  0.2888  0.1887  0.7672
   78MOL    C1643290   5.505   4.979   0.811  0.7837 -0.9793  0.3796
   78MOL    H1743291   6.151   4.543   1.018 -0.3307 -1.6079 -3.0623
   78MOL    H1843292   5.971   4.547   1.037  0.7856 -0.0853  1.1658
   78MOL    H1943293   6.059   4.580   0.784  1.3236  0.9618 -0.5312
   78MOL    H2043294   6.129   4.721   0.836  0.1955 -0.5812  1.1228
   78MOL    H2143295   5.892   4.759   0.739 -1.4442  2.0860  0.5880
   78MOL    H2243296   5.838   4.657   0.874  1.3319 -1.9204 -0.1699
   78MOL    H2343297   5.874   4.830   1.034  1.4334  0.2701  0.6083
   78MOL    H2443298   5.951   4.936   0.919  2.6616 -2.1160 -0.5233
   78MOL    H2543299   5.523   5.137   1.121  1.1838 -0.0870 -1.3914
   78MOL    H2643300   5.288   5.214   1.039 -1.2877 -0.5777 -1.1230
   78MOL    H2743301   5.342   4.977   0.679  2.0106  0.3543  0.1420
   78MOL    H2843302   5.564   4.937   0.732  0.3759  0.9995 -1.0074
   78MOL    H2943303   6.192   4.719   1.076 -0.2116 -0.8732 -2.2222
   78MOL    O3043304   5.118   5.074   0.711  0.1797  0.5651  0.6344
   78MOL    C3143305   5.023   5.131   0.634  0.0848 -0.9909 -0.1694
   78MOL    C3243306   5.089   5.196   0.510  0.0155 -0.4534 -0.1137
   78MOL    C3343307   5.159   5.328   0.545  0.9413 -0.4029  0.2168
   78MOL    C3443308   5.277   5.375   0.454 -0.7714  0.2980  0.4755
   78MOL    O3543309   5.395   5.289   0.481 -1.2121  0.0990  0.1993
   78MOL    C3643310   5.416   5.179   0.394  0.4113  0.5470 -1.2042
   78MOL    O3743311   5.339   5.152   0.301 -0.0667 -0.2620 -0.1637
   78MOL    C3843312   5.545   5.115   0.412  0.2501  0.1184 -0.1948
   78MOL    C3943313   5.589   5.020   0.321  0.4048 -0.3322 -0.0442
   78MOL    C4043314   5.710   4.946   0.342 -0.5545 -0.0258  0.7939
   78MOL    C4143315   5.788   4.980   0.452 -0.4454 -0.2799 -0.0005
   78MOL    C4243316   5.924   4.922   0.465  0.0703  0.1629 -0.1630
   78MOL    O4343317   5.997   4.941   0.563  0.0414 -0.1631  0.0566
   78MOL    C4443318   5.739   5.075   0.549  0.6402  0.3670  0.1261
   78MOL    C4543319   5.620   5.145   0.522 -0.5547  0.5046  0.5994
   78MOL    H4643320   4.963   5.053   0.588  0.4964 -0.5679 -1.4413
   78MOL    H4743321   4.959   5.203   0.684  1.6546  1.6666 -1.8293
   78MOL    H4843322   5.017   5.218   0.431 -1.8350 -2.2824  1.0111
   78MOL    H4943323   5.155   5.118   0.472  0.5711  1.3630 -3.0806
   78MOL    H5043324   5.091   5.413   0.551  3.2602  1.5393 -0.2796
   78MOL    H5143325   5.208   5.327   0.643  0.0181  3.2383  0.7825
   78MOL    H5243326   5.245   5.381   0.350 -1.7140 -0.8751  0.6868
   78MOL    H5343327   5.298   5.478   0.480  0.8127 -0.0926  0.7881
   78MOL    H5443328   5.529   4.989   0.236  0.3993  0.3149 -0.2795
   78MOL    H5543329   5.738   4.871   0.270  0.5132  0.1703  1.0052
   78MOL    H5643330   5.807   5.090   0.631  1.0501 -0.8430  0.0349
   78MOL    H5743331   5.592   5.226   0.588 -0.8834 -0.5400  1.7640
   78MOL    O5843332   5.963   4.852   0.360  0.0028  0.3655 -0.4473
   78MOL    C5943333   6.085   4.786   0.357 -0.4315 -0.7635  0.2742
   78MOL    C6043334   6.111   4.743   0.211  0.2303  0.2874  0.2312
   78MOL    C6143335   6.109   4.853   0.111  0.6732 -0.1844 -0.1136
   78MOL    C6243336   6.120   4.809   8.065  0.5261  0.4308 -0.1237
   78MOL    O6343337   6.251   4.756   8.033  0.4299 -0.9507  0.8270
   78MOL    C6443338   6.274   4.634   8.032 -0.5183 -0.0717 -0.6368
   78MOL    O6543339   6.191   4.550   8.064  0.4281  0.3416 -0.6725
   78MOL    C6643340   6.419   4.596   7.995  0.6658  0.1107  0.1673
   78MOL    C6743341   6.468   4.461   7.999  0.3790 -0.1539  0.1493
   78MOL    C6843342   6.594   4.440   7.948  0.1280  0.1637 -0.1017
   78MOL    C6943343   6.669   4.545   7.882 -0.3276  0.1410 -0.0852
   78MOL    C7043344   6.798   4.512   7.830  0.3714 -0.4402 -0.3025
   78MOL    O7143345   6.848   4.399   7.837  0.2219  0.1205  0.1103
   78MOL    C7243346   6.622   4.675   7.877  0.5535 -0.5956 -0.1452
   78MOL    C7343347   6.499   4.696   7.944 -0.7807  0.6922 -0.3142
   78MOL    H7443348   6.154   4.856   0.403 -0.0589 -1.4785  0.8133
   78MOL    H7543349   6.085   4.706   0.431  0.9635 -1.3167 -0.2977
   78MOL    H7643350   6.041   4.665   0.180  1.8816 -1.0473 -0.2116
   78MOL    H7743351   6.213   4.705   0.206  0.5067  1.0358  0.0330
   78MOL    H7843352   6.018   4.911   0.124  0.1595 -0.9006 -0.4923
   78MOL    H7943353   6.186   4.930   0.123 -2.1296  2.9652 -1.5769
   78MOL    H8043354   6.041   4.738   8.043  1.5183  0.0752 -2.6559
   78MOL    H8143355   6.104   4.902   8.011 -0.4560 -1.5424 -3.3539
   78MOL    H8243356   6.396   4.384   8.023 -0.6085 -0.2821 -2.9722
   78MOL    H8343357   6.631   4.339   7.939  2.3436  0.8265  1.2188
   78MOL    H8443358   6.670   4.751   7.817 -0.0488 -0.2386 -0.1864
   78MOL    H8543359   6.452   4.793   7.936 -2.1584 -0.2113 -3.8639
   78MOL    O8643360   6.850   4.617   7.755  0.1454 -0.3570 -0.1695
   78MOL    C8743361   6.973   4.595   7.676 -0.7412 -0.4149  0.1337
   78MOL    C8843362   7.069   4.706   7.711 -0.4607  0.7940 -0.6110
   78MOL    C8943363   7.186   4.723   7.616  0.1979 -0.6281 -0.6013
   78MOL    C9043364   7.276   4.841   7.642  0.1979  0.0422  0.3624
   78MOL    O9143365   7.346   4.867   7.525 -0.3713 -0.3640 -0.0880
   78MOL    C9243366   7.480   4.860   7.514 -0.0509 -0.4796  0.1314
   78MOL    O9343367   7.547   4.829   7.610 -0.3676 -0.1644 -0.0207
   78MOL    C9443368   7.530   4.909   7.381  0.5740 -0.3142 -0.1905
   78MOL    C9543369   7.658   4.866   7.342  0.6355  0.8658  0.3035
   78MOL    C9643370   7.709   4.906   7.214 -0.0844  1.1080 -0.7064
   78MOL    C9743371   7.629   4.983   7.123  1.1176  0.0236 -0.5497
   78MOL    C9843372   7.680   5.017   6.986  0.2377  0.0660 -0.6815
   78MOL    O9943373   7.797   5.008   6.961  0.2522 -0.5744 -0.1423
   78MOL   C10043374   7.500   5.013   7.164  0.0863  0.0747  0.1478
   78MOL   C10143375   7.455   4.991   7.296  0.3586  0.3819 -0.3947
   78MOL   H10243376   7.026   4.501   7.692  1.7065  0.7420 -0.7997
   78MOL   H10343377   6.938   4.601   7.573 -1.7581  1.5946  0.5777
   78MOL   H10443378   7.123   4.684   7.803 -0.4579  0.4454 -0.6937
   78MOL   H10543379   7.019   4.802   7.723  0.9244  1.7280 -2.1337
   78MOL   H10643380   7.232   4.625   7.604  1.4760 -0.0410 -0.6358
   78MOL   H10743381   7.136   4.754   7.524  0.9557  1.9825 -0.1799
   78MOL   H10843382   7.217   4.928   7.671 -1.9476 -0.8554 -1.1837
   78MOL   H10943383   7.341   4.829   7.729 -0.2552  1.3150  0.8841
   78MOL   H11043384   7.713   4.816   7.420  0.7157  3.8789  2.2486
   78MOL   H11143385   7.809   4.873   7.189  0.3627  0.1152  2.1626
   78MOL   H11243386   7.438   5.061   7.090  1.0027  1.8216  0.4663
   78MOL   H11343387   7.359   5.023   7.334  0.6415 -1.2475  1.8039
   78MOL   O11443388   7.580   5.028   6.890 -0.4753  0.1072  0.6569
   78MOL   C11543389   7.609   5.029   6.747 -0.2012 -0.8874 -0.4799
   78MOL   C11643390   7.484   5.080   6.681  0.4410 -0.0887 -0.0050
   78MOL   C11743391   7.354   5.004   6.729 -0.4289 -0.2539 -0.5534
   78MOL   C11843392   7.238   5.052   6.652 -0.0353  0.2510  0.0111
   78MOL   O11943393   7.218   4.995   6.523  0.4824  0.1286  0.3332
   78MOL   C12043394   7.149   5.066   6.427 -0.3589  0.3952  0.9767
   78MOL   O12143395   7.110   5.183   6.434 -0.0568  0.5561 -0.7287
   78MOL   C12243396   7.139   4.985   6.305  0.1122 -0.7187 -0.0783
   78MOL   C12343397   7.093   5.044   6.186 -0.5932 -0.2278  0.4170
   78MOL   C12443398   7.082   4.972   6.069 -0.2319  0.0885  0.3500
   78MOL   C12543399   7.123   4.838   6.061  0.1870 -0.0390 -0.5424
   78MOL   C12643400   7.121   4.773   5.921 -0.9883  0.0760  0.4194
   78MOL   O12743401   7.086   4.829   5.815 -0.5025  0.2536  0.3871
   78MOL   C12843402   7.167   4.770   6.183  0.9955 -0.2631  0.5624
   78MOL   C12943403   7.174   4.846   6.304  0.0937 -0.1986  0.6434
   78MOL   H13043404   7.699   5.090   6.734 -1.1468  0.5842 -0.2564
   78MOL   H13143405   7.630   4.924   6.731  2.1174 -0.6692  0.8832
   78MOL   H13243406   7.508   5.073   6.575 -1.9283 -0.5732 -0.5428
   78MOL   H13343407   7.466   5.186   6.695  1.6993  0.3730 -1.6961
   78MOL   H13443408   7.368   4.897   6.719 -0.0213 -0.5080  2.1895
   78MOL   H13543409   7.325   5.020   6.833  0.7173  3.4625 -0.7165
   78MOL   H13643410   7.146   5.057   6.710 -0.6463  0.7207 -0.9774
   78MOL   H13743411   7.239   5.161   6.646 -0.0360  0.3726  1.8492
   78MOL   H13843412   7.058   5.146   6.174  1.8311  0.5008 -0.6759
   78MOL   H13943413   7.050   5.026   5.981  0.9716 -1.0957 -0.8557
   78MOL   H14043414   7.185   4.664   6.174  0.5614 -0.4703  2.0677
   78MOL   H14143415   7.196   4.792   6.395  1.0644  0.1595  0.6168
   78MOL   O14243416   7.146   4.647   5.925 -0.2373  0.5063 -0.6468
   78MOL   C14343417   7.177   4.580   5.805 -0.2848 -0.3903  0.0832
   78MOL   C14443418   7.182   4.429   5.834 -0.2105 -0.1052 -0.3859
   78MOL   C14543419   7.230   4.349   5.702 -0.0508 -0.2298 -0.3151
   78MOL   C14643420   7.219   4.195   5.720 -0.7931 -0.0278  0.0239
   78MOL   O14743421   7.245   4.137   5.590  0.6165 -0.6389 -0.3920
   78MOL   C14843422   7.362   4.072   5.563  0.4352  0.4072  0.7904
   78MOL   O14943423   7.430   4.029   5.653 -0.0717 -0.3351 -0.7622
   78MOL   C15043424   7.388   4.044   5.421  0.2194  0.3573 -0.3622
   78MOL   C15143425   7.503   3.974   5.385 -0.1493  0.0863  0.0107
   78MOL   C15243426   7.533   3.950   5.246 -0.6465 -0.2148  0.0894
   78MOL   C15343427   7.450   4.010   5.148 -0.1718  0.3137 -0.7451
   78MOL   C15443428   7.485   4.023   5.004  0.5322  0.1873  0.6483
   78MOL   O15543429   7.403   4.058   4.922  0.3105 -0.0549  0.2169
   78MOL   C15643430   7.334   4.071   5.189  0.0530 -0.5890 -0.0132
   78MOL   C15743431   7.305   4.091   5.324  0.1845  0.0680  0.3639
   78MOL   H15843432   7.109   4.604   5.724 -2.1070  2.8123  2.4443
   78MOL   H15943433   7.274   4.611   5.767  0.7654 -2.6275  0.8263
   78MOL   H16043434   7.088   4.381   5.863 -0.8137  0.5774 -1.1898
   78MOL   H16143435   7.260   4.404   5.906 -0.3170 -0.3245 -0.3450
   78MOL   H16243436   7.166   4.372   5.617 -1.6138  0.8981  1.1486
   78MOL   H16343437   7.331   4.381   5.677  0.6652 -0.8687  1.7233
   78MOL   H16443438   7.299   4.162   5.785 -0.4730  2.0595  0.7385
   78MOL   H16543439   7.127   4.154   5.761 -0.1572 -0.9863  0.4920
   78MOL   H16643440   7.566   3.937   5.465 -0.8597  0.0473  0.5572
   78MOL   H16743441   7.617   3.891   5.213 -2.1582 -0.8838 -2.7000
   78MOL   H16843442   7.262   4.112   5.118  0.6556  1.0699  0.3016
   78MOL   H16943443   7.214   4.147   5.340  0.2756  0.1017  0.7679
   78MOL   O17043444   7.604   3.978   4.972  0.4312  0.5386 -0.0996
   78MOL   C17143445   7.654   3.975   4.838  0.4132  0.4276 -0.2644
   78MOL   C17243446   7.733   3.847   4.807 -0.6480 -0.3526 -0.1068
   78MOL   C17343447   7.849   3.871   4.709  0.0281 -0.5573 -0.3619
   78MOL   C17443448   7.790   3.864   4.566 -0.0183 -0.2506 -0.3530
   78MOL   O17543449   7.759   3.728   4.541 -0.3278 -0.0244  0.3726
   78MOL   C17643450   7.733   3.698   4.413 -1.1099  0.3437  0.4089
   78MOL   O17743451   7.752   3.777   4.320  0.7075  0.4665 -0.2274
   78MOL   C17843452   7.685   3.561   4.389  1.0009  0.0670  0.2830
   78MOL   C17943453   7.650   3.471   4.490 -0.4207  0.2069  0.2469
   78MOL   C18043454   7.588   3.347   4.461 -0.2221 -0.7700  0.6096
   78MOL   C18143455   7.575   3.300   4.325 -1.1398 -0.2709 -0.4375
   78MOL   C18243456   7.534   3.162   4.290  0.6446  0.3165 -0.4325
   78MOL   O18343457   7.565   3.092   4.194  0.0094 -0.0813  0.3782
   78MOL   C18443458   7.604   3.393   4.222  0.3590 -0.2788  0.9811
   78MOL   C18543459   7.656   3.521   4.253  0.2496 -0.2397 -0.6844
   78MOL   H18643460   7.573   3.993   4.766 -2.2038 -2.2003  1.9027
   78MOL   H18743461   7.714   4.065   4.825 -1.0261  1.6318  1.1475
   78MOL   H18843462   7.663   3.766   4.789  0.6150 -1.5500  0.2760
   78MOL   H18943463   7.784   3.815   4.899  3.6865  3.0378 -1.1347
   78MOL   H19043464   7.903   3.964   4.728  1.9326 -2.0240  1.8124
   78MOL   H19143465   7.923   3.791   4.717 -0.3125 -0.7398  1.2228
   78MOL   H19243466   7.705   3.932   4.559 -1.7698 -2.2745  0.6322
   78MOL   H19343467   7.876   3.909   4.517  1.3747 -0.3054  1.9799
   78MOL   H19443468   7.644   3.514   4.589  0.7320  1.5194 -0.2489
   78MOL   H19543469   7.549   3.283   4.538  0.5374 -3.5534 -1.2332
   78MOL   H19643470   7.593   3.373   4.117  0.1538 -1.0378  1.1427
   78MOL   H19743471   7.691   3.582   4.171  0.3512 -0.3642 -0.7330
   78MOL   O19843472   7.446   3.109   4.386 -0.2110 -0.0336 -0.2408
   78MOL   C19943473   7.400   2.976   4.380  1.0905 -0.0936  0.4493
   78MOL   C20043474   7.325   2.940   4.513  0.1340  0.2066  0.3001
   78MOL   C20143475   7.218   3.044   4.536  0.1504  0.6775 -0.1078
   78MOL   C20243476   7.127   3.023   4.658 -0.7140  0.1454  0.1384
   78MOL   O20343477   7.031   3.117   4.655  0.5866  0.2473 -0.0787
   78MOL   C20443478   6.904   3.089   4.623  0.4835  0.3991 -0.5732
   78MOL   O20543479   6.861   2.978   4.600 -0.4936  0.3178  0.6270
   78MOL   C20643480   6.826   3.213   4.615 -0.9328 -0.3144  0.5595
   78MOL   C20743481   6.861   3.335   4.676 -0.9224 -0.0780  0.1191
   78MOL   C20843482   6.765   3.442   4.668 -0.4799 -0.0299  0.1702
   78MOL   C20943483   6.642   3.432   4.599 -0.5806 -0.1123  0.2128
   78MOL   C21043484   6.531   3.541   4.609  0.2049 -0.1233  0.3309
   78MOL   O21143485   6.432   3.550   4.536  0.7258 -0.6928 -0.0469
   78MOL   C21243486   6.622   3.313   4.536 -0.1339 -1.2929  0.2355
   78MOL   C21343487   6.707   3.206   4.541  0.8374 -0.1216  0.4894
   78MOL   H21443488   7.344   2.958   4.288  0.9595 -1.2562  0.7502
   78MOL   H21543489   7.492   2.917   4.376  1.5017  0.5945 -0.4593
   78MOL   H21643490   7.394   2.943   4.598  1.5981  0.7700 -0.8930
   78MOL   H21743491   7.276   2.843   4.510 -1.1317  0.8511 -0.2606
   78MOL   H21843492   7.261   3.140   4.564  0.1504  0.1711  1.7240
   78MOL   H21943493   7.149   3.052   4.452 -2.0188  1.8049  1.6896
   78MOL   H22043494   7.077   2.927   4.671 -1.9762  0.5407 -1.5974
   78MOL   H22143495   7.190   3.050   4.743 -0.3875 -1.4284  0.4121
   78MOL   H22243496   6.958   3.351   4.719 -0.6403  1.9525 -1.1995
   78MOL   H22343497   6.772   3.527   4.734 -1.2439 -1.8296  2.6573
   78MOL   H22443498   6.526   3.289   4.491 -0.7724  2.1703 -0.3697
   78MOL   H22543499   6.669   3.117   4.494 -0.1389 -0.5336  2.0106
   78MOL   O22643500   6.557   3.621   4.711  0.0196  0.7444  0.9339
   78MOL   C22743501   6.468   3.729   4.747 -0.0447 -0.3242 -1.1689
   78MOL   C22843502   6.540   3.849   4.806 -0.2800 -0.3463  0.0106
   78MOL   C22943503   6.593   3.842   4.946 -0.0259  0.0495 -0.2844
   78MOL   C23043504   6.711   3.749   4.970  0.0604  0.0448 -0.2685
   78MOL   O23143505   6.752   3.767   5.106 -0.2864  0.2763 -0.1139
   78MOL   C23243506   6.846   3.859   5.141  0.1394  0.3535 -0.5243
   78MOL   O23343507   6.895   3.948   5.072  0.0578  0.2573  0.5456
   78MOL   C23443508   6.898   3.836   5.277  0.6069  0.1456 -0.0817
   78MOL   C23543509   7.029   3.877   5.316  0.0977  0.4630  0.9054
   78MOL   C23643510   7.089   3.852   5.442  0.0754  0.1971  0.1530
   78MOL   C23743511   7.013   3.780   5.537  0.3962  0.2832  0.4820
   78MOL   C23843512   7.066   3.776   5.679 -0.0064  0.7916  0.7005
   78MOL   O23943513   7.178   3.815   5.712 -0.1792  0.1231  0.1517
   78MOL   C24043514   6.888   3.723   5.495  0.4662  0.8156  0.6665
   78MOL   C24143515   6.831   3.757   5.372 -0.2672 -0.4966 -0.0457
   78MOL   H24243516   6.412   3.754   4.657 -0.4189 -0.6726 -1.0355
   78MOL   H24343517   6.387   3.690   4.808 -1.3247  1.0691 -1.9405
   78MOL   H24443518   6.470   3.932   4.816 -1.6931 -1.2062 -2.3560
   78MOL   H24543519   6.614   3.886   4.735 -0.5805  1.6064  0.6773
   78MOL   H24643520   6.617   3.943   4.979  0.9565  1.3352 -4.5178
   78MOL   H24743521   6.517   3.795   5.008 -1.0867 -1.1194 -2.4285
   78MOL   H24843522   6.705   3.645   4.937  0.3864  0.0186 -0.2497
   78MOL   H24943523   6.793   3.776   4.903  0.1976 -0.8572 -0.4760
   78MOL   H25043524   7.084   3.936   5.244  1.0037  0.3101  1.4610
   78MOL   H25143525   7.187   3.888   5.469 -0.1913  0.1025  1.2294
   78MOL   H25243526   6.828   3.663   5.562  1.4771 -1.3084 -0.2896
   78MOL   H25343527   6.732   3.720   5.349  0.5422 -1.3961 -2.1981
   78MOL   O25443528   6.969   3.732   5.762  0.5372 -0.1320  0.4194
   78MOL   C25543529   6.975   3.741   5.901 -0.1820 -0.3766 -0.3150
   78MOL   C25643530   7.011   3.608   5.955  0.0990 -0.0223 -0.2971
   78MOL   C25743531   7.156   3.561   5.920  0.2133  0.0468 -0.0334
   78MOL   C25843532   7.200   3.450   6.013  0.0371  0.3904  0.0526
   78MOL   O25943533   7.326   3.402   5.962 -0.4782 -0.9225 -0.0596
   78MOL   C26043534   7.444   3.464   6.008  0.5048 -0.2402  0.1554
   78MOL   O26143535   7.435   3.562   6.082  0.0858  0.2444  0.1516
   78MOL   C26243536   7.572   3.405   5.963  0.0195  0.1061 -1.2409
   78MOL   C26343537   7.696   3.461   6.005 -0.6771 -0.6016 -0.2416
   78MOL   C26443538   7.820   3.415   5.953 -0.1895 -0.3959 -0.6098
   78MOL   C26543539   7.828   3.296   5.871 -0.2237  0.4215  0.6970
   78MOL   C26643540   7.958   3.240   5.834 -0.0497  0.1092 -0.5275
   78MOL   O26743541   8.062   3.253   5.899  0.0947 -0.4029 -0.4181
   78MOL   C26843542   7.705   3.245   5.823 -0.5307 -0.0597 -0.8352
   78MOL   C26943543   7.583   3.301   5.870 -0.2861  0.0315 -0.2745
   78MOL   H27043544   7.038   3.825   5.931 -1.5665  0.2718  0.8525
   78MOL   H27143545   6.872   3.766   5.925  0.8005  2.4384  1.2421
   78MOL   H27243546   6.940   3.531   5.924  1.6767 -1.9894  0.8694
   78MOL   H27343547   7.015   3.629   6.062  1.6055  1.0755 -0.5581
   78MOL   H27443548   7.157   3.526   5.817  1.7467 -3.7275  1.1800
   78MOL   H27543549   7.240   3.629   5.930 -0.5617  0.7302  2.2173
   78MOL   H27643550   7.200   3.478   6.118 -2.5287  1.0991 -0.1037
   78MOL   H27743551   7.128   3.368   6.011 -0.7236  1.0624 -1.0502
   78MOL   H27843552   7.698   3.545   6.073 -0.9467  1.0401 -2.1991
   78MOL   H27943553   7.913   3.451   5.993  0.8004 -2.8853 -0.5612
   78MOL   H28043554   7.693   3.156   5.764 -0.3459 -0.0790 -0.8446
   78MOL   H28143555   7.493   3.260   5.828 -1.0034  0.3105  0.9619
   78MOL   O28243556   7.941   3.155   5.730 -0.1074  0.5230 -0.0615
   78MOL   C28343557   8.054   3.090   5.673  0.6024 -0.6115  0.1419
   78MOL   C28443558   8.001   2.993   5.568 -0.0587  0.3513 -0.0663
   78MOL   C28543559   7.956   2.859   5.635  0.0218 -0.0634 -0.5086
   78MOL   C28643560   7.889   2.776   5.528  0.3624  0.6893 -0.0107
   78MOL   O28743561   7.987   2.714   5.442 -0.2317 -0.1037 -0.1087
   78MOL   C28843562   7.977   2.586   5.403  0.5058  0.7337  0.6289
   78MOL   O28943563   7.887   2.515   5.442  0.4099  0.1638  0.3164
   78MOL   C29043564   8.075   2.553   5.307 -0.9430  0.1964  0.7228
   78MOL   C29143565   0.077   2.645   5.269 -0.1559  0.5128  0.5582
   78MOL   C29243566   0.175   2.618   5.172  0.5328  0.4133  0.2275
   78MOL   C29343567   0.190   2.484   5.128  0.7771  0.2132 -0.1273
   78MOL   C29443568   0.300   2.443   5.035  0.2260  0.0301 -0.9737
   78MOL   O29543569   0.295   2.336   4.969 -0.4870 -0.0829 -0.5035
   78MOL   C29643570   0.091   2.386   5.169  0.7585  0.6902  0.5723
   78MOL   C29743571   8.084   2.419   5.252  0.1008  0.4197 -0.6608
   78MOL   H29843572   0.001   3.167   5.610 -2.0790  0.7363 -0.2255
   78MOL   H29943573   0.027   3.046   5.742  2.0138 -0.8246 -1.4186
   78MOL   H30043574   8.076   2.973   5.491 -0.9239 -0.8569 -0.6042
   78MOL   H30143575   7.915   3.034   5.516 -0.3911 -1.1944 -0.7657
   78MOL   H30243576   8.034   2.791   5.669 -1.2927 -1.6280 -0.5044
   78MOL   H30343577   7.879   2.865   5.711  0.1561 -1.5993 -0.2417
   78MOL   H30443578   7.823   2.698   5.565  0.1175 -0.6114 -3.0276
   78MOL   H30543579   7.826   2.844   5.471  0.2537  1.7103  1.3016
   78MOL   H30643580   0.078   2.749   5.299 -0.4432  0.6847 -0.0128
   78MOL   H30743581   0.248   2.693   5.145 -1.5506  1.8315 -1.5917
   78MOL   H30843582   0.103   2.279   5.158  1.9892  1.1007 -2.7889
   78MOL   H30943583   8.008   2.346   5.276  0.9974 -0.4313 -0.3334
   78MOL   O31043584   0.399   2.536   5.043 -0.6421 -0.1049  0.4919
   78MOL   C31143585   0.518   2.521   4.965 -0.3701 -0.5051 -0.0711
   78MOL   C31243586   0.633   2.505   5.069  0.2697  0.4714  0.4050
   78MOL   C31343587   0.620   2.363   5.131  0.6193  0.0252  0.3190
   78MOL   C31443588   0.685   2.255   5.048 -0.5949  0.1144  0.1235
   78MOL   O31543589   0.821   2.284   5.051  0.2895 -0.2427 -0.6175
   78MOL   C31643590   0.914   2.186   5.069  0.0398  0.0206  0.0406
   78MOL   O31743591   0.892   2.062   5.072  0.0225 -0.0688 -0.6859
   78MOL   C31843592   1.054   2.247   5.070 -0.1774  0.4828 -0.0306
   78MOL   C31943593   1.172   2.163   5.075  0.1995 -0.1490 -0.3704
   78MOL   C32043594   1.298   2.222   5.094  1.0672  0.0564  0.1554
   78MOL   C32143595   1.315   2.361   5.099  0.2148  1.2921 -0.0680
   78MOL   C32243596   1.447   2.423   5.114 -0.0179  0.0767  0.1712
   78MOL   O32343597   1.555   2.359   5.096  0.0131  0.5381  0.4453
   78MOL   C32443598   1.202   2.446   5.084  0.0527  0.1241  0.2734
   78MOL   C32543599   1.072   2.390   5.061 -0.0148  0.1237 -0.1842
   78MOL   H32643600   0.501   2.436   4.899 -0.8735 -2.4531  2.4900
   78MOL   H32743601   0.538   2.609   4.905 -1.5091 -1.0112 -1.2253
   78MOL   H32843602   0.635   2.576   5.151  1.4996  0.7053  0.1804
   78MOL   H32943603   0.731   2.523   5.025  0.5700 -0.1953  0.7810
   78MOL   H33043604   0.669   2.356   5.228  0.2464 -1.9536  0.3869
   78MOL   H33143605   0.518   2.329   5.146  0.1409 -0.2687 -3.2344
   78MOL   H33243606   0.675   2.153   5.085 -0.7652  0.2478  0.4385
   78MOL   H33343607   0.644   2.253   4.947 -1.0284  0.6398  0.2883
   78MOL   H33443608   1.155   2.056   5.075  0.9320 -0.2620  0.4326
   78MOL   H33543609   1.383   2.156   5.093 -1.2817 -3.0675  0.3569
   78MOL   H33643610   1.220   2.552   5.078  0.8483 -0.0502 -0.3444
   78MOL   H33743611   0.986   2.454   5.050 -0.1425 -0.1931 -1.0644
   78MOL   O33843612   1.440   2.545   5.164 -0.2836  0.2974  0.2426
   78MOL   C33943613   1.563   2.618   5.177  0.0048  1.2905  0.1644
   78MOL   C34043614   1.538   2.709   5.305  0.1546  0.0553  0.0981
   78MOL   C34143615   1.503   2.629   5.431 -0.0733 -0.1690 -0.0989
   78MOL   C34243616   1.484   2.718   5.561  0.0751  0.1132 -0.0300
   78MOL   O34343617   1.609   2.756   5.609  0.1570 -0.4297  0.1129
   78MOL   C34443618   1.608   2.831   5.720 -0.6148 -0.0206 -0.4179
   78MOL   O34543619   1.513   2.864   5.783  0.5240 -0.4686 -0.2910
   78MOL   C34643620   1.742   2.875   5.756  0.7213 -0.6373 -0.2184
   78MOL   C34743621   1.786   2.869   5.889  0.4095  0.0398 -0.4801
   78MOL   C34843622   1.924   2.903   5.912 -0.4919 -0.3021 -0.5104
   78MOL   C34943623   2.008   2.946   5.809  0.2679 -0.2269 -0.2960
   78MOL   C35043624   2.151   2.972   5.842  0.1791  0.4214 -1.3287
   78MOL   O35143625   2.192   2.982   5.963  0.2608 -0.2004  0.5032
   78MOL   C35243626   1.965   2.949   5.675  0.4890 -0.1694  0.3184
   78MOL   C35343627   1.829   2.914   5.650 -0.2163  0.7159 -0.0741
   78MOL   H35443628   1.653   2.556   5.187 -0.9673 -0.1267  0.2158
   78MOL   H35543629   1.576   2.670   5.082 -2.0779 -0.2519 -0.9933
   78MOL   H35643630   1.453   2.773   5.283 -1.0493 -0.7876  2.0929
   78MOL   H35743631   1.626   2.769   5.325  0.7642 -1.5417  2.5100
   78MOL   H35843632   1.410   2.573   5.423 -0.0815 -0.3198  1.0032
   78MOL   H35943633   1.578   2.554   5.454  0.6511  0.6908  0.3555
   78MOL   H36043634   1.423   2.807   5.546 -1.2149 -0.6058  0.8787
   78MOL   H36143635   1.427   2.658   5.631  1.3565 -1.4525 -0.2930
   78MOL   H36243636   1.725   2.834   5.970  0.4688 -0.5067 -0.6721
   78MOL   H36343637   1.965   2.895   6.012 -0.1352  2.8163 -0.3607
   78MOL   H36443638   2.026   2.984   5.593 -1.8662  0.2723 -1.2762
   78MOL   H36543639   1.800   2.913   5.546 -1.1640 -1.0610  0.1811
   78MOL   O36643640   2.232   2.981   5.727 -0.0844  0.5447 -0.2954
   78MOL   C36743641   2.366   3.001   5.737 -0.7186 -0.7926  0.6342
   78MOL   C36843642   2.413   3.047   5.599  0.3162  0.0771 -0.4771
   78MOL   C36943643   2.573   3.056   5.592  0.0199 -0.4275 -0.1627
   78MOL   C37043644   2.627   3.114   5.458 -0.1025 -0.0327 -0.7224
   78MOL   O37143645   2.581   3.253   5.435  0.0909 -0.4430  0.3592
   78MOL   C37243646   2.670   3.345   5.388 -0.4079 -0.2099 -0.5415
   78MOL   O37343647   2.783   3.319   5.355  0.6897 -0.0792 -0.7389
   78MOL   C37443648   2.616   3.482   5.363 -0.9238 -0.0609  0.3872
   78MOL   C37543649   2.704   3.580   5.307  0.4269  0.4698 -0.0127
   78MOL   C37643650   2.657   3.710   5.269  0.1989 -0.3074  0.1251
   78MOL   C37743651   2.525   3.748   5.299  0.3501 -0.4326 -0.2534
   78MOL   C37843652   2.474   3.881   5.251  0.1379 -0.4392  0.1287
   78MOL   O37943653   2.359   3.920   5.269 -0.0146 -0.3146 -0.0499
   78MOL   C38043654   2.436   3.659   5.364 -0.1988 -0.3178 -0.1878
   78MOL   C38143655   2.484   3.528   5.393  0.6793 -0.2788  0.0553
   78MOL   H38243656   2.391   3.081   5.806  3.4008 -1.8065  0.4824
   78MOL   H38343657   2.419   2.912   5.771  0.7661  0.5434  1.8986
   78MOL   H38443658   2.359   3.139   5.576 -0.0703  0.4324  1.7385
   78MOL   H38543659   2.374   2.977   5.525 -1.7774  0.8151 -0.0893
   78MOL   H38643660   2.602   3.127   5.670 -2.8347  0.0929  0.5074
   78MOL   H38743661   2.641   2.972   5.602  2.6764  1.5690 -0.7550
   78MOL   H38843662   2.735   3.105   5.469 -0.2046 -2.5560 -1.4725
   78MOL   H38943663   2.604   3.061   5.366 -0.9545  0.1227 -0.6049
   78MOL   H39043664   2.805   3.547   5.287 -0.4663 -1.7825 -0.9758
   78MOL   H39143665   2.731   3.783   5.241 -0.1374 -0.1740 -0.4013
   78MOL   H39243666   2.341   3.691   5.403 -0.0340 -1.1164  0.8932
   78MOL   H39343667   2.418   3.457   5.442 -0.1384  1.7676  1.9847
   78MOL   O39443668   2.564   3.947   5.180 -0.1087 -0.6684 -0.0643
   78MOL   C39543669   2.520   4.061   5.101  0.0781 -0.0059  0.1573
   78MOL   C39643670   2.522   4.034   4.944  0.2539 -0.2427 -0.1186
   78MOL   C39743671   2.414   3.934   4.906  0.1111  0.0588 -0.3560
   78MOL   C39843672   2.347   3.949   4.765 -0.0939  1.6233  0.1764
   78MOL   O39943673   2.234   3.871   4.751 -0.0208 -0.3478  0.0173
   78MOL   C40043674   2.255   3.743   4.717 -0.4494 -0.1364 -0.2934
   78MOL   O40143675   2.360   3.684   4.721 -0.2431  0.5547  0.0016
   78MOL   C40243676   2.122   3.683   4.685 -0.4160 -0.3410 -0.0650
   78MOL   C40343677   2.010   3.763   4.657 -0.3836 -0.2936 -0.1667
   78MOL   C40443678   1.889   3.702   4.630  0.6726  0.2603  0.3872
   78MOL   C40543679   1.871   3.562   4.634  0.0159  0.1040  0.5922
   78MOL   C40643680   1.741   3.503   4.605 -0.5248 -0.5520 -0.2458
   78MOL   O40743681   1.731   3.392   4.560  0.5695  0.6355  0.4184
   78MOL   C40843682   1.986   3.481   4.641 -0.0525  0.7573 -0.5379
   78MOL   C40943683   2.108   3.541   4.682 -0.1233  0.3388 -0.2794
   78MOL   H41043684   2.425   4.101   5.137 -1.2006 -0.2244 -2.8531
   78MOL   H41143685   2.592   4.140   5.125  0.1085  0.7650 -2.3563
   78MOL   H41243686   2.610   3.979   4.909 -0.4465 -1.0963 -0.5687
   78MOL   H41343687   2.515   4.127   4.889  1.3792  0.1032  0.3159
   78MOL   H41443688   2.457   3.835   4.923  0.4177  0.5385  1.8223
   78MOL   H41543689   2.334   3.942   4.980  0.9573  1.6422  0.4156
   78MOL   H41643690   2.305   4.048   4.747  0.2358  1.8929  0.8696
   78MOL   H41743691   2.405   3.931   4.675 -1.6570 -1.8704 -0.1989
   78MOL   H41843692   2.012   3.871   4.663 -1.2055 -0.3230  0.8962
   78MOL   H41943693   1.809   3.764   4.592 -0.5169 -1.3750  0.1767
   78MOL   H42043694   1.976   3.374   4.634 -0.9659  0.8779 -1.1700
   78MOL   H42143695   2.194   3.477   4.692 -0.3761 -0.0747 -0.7027
   78MOL   O42243696   1.633   3.591   4.623  0.1923  0.5823  0.1704
   78MOL   C42343697   1.501   3.546   4.601  1.0131  0.1046  0.4584
   78MOL   C42443698   1.421   3.498   4.730  0.2453 -0.1505 -0.3790
   78MOL   C42543699   1.468   3.367   4.789 -0.1539  0.4012  0.2986
   78MOL   C42643700   1.373   3.297   4.896 -0.1043  0.3461 -0.1960
   78MOL   O42743701   1.415   3.167   4.921  0.6433  0.6987  0.0289
   78MOL   C42843702   1.353   3.054   4.873 -0.0765 -0.4735  0.0091
   78MOL   O42943703   1.240   3.050   4.829 -0.4334  0.2910 -0.1023
   78MOL   C43043704   1.446   2.934   4.865  0.3574 -0.2452 -0.0027
   78MOL   C43143705   1.399   2.819   4.796 -0.2325 -0.7719  0.4668
   78MOL   C43243706   1.484   2.706   4.790 -0.0858 -0.0935  0.4588
   78MOL   C43343707   1.617   2.706   4.842 -0.0693  0.8939  0.1707
   78MOL   C43443708   1.705   2.589   4.834 -0.3718  0.2327 -0.1718
   78MOL   O43543709   1.817   2.581   4.885  1.1843  0.0693  0.2117
   78MOL   C43643710   1.667   2.826   4.906 -0.1064  0.2667 -0.1799
   78MOL   C43743711   1.578   2.937   4.922  0.4053 -0.0615 -0.8592
   78MOL   H43843712   1.434   3.619   4.555 -0.0081  0.1201  1.9228
   78MOL   H43943713   1.499   3.463   4.531 -2.0901  1.2427 -0.9303
   78MOL   H44043714   1.317   3.493   4.698  0.5780 -0.2160 -1.4718
   78MOL   H44143715   1.427   3.577   4.805  0.8800  0.4213 -1.0275
   78MOL   H44243716   1.484   3.295   4.709  1.2977  0.4902  0.4929
   78MOL   H44343717   1.562   3.381   4.841 -0.9175 -1.2042  2.1578
   78MOL   H44443718   1.368   3.355   4.988  1.9017  1.6255 -0.8633
   78MOL   H44543719   1.273   3.294   4.853  0.1876  1.4040 -0.9435
   78MOL   H44643720   1.314   2.828   4.730 -0.0857  1.0142  0.4885
   78MOL   H44743721   1.442   2.625   4.733 -2.2660  2.2791 -1.4256
   78MOL   H44843722   1.769   2.839   4.939  0.2668  0.2657 -1.3126
   78MOL   H44943723   1.609   3.027   4.973 -0.7650 -0.6670  0.9873
   78MOL   O45043724   1.659   2.489   4.755 -0.2838 -0.5558 -0.0679
   78MOL   C45143725   1.730   2.364   4.726 -0.0525  0.1216 -0.3440
   78MOL   C45243726   1.800   2.372   4.589 -0.4846 -0.8273  0.1835
   78MOL   C45343727   1.872   2.239   4.547  0.4203 -0.1727  0.2729
   78MOL   C45443728   1.916   2.247   4.399  0.5086 -0.6507 -0.1439
   78MOL   O45543729   1.786   2.242   4.330 -0.0110  0.0398  0.5394
   78MOL   C45643730   1.780   2.210   4.201 -0.6897 -0.2053 -0.5782
   78MOL   O45743731   1.881   2.190   4.130 -0.4384  0.4934  0.0169
   78MOL   C45843732   1.646   2.203   4.141  0.5293 -0.8395  0.1493
   78MOL   C45943733   1.628   2.174   4.003 -0.9178 -0.3768 -0.6825
   78MOL   C46043734   1.500   2.148   3.948 -0.4526  0.8008 -0.0725
   78MOL   C46143735   1.381   2.156   4.029  0.0277 -0.6643  0.0842
   78MOL   C46243736   1.244   2.138   3.969  0.0867  0.1335 -0.2274
   78MOL   O46343737   1.143   2.148   4.042 -0.1062  0.9558  0.3293
   78MOL   C46443738   1.394   2.185   4.164 -0.4731  1.1581  0.0248
   78MOL   C46543739   1.524   2.211   4.217  0.3092  0.1073 -0.1741
   78MOL   H46643740   1.801   2.334   4.802 -0.4566 -1.1593 -0.4661
   78MOL   H46743741   1.650   2.290   4.723 -0.0595  0.1064  0.3029
   78MOL   H46843742   1.867   2.458   4.580  0.6615 -1.4491  2.5208
   78MOL   H46943743   1.724   2.391   4.514  1.5294  1.1813 -1.4356
   78MOL   H47043744   1.964   2.234   4.605  1.1169 -1.0201 -0.8696
   78MOL   H47143745   1.807   2.152   4.561  1.9321 -1.6300 -1.4986
   78MOL   H47243746   1.972   2.339   4.383  1.2945 -1.1157 -0.1078
   78MOL   H47343747   1.973   2.162   4.361 -1.1980 -1.9670  0.1989
   78MOL   H47443748   1.713   2.175   3.936 -0.0077  2.2024  0.4226
   78MOL   H47543749   1.491   2.128   3.843 -0.0913  0.6029 -0.0674
   78MOL   H47643750   1.315   2.192   4.237 -0.3054  1.4387  0.1819
   78MOL   H47743751   1.534   2.233   4.322  1.2312  0.3109 -0.2953
   78MOL   O47843752   1.253   2.106   3.841  0.9323 -0.4506 -0.1307
   78MOL   C47943753   1.148   2.074   3.748 -0.1176  0.5499  0.5684
   78MOL   C48043754   1.186   2.083   3.602 -0.2639 -0.5042  0.2788
   78MOL   C48143755   1.153   2.212   3.533  0.1934 -0.2440  0.3206
   78MOL   C48243756   1.171   2.217   3.379 -0.9722  0.0933 -0.2370
   78MOL   O48343757   1.166   2.359   3.345 -0.1727 -0.2035  0.7577
   78MOL   C48443758   1.102   2.396   3.234 -0.0183 -0.1259 -0.0522
   78MOL   O48543759   1.041   2.323   3.157  0.1712  0.1926  0.4645
   78MOL   C48643760   1.116   2.544   3.210 -0.0358 -0.0466  1.3378
   78MOL   C48743761   1.031   2.605   3.116 -0.1429  0.1170  0.0385
   78MOL   C48843762   1.028   2.744   3.105 -0.8487  0.1316  0.0663
   78MOL   C48943763   1.120   2.825   3.179  0.4928  1.1417  0.1458
   78MOL   C49043764   1.108   2.970   3.171  0.1315 -0.3594 -0.4381
   78MOL   O49143765   1.037   3.028   3.094  0.0009  0.0588  0.1067
   78MOL   C49243766   1.214   2.761   3.263 -0.1389 -0.1706  0.4979
   78MOL   C49343767   1.203   2.623   3.292 -0.2483  0.0116  0.3797
   78MOL   H49443768   1.117   1.969   3.754 -1.4488  0.9222  0.1936
   78MOL   H49543769   1.059   2.135   3.758 -1.2067 -0.1423 -3.7794
   78MOL   H49643770   1.124   2.004   3.559 -1.1777  0.6341 -0.5306
   78MOL   H49743771   1.292   2.059   3.591 -0.2411 -0.2851  0.0289
   78MOL   H49843772   1.048   2.239   3.544  0.0204 -0.8513  0.1804
   78MOL   H49943773   1.214   2.285   3.585 -2.1695  0.8698  1.6051
   78MOL   H50043774   1.267   2.170   3.355 -0.3982 -0.2896  2.6154
   78MOL   H50143775   1.092   2.161   3.330  1.9107 -2.9658 -1.6605
   78MOL   H50243776   0.965   2.542   3.059  0.2867  1.8031 -2.4316
   78MOL   H50343777   0.959   2.791   3.037  1.2981  0.7893 -1.7407
   78MOL   H50443778   1.291   2.814   3.317 -1.2202  3.5756 -1.5324
   78MOL   H50543779   1.275   2.587   3.363  0.8026  0.6596 -0.3490
   78MOL   O50643780   1.183   3.025   3.266 -0.3142  0.0290  0.0343
   78MOL   C50743781   1.176   3.161   3.291  0.6290 -0.7844 -0.5777
   78MOL   C50843782   1.300   3.213   3.353  0.2113  0.4277  0.3143
   78MOL   C50943783   1.334   3.152   3.490  0.1138  0.3672 -0.4674
   78MOL   C51043784   1.213   3.154   3.585  0.7840 -0.1912 -0.1478
   78MOL   O51143785   1.254   3.135   3.720 -0.4723 -0.2918  0.1253
   78MOL   C51243786   1.164   3.132   3.821  0.6855 -0.3218  0.0800
   78MOL   O51343787   1.045   3.151   3.804  0.5236 -0.3024  0.0817
   78MOL   C51443788   1.219   3.103   3.954  0.7385 -0.3836 -0.1186
   78MOL   C51543789   1.357   3.099   3.972 -1.1078 -0.2336  0.7719
   78MOL   C51643790   1.412   3.050   4.095 -0.1803 -0.2982 -0.2487
   78MOL   C51743791   1.330   3.005   4.201 -0.0518  0.7253  0.4264
   78MOL   C51843792   1.388   2.954   4.334  0.0380 -0.6439  0.3680
   78MOL   O51943793   1.333   2.867   4.400  0.8129  0.1857 -0.1094
   78MOL   C52043794   1.188   3.014   4.179 -0.0307 -0.6605  0.1794
   78MOL   C52143795   1.130   3.070   4.060 -0.3663 -0.9371  0.3420
   78MOL   H52243796   1.161   3.216   3.198 -0.4803 -0.4376 -0.2098
   78MOL   H52343797   1.096   3.181   3.363  0.7987  1.4357 -0.9776
   78MOL   H52443798   1.278   3.319   3.363  2.9546  1.2506 -1.7870
   78MOL   H52543799   1.381   3.217   3.279 -1.2051 -0.7753 -1.3574
   78MOL   H52643800   1.372   3.051   3.481 -0.5850 -0.0707  1.1994
   78MOL   H52743801   1.413   3.207   3.540 -1.8036  2.1774  0.6513
   78MOL   H52843802   1.158   3.245   3.562  0.6017 -0.6878 -1.7341
   78MOL   H52943803   1.143   3.080   3.545  2.2049 -1.2126 -0.7730
   78MOL   H53043804   1.417   3.127   3.886 -0.7465 -0.0624  1.0803
   78MOL   H53143805   1.520   3.058   4.098 -0.3683  2.4701  0.4457
   78MOL   H53243806   1.121   2.971   4.252 -0.0216  0.5269  0.9049
   78MOL   H53343807   1.023   3.063   4.048 -0.1314 -3.2273 -0.6562
   78MOL   O53443808   1.509   3.011   4.356 -0.3256 -0.4563  0.1971
   78MOL   C53543809   1.576   2.990   4.479  0.3801 -0.8183 -0.1293
   78MOL   C53643810   1.695   3.085   4.476 -0.0036  0.2473 -0.0318
   78MOL   C53743811   1.818   3.014   4.421  0.1621  0.5144  0.4393
   78MOL   C53843812   1.940   3.097   4.418  0.0425  0.4328 -0.7362
   78MOL   O53943813   1.957   3.185   4.309 -0.3772  0.3579 -0.1954
   78MOL   C54043814   1.998   3.142   4.188  0.3051  0.6446  0.2442
   78MOL   O54143815   2.031   3.024   4.163 -0.3447  0.0981  0.2796
   78MOL   C54243816   1.994   3.250   4.088  0.9311 -0.2523  0.5317
   78MOL   C54343817   1.932   3.376   4.107  0.7588  0.1233  0.0684
   78MOL   C54443818   1.918   3.473   4.001  0.0869 -0.0576 -0.5662
   78MOL   C54543819   1.964   3.433   3.874  0.5829  0.1415 -0.4051
   78MOL   C54643820   1.957   3.535   3.768  0.5494 -0.0456 -0.1986
   78MOL   O54743821   1.880   3.636   3.773 -0.7787  0.4940  0.3485
   78MOL   C54843822   2.029   3.314   3.855 -0.0354 -0.2165  0.0146
   78MOL   C54943823   2.048   3.225   3.959  0.2998  0.4632 -0.2719
   78MOL   H55043824   1.511   3.016   4.562 -1.1091 -2.4634 -0.7464
   78MOL   H55143825   1.605   2.885   4.492 -0.0636 -0.9159  0.0714
   78MOL   H55243826   1.722   3.115   4.577  2.9267  1.5686 -1.1431
   78MOL   H55343827   1.680   3.179   4.424  1.9240  1.7339  1.9916
   78MOL   H55443828   1.834   2.916   4.465 -1.7994 -0.4262 -0.8438
   78MOL   H55543829   1.796   2.981   4.320  1.1320 -1.4176  0.8487
   78MOL   H55643830   1.948   3.152   4.512  1.8826 -2.2562  0.7467
   78MOL   H55743831   2.026   3.032   4.433  0.4106  0.9819 -0.4521
   78MOL   H55843832   1.896   3.405   4.205 -3.6101 -1.4161 -0.9605
   78MOL   H55943833   1.888   3.574   4.025  3.1719  0.5270  1.0613
   78MOL   H56043834   2.063   3.287   3.756  0.4509 -0.3319  0.2105
   78MOL   H56143835   2.101   3.131   3.948  1.4475  0.9167  1.2958
   78MOL   H56243836   2.003   3.515   3.672  1.6337  1.1765  0.0320
   79MOL     O143837   1.531   5.125   0.444 -0.5157 -0.4592  0.1077
   79MOL     C243838   1.572   5.245   0.382  0.4019  0.1746  0.6164
   79MOL     C343839   1.629   5.210   0.243  0.3353 -0.4997  0.0510
   79MOL     C443840   1.723   5.332   0.193 -0.2281  0.1010 -0.4438
   79MOL     C543841   1.647   5.462   0.172 -0.5059  0.0786  0.2510
   79MOL     O643842   1.550   5.452   0.067  0.9429  0.9186  0.9488
   79MOL     C743843   1.590   5.481   8.035 -0.1208  0.6744  0.5984
   79MOL     O843844   1.705   5.518   8.006 -0.1801 -0.0004 -0.2510
   79MOL     C943845   1.489   5.454   7.934  0.2156 -1.1439 -0.6009
   79MOL    C1043846   1.520   5.462   7.796  0.4740 -0.3527 -0.0798
   79MOL    C1143847   1.429   5.433   7.695  0.5764  0.6278 -0.5268
   79MOL    C1243848   1.298   5.403   7.734 -0.2811  0.2004  0.3646
   79MOL    C1343849   1.186   5.383   7.633  0.3061 -0.2423  0.2911
   79MOL    O1443850   1.078   5.352   7.674 -0.0559 -0.6112  0.5874
   79MOL    C1543851   1.262   5.401   7.871 -0.5878  0.1653  0.5454
   79MOL    C1643852   1.357   5.426   7.969 -0.9313  0.0777  0.6939
   79MOL    H1743853   1.491   5.318   0.389 -1.6703 -1.8473 -1.2676
   79MOL    H1843854   1.655   5.284   0.441  0.0767  0.3328  0.9739
   79MOL    H1943855   1.544   5.189   0.179 -1.0771 -0.2170  1.7690
   79MOL    H2043856   1.682   5.115   0.237 -2.5915 -2.1115 -1.2526
   79MOL    H2143857   1.807   5.342   0.262  0.0316  3.2169 -1.1142
   79MOL    H2243858   1.776   5.310   0.100 -1.5490  2.5142 -1.8335
   79MOL    H2343859   1.586   5.488   0.258 -2.3813 -0.1890 -0.9600
   79MOL    H2443860   1.696   5.560   0.166 -0.5424 -0.0380 -2.7371
   79MOL    H2543861   1.615   5.508   7.773 -1.7947  5.7876  1.7538
   79MOL    H2643862   1.465   5.438   7.593 -0.8104 -0.1275 -1.0624
   79MOL    H2743863   1.163   5.366   7.895 -0.6315 -0.1966 -0.1570
   79MOL    H2843864   1.336   5.437   8.075 -0.1560 -0.8794  0.9526
   79MOL    H2943865   1.604   5.066   0.433 -0.7652 -0.4562 -1.7259
   79MOL    O3043866   1.222   5.421   7.504  0.3578 -0.2213 -0.0300
   79MOL    C3143867   1.121   5.451   7.403  0.3583  0.2128  0.8740
   79MOL    C3243868   1.159   5.580   7.328 -0.0999  0.4722 -0.5679
   79MOL    C3343869   1.047   5.644   7.255  0.6989  0.0337 -0.1500
   79MOL    C3443870   1.102   5.758   7.163 -0.1787  0.1223 -0.1652
   79MOL    O3543871   1.190   5.707   7.055 -0.1193 -0.1336 -0.1213
   79MOL    C3643872   1.161   5.729   6.925  0.7156 -0.4239 -0.0454
   79MOL    O3743873   1.048   5.759   6.886 -0.0472 -0.8602 -0.7752
   79MOL    C3843874   1.264   5.708   6.823  0.0503  0.5542  0.5305
   79MOL    C3943875   1.390   5.659   6.854 -0.9249 -0.6397 -0.1388
   79MOL    C4043876   1.498   5.663   6.768 -0.3498  0.0496  0.4494
   79MOL    C4143877   1.482   5.707   6.636  0.3650 -0.2454  1.2225
   79MOL    C4243878   1.604   5.712   6.544  1.0141  0.2102  0.3907
   79MOL    O4343879   1.712   5.661   6.573  0.4817  0.3026  0.2843
   79MOL    C4443880   1.361   5.767   6.605  0.1995  1.0256  0.1791
   79MOL    C4543881   1.250   5.771   6.698  0.3397  0.0589  0.8318
   79MOL    H4643882   1.107   5.362   7.341  2.0611 -0.2813  1.1552
   79MOL    H4743883   1.022   5.459   7.448 -0.0236 -1.5003  0.3810
   79MOL    H4843884   1.250   5.557   7.273  1.2213 -0.9228  2.0749
   79MOL    H4943885   1.190   5.655   7.401  1.1583 -1.5506  1.0424
   79MOL    H5043886   0.983   5.583   7.191  0.3665 -1.4114  1.5021
   79MOL    H5143887   0.976   5.688   7.325 -1.1979 -0.9204 -1.4291
   79MOL    H5243888   1.021   5.817   7.119  1.0444  1.0741 -1.1665
   79MOL    H5343889   1.157   5.833   7.221  0.8809 -2.3054  2.0667
   79MOL    H5443890   1.410   5.632   6.957 -0.7233  2.6922  0.7550
   79MOL    H5543891   1.593   5.630   6.807  0.5420  3.8889  1.7931
   79MOL    H5643892   1.359   5.808   6.505 -1.1618 -0.8667 -0.5992
   79MOL    H5743893   1.160   5.820   6.662  0.8576 -0.6110 -1.5095
   79MOL    O5843894   1.585   5.786   6.428 -0.0391 -0.0661  0.5159
   79MOL    C5943895   1.684   5.784   6.331  0.6325  0.0612 -0.1060
   79MOL    C6043896   1.800   5.892   6.353  1.0674 -0.9943  0.4316
   79MOL    C6143897   1.920   5.888   6.255  0.2448 -0.5425  0.3496
   79MOL    C6243898   2.036   5.995   6.275 -0.2675  0.4687  0.1309
   79MOL    O6343899   2.002   6.135   6.268 -0.7070 -0.5918 -0.0062
   79MOL    C6443900   1.964   6.209   6.377 -0.1784  0.1640  0.1937
   79MOL    O6543901   1.929   6.151   6.479  0.0232  0.3659  0.3351
   79MOL    C6643902   1.950   6.353   6.364  0.4286  0.2188 -0.3490
   79MOL    C6743903   1.963   6.415   6.234  0.0532  0.1112  0.1897
   79MOL    C6843904   1.951   6.556   6.225 -1.0986  0.0526  0.2190
   79MOL    C6943905   1.929   6.636   6.338  0.8256  0.3360 -0.1401
   79MOL    C7043906   1.920   6.786   6.321  0.2252 -0.1992  0.1238
   79MOL    O7143907   1.912   6.842   6.214 -0.0836  0.0582  0.0163
   79MOL    C7243908   1.909   6.573   6.462 -0.2895 -0.2262 -0.4014
   79MOL    C7343909   1.927   6.435   6.478 -0.4263 -0.2981 -0.7120
   79MOL    H7443910   1.713   5.679   6.321 -0.6406 -0.1205 -2.1480
   79MOL    H7543911   1.638   5.809   6.235 -0.2452  0.2749  0.3698
   79MOL    H7643912   1.832   5.902   6.456  0.8080  1.3778  0.3244
   79MOL    H7743913   1.766   5.995   6.335  0.3336 -1.1109  1.1268
   79MOL    H7843914   1.972   5.795   6.282  2.7947  0.8587  0.3789
   79MOL    H7943915   1.885   5.884   6.152 -0.7149  1.4154  0.5829
   79MOL    H8043916   2.080   5.961   6.369 -0.7349  1.9086  0.8949
   79MOL    H8143917   2.116   5.965   6.207 -1.2942 -0.0941 -0.8449
   79MOL    H8243918   1.976   6.362   6.141  1.2357 -1.2768  1.1371
   79MOL    H8343919   1.961   6.609   6.131  3.6543  2.1673  1.7315
   79MOL    H8443920   1.884   6.635   6.547 -0.8685 -1.8423  0.6180
   79MOL    H8543921   1.909   6.394   6.576 -0.8885  2.5825  0.4374
   79MOL    O8643922   1.932   6.856   6.435 -0.3806 -0.2105  0.1239
   79MOL    C8743923   1.901   6.994   6.445  0.0364  0.1158  0.2370
   79MOL    C8843924   1.797   7.004   6.552  0.2199 -0.6116  0.3183
   79MOL    C8943925   1.656   6.954   6.507  0.2576  0.3731 -0.7636
   79MOL    C9043926   1.562   6.958   6.629 -0.4615  0.0091 -0.6032
   79MOL    O9143927   1.601   6.863   6.727 -0.2622 -0.3015  0.0389
   79MOL    C9243928   1.512   6.823   6.824 -0.2114 -0.1820 -0.0776
   79MOL    O9343929   1.395   6.859   6.832 -0.3124  0.2474  0.2176
   79MOL    C9443930   1.578   6.735   6.923  0.2382  0.3115 -0.4245
   79MOL    C9543931   1.715   6.704   6.909 -0.7185 -0.6200  0.6027
   79MOL    C9643932   1.775   6.608   6.993  0.2897  0.2484  0.4047
   79MOL    C9743933   1.705   6.543   7.101  0.1871 -0.2115  0.1006
   79MOL    C9843934   1.773   6.445   7.193 -0.8862  0.0509 -0.1776
   79MOL    O9943935   1.895   6.447   7.217 -0.0618 -0.3660  0.4930
   79MOL   C10043936   1.569   6.587   7.119 -0.1891  0.9799 -0.2039
   79MOL   C10143937   1.506   6.675   7.025 -0.5817  0.3947 -0.2051
   79MOL   H10243938   1.990   7.054   6.463 -0.7875  1.3300  0.3174
   79MOL   H10343939   1.862   7.027   6.349  1.2770 -0.5996 -0.5312
   79MOL   H10443940   1.795   7.106   6.591 -1.1735 -1.3449  2.2369
   79MOL   H10543941   1.841   6.945   6.632  1.9175 -0.4478 -0.4642
   79MOL   H10643942   1.613   7.028   6.440 -0.1804  0.2817 -0.5892
   79MOL   H10743943   1.654   6.851   6.471  1.5103  0.5877 -1.4694
   79MOL   H10843944   1.567   7.052   6.685  1.6547 -1.8105  2.3231
   79MOL   H10943945   1.456   6.945   6.608 -0.7865  1.4662  0.0321
   79MOL   H11043946   1.788   6.749   6.843 -0.6315 -0.6602  0.6710
   79MOL   H11143947   1.880   6.583   6.991  0.2900 -0.0461  2.7238
   79MOL   H11243948   1.511   6.560   7.206  0.7070  0.6258  0.2878
   79MOL   H11343949   1.403   6.705   7.042 -0.6160  0.1073  0.1005
   79MOL   O11443950   1.688   6.367   7.253  0.3928  0.1091 -0.3091
   79MOL   C11543951   1.737   6.274   7.348 -1.0176  0.2300  0.0697
   79MOL   C11643952   1.762   6.332   7.484 -0.0356 -0.4979 -0.2547
   79MOL   C11743953   1.641   6.382   7.567 -0.3364  0.1211  0.1535
   79MOL   C11843954   1.524   6.292   7.586 -0.7757 -0.0722  0.1164
   79MOL   O11943955   1.578   6.171   7.637 -0.2502 -0.7363 -0.5264
   79MOL   C12043956   1.603   6.161   7.768 -0.3572 -0.7015  0.7766
   79MOL   O12143957   1.586   6.247   7.848  0.5090 -0.5418 -0.8487
   79MOL   C12243958   1.679   6.036   7.793  0.4104 -0.7830 -0.5585
   79MOL   C12343959   1.722   6.011   7.929 -0.4886  0.5299  0.0082
   79MOL   C12443960   1.799   5.900   7.954 -0.1939 -0.0058 -0.0531
   79MOL   C12543961   1.823   5.804   7.855 -0.0450 -0.8227 -0.0405
   79MOL   C12643962   1.927   5.702   7.882 -0.5041 -0.0854 -0.7431
   79MOL   O12743963   2.011   5.714   7.971  0.0782  0.1958 -0.5963
   79MOL   C12843964   1.765   5.818   7.724  0.3970 -0.3738 -0.0063
   79MOL   C12943965   1.698   5.940   7.696 -0.0514  0.3221  0.1877
   79MOL   H13043966   1.666   6.191   7.349  1.6625 -2.1527  3.5642
   79MOL   H13143967   1.830   6.230   7.313 -0.0978  1.7020  0.6665
   79MOL   H13243968   1.845   6.403   7.476  0.6359 -1.0806  1.1550
   79MOL   H13343969   1.809   6.255   7.546  2.4015  0.7192 -0.5092
   79MOL   H13443970   1.681   6.405   7.666 -0.8966  0.8950  0.2024
   79MOL   H13543971   1.595   6.473   7.528  2.9639  0.8829 -2.1821
   79MOL   H13643972   1.449   6.326   7.657  0.2665 -0.8202  1.5951
   79MOL   H13743973   1.489   6.258   7.489  1.8603 -1.8420 -0.2806
   79MOL   H13843974   1.706   6.084   8.007 -0.4781 -0.1286  0.6284
   79MOL   H13943975   1.852   5.891   8.047  0.6586  0.3494 -0.5002
   79MOL   H14043976   1.786   5.756   7.638  0.6898 -0.0060 -0.2007
   79MOL   H14143977   1.664   5.955   7.595 -1.9171  1.1795  0.9085
   79MOL   O14243978   1.912   5.599   7.790 -0.1896 -0.1212 -0.3047
   79MOL   C14343979   2.008   5.498   7.783 -0.1758 -0.5859 -0.2059
   79MOL   C14443980   2.126   5.520   7.684  0.6435  0.1888 -0.4674
   79MOL   C14543981   2.224   5.631   7.735  0.7508 -0.6021 -0.2798
   79MOL   C14643982   2.342   5.631   7.647  0.4153 -0.0282 -0.8394
   79MOL   O14743983   2.429   5.735   7.672 -0.6795  0.4230 -0.5679
   79MOL   C14843984   2.549   5.729   7.624  0.5086  0.0839  0.5530
   79MOL   O14943985   2.580   5.641   7.547  0.3011  0.2903  0.2065
   79MOL   C15043986   2.640   5.834   7.661  0.5073  0.4729  0.1553
   79MOL   C15143987   2.599   5.948   7.736 -0.4668 -1.1581  0.1871
   79MOL   C15243988   2.692   6.059   7.757  0.6425  0.2584  0.3552
   79MOL   C15343989   2.834   6.045   7.736 -0.2821 -0.1768 -0.3464
   79MOL   C15443990   2.935   6.147   7.785 -0.0305  0.2221  0.2053
   79MOL   O15543991   2.917   6.270   7.796 -0.3412 -0.3456 -0.1425
   79MOL   C15643992   2.870   5.927   7.659  0.3695  0.2652 -0.6414
   79MOL   C15743993   2.776   5.830   7.625 -1.0284 -1.0525 -0.2678
   79MOL   H15843994   2.042   5.466   7.881 -3.3558  0.0262  1.1463
   79MOL   H15943995   1.935   5.422   7.755 -1.2029  0.4524 -0.4062
   79MOL   H16043996   2.085   5.533   7.584 -0.2805 -0.7894 -0.2314
   79MOL   H16143997   2.171   5.421   7.672  0.9115  0.1943  0.4647
   79MOL   H16243998   2.172   5.723   7.710  0.3849 -1.6629 -3.5702
   79MOL   H16343999   2.242   5.630   7.843  1.6250  0.0371 -0.4114
   79MOL   H16444000   2.395   5.537   7.665 -1.8875 -1.0671  0.9334
   79MOL   H16544001   2.311   5.641   7.543 -1.9160  2.2733  0.0287
   79MOL   H16644002   2.497   5.950   7.769 -0.1445  0.2718  1.1331
   79MOL   H16744003   2.644   6.146   7.801 -0.4117 -0.6735  1.0571
   79MOL   H16844004   2.969   5.905   7.621  0.9015 -1.3305  1.5428
   79MOL   H16944005   2.821   5.743   7.579 -1.5044 -0.5685 -1.6631
   79MOL   O17044006   3.045   6.083   7.821 -0.0368  0.7070 -0.3080
   79MOL   C17144007   3.162   6.149   7.876 -0.4050 -0.5124 -0.7887
   79MOL   C17244008   3.159   6.142   8.026  0.6422  0.3446 -1.1326
   79MOL   C17344009   3.279   6.194   0.006  0.4272 -0.5611  0.1772
   79MOL   C17444010   3.252   6.169   0.160 -0.5729 -0.7655  0.1516
   79MOL   O17544011   3.372   6.216   0.229  0.2603 -0.3105  0.2694
   79MOL   C17644012   3.386   6.196   0.365  0.5979  0.3706 -0.5364
   79MOL   O17744013   3.297   6.151   0.440 -0.5118  0.3103 -0.6162
   79MOL   C17844014   3.511   6.254   0.411  0.0200 -0.1319 -0.2801
   79MOL   C17944015   3.608   6.303   0.321 -0.1996  0.7210  0.6153
   79MOL   C18044016   3.737   6.343   0.362 -0.0463  1.0671 -0.3134
   79MOL   C18144017   3.767   6.348   0.502 -0.3331  0.7343  0.8603
   79MOL   C18244018   3.889   6.415   0.556  0.2709  0.1840  0.1929
   79MOL   O18344019   3.905   6.430   0.677 -0.8227 -0.0986  0.2137
   79MOL   C18444020   3.672   6.300   0.594 -0.5879 -0.0590 -0.6958
   79MOL   C18544021   3.545   6.261   0.551  0.2461  0.2660  0.1891
   79MOL   H18644022   3.249   6.098   7.833  1.6616  2.0904  0.1275
   79MOL   H18744023   3.178   6.253   7.849  0.5044 -0.0944  1.2798
   79MOL   H18844024   3.151   6.038   8.057 -1.4502  1.0368  0.7485
   79MOL   H18944025   3.073   6.202   8.057 -0.1727 -1.7612  0.7981
   79MOL   H19044026   3.378   6.152   8.088  1.3557  1.2932  1.0227
   79MOL   H19144027   3.298   6.298   8.080  0.4338 -0.2919  1.3262
   79MOL   H19244028   3.164   6.220   0.199  0.4957  0.2051  1.3173
   79MOL   H19344029   3.248   6.062   0.180  4.0572 -1.4179 -1.8805
   79MOL   H19444030   3.595   6.302   0.214  0.9380  0.7053  0.4656
   79MOL   H19544031   3.803   6.376   0.284  0.4460  0.6265 -0.0926
   79MOL   H19644032   3.710   6.297   0.695  4.5847  1.6185 -2.4035
   79MOL   H19744033   3.475   6.224   0.625 -0.8454  2.6242  0.3733
   79MOL   O19844034   3.977   6.453   0.467  0.5766  0.0873  0.3543
   79MOL   C19944035   4.100   6.507   0.505 -0.3572 -0.5429  0.4296
   79MOL   C20044036   4.180   6.515   0.371  0.3816  0.1441  0.7760
   79MOL   C20144037   4.319   6.578   0.380 -0.1301 -0.2550 -0.4679
   79MOL   C20244038   4.316   6.732   0.386  1.1108  0.0375 -0.1456
   79MOL   O20344039   4.256   6.781   0.503  0.4857 -0.1485 -0.0615
   79MOL   C20444040   4.330   6.819   0.610 -0.4232 -0.1688 -0.6316
   79MOL   O20544041   4.453   6.831   0.610 -0.2397 -0.3234 -0.5213
   79MOL   C20644042   4.248   6.855   0.731  0.0022 -0.1770 -0.0601
   79MOL   C20744043   4.112   6.862   0.727 -0.6084  0.3218  0.1509
   79MOL   C20844044   4.041   6.881   0.843 -0.0522 -0.5159 -0.6293
   79MOL   C20944045   4.100   6.902   0.971 -0.4163  0.2375 -0.7256
   79MOL   C21044046   4.024   6.941   1.090 -0.4833 -1.1290 -0.1461
   79MOL   O21144047   4.075   6.963   1.201  0.3112  0.6498  0.3443
   79MOL   C21244048   4.241   6.906   0.973 -0.4209  0.3450  0.4627
   79MOL   C21344049   4.313   6.882   0.855  0.2475 -0.2553 -0.0095
   79MOL   H21444050   4.084   6.605   0.549 -1.6709 -0.4826 -0.1531
   79MOL   H21544051   4.147   6.435   0.571 -0.4694 -0.6987  0.3407
   79MOL   H21644052   4.121   6.575   0.302 -1.6459 -3.2567 -0.6168
   79MOL   H21744053   4.187   6.418   0.320  0.1044  0.4762  0.0884
   79MOL   H21844054   4.381   6.544   0.463 -2.3123 -1.1486  0.8471
   79MOL   H21944055   4.374   6.548   0.291 -1.6997  0.9866 -1.8907
   79MOL   H22044056   4.419   6.766   0.373  2.2659 -2.7090  1.4821
   79MOL   H22144057   4.259   6.771   0.301  2.0061  0.4722 -0.5523
   79MOL   H22244058   4.055   6.842   0.637  1.7812  1.6034 -1.7050
   79MOL   H22344059   3.934   6.886   0.829 -0.3174 -1.9639  0.6937
   79MOL   H22444060   4.300   6.897   1.063 -1.1372  1.1095  1.0081
   79MOL   H22544061   4.419   6.860   0.856  0.7225  1.8125 -1.4855
   79MOL   O22644062   3.891   6.960   1.058  0.1255  0.3178 -0.1010
   79MOL   C22744063   3.796   7.022   1.144 -0.0800 -0.0364  0.7153
   79MOL   C22844064   3.823   7.171   1.152 -0.4119  0.3454 -0.5353
   79MOL   C22944065   3.834   7.227   1.294 -0.1979  0.3972 -0.5159
   79MOL   C23044066   3.820   7.376   1.312 -0.3459  0.5019 -0.1578
   79MOL   O23144067   3.839   7.422   1.440  1.1687  0.1416  0.0414
   79MOL   C23244068   3.770   7.524   1.485 -0.2128 -0.1879  0.3214
   79MOL   O23344069   3.698   7.587   1.407 -0.0111  0.7116 -0.3129
   79MOL   C23444070   3.771   7.539   1.637  0.2507  0.2144 -0.7096
   79MOL   C23544071   3.665   7.613   1.698 -0.8425  0.6905 -0.1943
   79MOL   C23644072   3.649   7.609   1.839  0.2351  0.0490 -0.0593
   79MOL   C23744073   3.749   7.546   1.917  0.0208  0.0696 -0.4866
   79MOL   C23844074   3.746   7.568   2.066  0.1057 -0.2080 -0.1923
   79MOL   O23944075   3.642   7.575   2.128 -0.0178 -0.0872 -0.4639
   79MOL   C24044076   3.861   7.481   1.855 -0.8780 -0.2416  1.0240
   79MOL   C24144077   3.863   7.469   1.715 -0.1511 -1.0091  0.4402
   79MOL   H24244078   3.696   7.013   1.103  0.5493  1.5023 -1.2431
   79MOL   H24344079   3.786   6.976   1.242 -0.1117  1.6214  1.5170
   79MOL   H24444080   3.738   7.223   1.108 -0.6688  0.3111 -0.0881
   79MOL   H24544081   3.911   7.210   1.100 -0.9250  0.4672 -1.3246
   79MOL   H24644082   3.764   7.186   1.367  0.8701  0.2004  0.4120
   79MOL   H24744083   3.930   7.188   1.327 -0.9033 -2.3172 -1.5314
   79MOL   H24844084   3.887   7.423   1.239  1.3260  0.2060  1.1586
   79MOL   H24944085   3.726   7.415   1.273  0.2506  1.9405 -0.2183
   79MOL   H25044086   3.591   7.660   1.635  0.5477  1.1655 -1.4657
   79MOL   H25144087   3.573   7.661   1.895  1.9517  0.4174  2.0304
   79MOL   H25244088   3.936   7.430   1.914  0.9355  0.2404 -0.8311
   79MOL   H25344089   3.946   7.416   1.671  0.0331 -2.3651  2.3708
   79MOL   O25444090   3.862   7.553   2.122 -0.0561  0.5014 -0.2894
   79MOL   C25544091   3.878   7.551   2.262 -0.6250 -0.3956  0.6108
   79MOL   C25644092   3.892   7.410   2.312 -0.0466 -0.7324  0.2977
   79MOL   C25744093   3.926   7.405   2.465  0.2234 -0.0344 -0.7380
   79MOL   C25844094   3.944   7.256   2.514 -0.2033 -0.3770  0.4165
   79MOL   O25944095   4.026   7.192   2.423 -0.0037 -0.1749 -0.0267
   79MOL   C26044096   4.077   7.075   2.450 -0.1308  0.1720 -0.0755
   79MOL   O26144097   4.111   7.032   2.559  0.5783 -0.6638 -0.4106
   79MOL   C26244098   4.113   7.004   2.320  0.1829  0.1411  0.0486
   79MOL   C26344099   4.089   7.061   2.194  0.1304 -0.0268 -0.0467
   79MOL   C26444100   4.113   6.982   2.080 -0.5400 -0.3560 -0.8979
   79MOL   C26544101   4.175   6.852   2.084 -0.2576 -0.5010 -0.6802
   79MOL   C26644102   4.186   6.772   1.959  0.5392 -0.3711  0.4616
   79MOL   O26744103   4.138   6.813   1.853 -0.3071 -0.6583 -0.6676
   79MOL   C26844104   4.215   6.807   2.210  0.2789  0.0258 -0.1852
   79MOL   C26944105   4.182   6.878   2.325  0.9256  0.1777 -0.0664
   79MOL   H27044106   3.972   7.599   2.285 -1.5486  2.0956 -0.6070
   79MOL   H27144107   3.799   7.605   2.314  0.6503 -0.6012  2.7972
   79MOL   H27244108   3.967   7.354   2.257  0.4848  1.0734 -0.8855
   79MOL   H27344109   3.799   7.357   2.292 -0.2958 -0.2134  0.0535
   79MOL   H27444110   4.003   7.475   2.495  0.1116  0.0779 -0.7160
   79MOL   H27544111   3.839   7.436   2.523  0.2911  0.8749 -1.1175
   79MOL   H27644112   3.994   7.253   2.611  0.0852  2.2635  0.3821
   79MOL   H27744113   3.848   7.206   2.528 -1.3786  2.0225  1.1087
   79MOL   H27844114   4.037   7.154   2.178  2.8463  1.5222 -0.0113
   79MOL   H27944115   4.069   7.026   1.991 -0.5080  2.3453  0.3972
   79MOL   H28044116   4.259   6.709   2.213 -0.3931 -0.2672  0.0954
   79MOL   H28144117   4.198   6.839   2.425 -0.1712  2.4628  1.0195
   79MOL   O28244118   4.247   6.656   1.978 -0.3579  0.5851  0.0866
   79MOL   C28344119   4.259   6.564   1.869  0.5138  0.1192  0.5208
   79MOL   C28444120   4.396   6.494   1.862  0.1928 -0.1710 -0.3770
   79MOL   C28544121   4.410   6.414   1.727 -0.9068  0.0579 -0.1407
   79MOL   C28644122   4.326   6.282   1.721  0.7759 -0.1073  0.0565
   79MOL   O28744123   4.366   6.182   1.811  0.4139  0.6753 -0.2203
   79MOL   C28844124   4.287   6.071   1.842  0.4945 -0.2740 -0.0057
   79MOL   O28944125   4.171   6.059   1.807 -0.2232  0.8236 -0.7082
   79MOL   C29044126   4.358   5.973   1.933  1.0654 -0.5274 -0.3790
   79MOL   C29144127   4.491   5.977   1.969  0.2791 -1.1081  0.2147
   79MOL   C29244128   4.538   5.897   2.069 -0.5354 -0.5493  0.5573
   79MOL   C29344129   4.464   5.794   2.134  0.3246 -0.1271 -0.0768
   79MOL   C29444130   4.515   5.708   2.241  0.5212  0.2438  0.5934
   79MOL   O29544131   4.620   5.737   2.297 -0.0868  0.8929  0.2851
   79MOL   C29644132   4.327   5.787   2.091 -0.2689 -0.0545 -0.1062
   79MOL   C29744133   4.278   5.877   1.999  0.9157  0.1532  0.3899
   79MOL   H29844134   4.185   6.484   1.880 -0.2690  0.3897 -2.4309
   79MOL   H29944135   4.241   6.621   1.778 -1.2969  0.0277  0.7929
   79MOL   H30044136   4.414   6.422   1.941 -2.1764 -0.9614 -0.5230
   79MOL   H30144137   4.474   6.571   1.859  0.5496 -0.5481 -0.9718
   79MOL   H30244138   4.405   6.472   1.634  2.1551 -0.6007 -0.7727
   79MOL   H30344139   4.512   6.376   1.724 -0.9812 -0.3281  1.8531
   79MOL   H30444140   4.229   6.321   1.752  1.0898  0.5369  0.2245
   79MOL   H30544141   4.317   6.252   1.616  1.7894 -1.7248  0.4145
   79MOL   H30644142   4.558   6.052   1.930 -0.8276  0.7237  1.7435
   79MOL   H30744143   4.641   5.906   2.097  0.3627 -1.5195 -2.2133
   79MOL   H30844144   4.253   5.723   2.138 -1.4862  0.7401 -0.9102
   79MOL   H30944145   4.172   5.874   1.978  1.0550 -3.7527 -0.1537
   79MOL   O31044146   4.437   5.599   2.265 -0.2687  0.5475 -0.6446
   79MOL   C31144147   4.460   5.522   2.381  0.0741 -0.1849  0.4752
   79MOL   C31244148   4.339   5.449   2.440 -0.4646 -0.6375  0.4017
   79MOL   C31344149   4.276   5.357   2.335 -0.5719  0.4501 -0.3558
   79MOL   C31444150   4.143   5.289   2.383 -0.3108 -0.3704  0.8753
   79MOL   O31544151   4.121   5.177   2.295  0.8455 -0.2763  0.1636
   79MOL   C31644152   3.995   5.127   2.283  0.2977  0.4424  0.4555
   79MOL   O31744153   3.897   5.155   2.352 -0.3509 -0.1008  0.7997
   79MOL   C31844154   3.987   5.014   2.179  0.5633 -0.0378 -0.3824
   79MOL   C31944155   3.867   4.988   2.111  0.5707  0.0319 -0.6555
   79MOL   C32044156   3.859   4.903   2.000 -0.4692 -0.2100  0.4261
   79MOL   C32144157   3.981   4.849   1.947  0.0600 -0.0968  0.0554
   79MOL   C32244158   3.977   4.772   1.818  0.8545  0.1345 -0.1134
   79MOL   O32344159   3.877   4.720   1.771  0.1375 -0.2708  0.1223
   79MOL   C32444160   4.104   4.874   2.017  0.5647  0.9132  0.1117
   79MOL   C32544161   4.105   4.947   2.138 -0.0304 -0.0615  0.2272
   79MOL   H32644162   4.534   5.447   2.352  2.5884  2.7635 -1.0997
   79MOL   H32744163   4.501   5.593   2.453 -0.1707  0.7805 -0.3206
   79MOL   H32844164   4.269   5.529   2.467  0.9427  1.0602 -0.9093
   79MOL   H32944165   4.370   5.404   2.534  4.2361  2.0055  0.2494
   79MOL   H33044166   4.245   5.414   2.247  0.9136 -0.2303 -1.3524
   79MOL   H33144167   4.352   5.280   2.322 -0.0369  1.2327 -2.0290
   79MOL   H33244168   4.145   5.253   2.486  1.5516  0.1296  1.0396
   79MOL   H33344169   4.058   5.355   2.370 -0.8732 -1.2090  0.1503
   79MOL   H33444170   3.788   5.049   2.151  0.5808 -1.2225  1.3844
   79MOL   H33544171   3.768   4.897   1.942 -1.0959  0.6807  1.2835
   79MOL   H33644172   4.193   4.838   1.967  1.1999  3.6056 -0.8092
   79MOL   H33744173   4.203   4.955   2.183  0.2414 -2.3173  0.1168
   79MOL   O33844174   4.098   4.764   1.759  0.2694 -0.0529 -0.1395
   79MOL   C33944175   4.114   4.695   1.635  0.4561  0.0376  0.2122
   79MOL   C34044176   4.050   4.780   1.523  0.0620  0.4312 -0.5654
   79MOL   C34144177   4.146   4.878   1.467  0.5019  0.0330 -0.6797
   79MOL   C34244178   4.249   4.818   1.377  0.1566 -0.6880  0.7747
   79MOL   O34344179   4.330   4.919   1.325  0.1140 -0.0382 -0.5612
   79MOL   C34444180   4.463   4.922   1.350  0.3618 -0.1434  0.0262
   79MOL   O34544181   4.515   4.853   1.431 -0.1787  0.2302 -0.2066
   79MOL   C34644182   4.530   5.035   1.278 -0.7271 -0.3201  0.2211
   79MOL   C34744183   4.477   5.079   1.157 -0.3507  0.1086 -0.2660
   79MOL   C34844184   4.544   5.172   1.070 -0.8220 -0.3845 -0.0230
   79MOL   C34944185   4.666   5.229   1.114  0.4458  0.2058 -0.3215
   79MOL   C35044186   4.748   5.340   1.052 -0.1137  0.6672 -0.0132
   79MOL   O35144187   4.832   5.404   1.110  0.0743  0.3228  0.3400
   79MOL   C35244188   4.718   5.182   1.241  0.3375  0.2495 -0.1012
   79MOL   C35344189   4.650   5.084   1.322 -0.5670 -0.2370 -0.4121
   79MOL   H35444190   4.221   4.678   1.628  0.5347  0.5741  0.0468
   79MOL   H35544191   4.066   4.598   1.640 -1.9857  1.1787 -0.5072
   79MOL   H35644192   3.955   4.825   1.553 -0.1437  0.1650 -0.8090
   79MOL   H35744193   4.022   4.716   1.440 -0.6015  0.8086 -0.6405
   79MOL   H35844194   4.084   4.939   1.402 -0.0223 -0.2181 -0.4105
   79MOL   H35944195   4.192   4.942   1.543 -0.0426 -2.1431  1.5416
   79MOL   H36044196   4.314   4.752   1.434  1.4036  1.1562  1.5596
   79MOL   H36144197   4.209   4.757   1.296 -0.2784  1.6909 -0.8717
   79MOL   H36244198   4.394   5.025   1.114  0.6232 -1.2818 -0.4125
   79MOL   H36344199   4.496   5.211   0.982  1.8922  1.5997 -0.6692
   79MOL   H36444200   4.810   5.221   1.283  0.1314  0.5660  0.0558
   79MOL   H36544201   4.693   5.047   1.414 -1.4608 -0.1201  0.0605
   79MOL   O36644202   4.712   5.366   0.924 -0.4840 -0.1729  0.3306
   79MOL   C36744203   4.801   5.441   0.838  0.7226 -0.0288 -0.4254
   79MOL   C36844204   4.724   5.571   0.814 -0.7402  1.1098  0.0686
   79MOL   C36944205   4.633   5.560   0.693 -0.1268  0.1012 -0.0906
   79MOL   C37044206   4.584   5.696   0.653  0.0032  0.2799 -0.0668
   79MOL   O37144207   4.459   5.684   0.579 -0.1273  0.1383 -0.3783
   79MOL   C37244208   4.457   5.670   0.446  0.3074 -0.4490 -0.0997
   79MOL   O37344209   4.549   5.670   0.370  0.0051  0.2589  0.5472
   79MOL   C37444210   4.323   5.648   0.391  1.1428  0.1907  0.1584
   79MOL   C37544211   4.207   5.672   0.473  0.4257  0.2154 -0.2031
   79MOL   C37644212   4.077   5.653   0.421  0.7958  0.1966 -0.6931
   79MOL   C37744213   4.063   5.608   0.287 -0.2634  0.3688  0.4340
   79MOL   C37844214   3.929   5.574   0.235  0.1578  0.1342  0.0241
   79MOL   O37944215   3.907   5.533   0.117  0.1479 -0.3267  0.5917
   79MOL   C38044216   4.176   5.583   0.205 -0.2604  0.1773  0.4787
   79MOL   C38144217   4.305   5.603   0.257 -0.6538 -0.2811  0.2710
   79MOL   H38244218   4.892   5.467   0.892 -1.4214 -1.6364  4.1348
   79MOL   H38344219   4.827   5.386   0.747  1.6856  1.0231 -0.8013
   79MOL   H38444220   4.802   5.644   0.794  2.2833 -1.0871  3.2278
   79MOL   H38544221   4.672   5.608   0.902 -3.7487 -0.0912 -1.1300
   79MOL   H38644222   4.675   5.515   0.603 -0.9483  1.0315 -0.9600
   79MOL   H38744223   4.560   5.490   0.734 -0.2051 -0.5916 -1.3921
   79MOL   H38844224   4.543   5.744   0.742  0.0343 -1.1629  0.7388
   79MOL   H38944225   4.664   5.759   0.616  0.2095 -0.4031 -0.7952
   79MOL   H39044226   4.232   5.697   0.575 -1.0116 -0.3701  0.3092
   79MOL   H39144227   3.991   5.682   0.480 -0.2587  2.3454 -3.1543
   79MOL   H39244228   4.167   5.545   0.104  0.8091 -0.7602  0.7226
   79MOL   H39344229   4.396   5.577   0.204  0.0642  2.8966 -0.1846
   79MOL   O39444230   3.830   5.582   0.322 -0.2602  0.9127 -0.0197
   79MOL   C39544231   3.698   5.558   0.283  0.9958  0.6218 -0.0089
   79MOL   C39644232   3.626   5.534   0.415  0.1885 -0.4977 -0.3916
   79MOL   C39744233   3.487   5.489   0.384 -0.4275 -0.8603 -0.1981
   79MOL   C39844234   3.400   5.469   0.504 -0.3723  0.5729  0.2947
   79MOL   O39944235   3.445   5.358   0.576  0.2991 -0.3691  0.2062
   79MOL   C40044236   3.414   5.227   0.534  0.3673  0.1569  0.1959
   79MOL   O40144237   3.344   5.207   0.433  0.7384 -0.0753 -0.4891
   79MOL   C40244238   3.468   5.119   0.618  0.4537 -0.1806 -0.8686
   79MOL   C40344239   3.419   4.987   0.624  0.2847 -1.2816 -0.1839
   79MOL   C40444240   3.461   4.898   0.726 -0.1595  1.0213 -0.5561
   79MOL   C40544241   3.568   4.940   0.808  0.4647  0.4868  0.5128
   79MOL   C40644242   3.606   4.857   0.923 -0.8629  0.9583 -0.1934
   79MOL   O40744243   3.548   4.754   0.960  0.2710  0.4377  0.1663
   79MOL   C40844244   3.632   5.062   0.779 -0.0531 -0.3945  0.7736
   79MOL   C40944245   3.577   5.159   0.692  0.4475  0.7480  0.5311
   79MOL   H41044246   3.659   5.643   0.229 -0.3970  0.9057  1.4075
   79MOL   H41144247   3.683   5.472   0.218 -0.7411 -0.0707  1.2540
   79MOL   H41244248   3.619   5.628   0.469  1.0963 -0.8468  0.3389
   79MOL   H41344249   3.671   5.459   0.480 -0.5715 -1.4786 -0.9655
   79MOL   H41444250   3.438   5.567   0.325  0.7867  0.3687  0.3890
   79MOL   H41544251   3.498   5.402   0.319 -0.2389 -1.4810  0.6648
   79MOL   H41644252   3.391   5.555   0.570  1.0156  0.0907  1.1378
   79MOL   H41744253   3.293   5.459   0.485 -0.0374  0.3635 -1.5752
   79MOL   H41844254   3.346   4.957   0.551  0.5747  0.1164 -1.0808
   79MOL   H41944255   3.415   4.801   0.733  0.9512  0.4714 -0.8346
   79MOL   H42044256   3.722   5.088   0.832 -0.2796  1.9357  0.0816
   79MOL   H42144257   3.632   5.252   0.690  1.9113 -0.1165 -0.3817
   79MOL   O42244258   3.721   4.902   0.977  0.5029  0.3489 -0.1942
   79MOL   C42344259   3.756   4.860   1.108 -0.3301  0.0167  0.7659
   79MOL   C42444260   3.854   4.949   1.172  0.1880  0.2172  0.4649
   79MOL   C42544261   3.794   5.078   1.222  0.0196  0.4090 -0.1454
   79MOL   C42644262   3.716   5.157   1.120 -0.3545  0.5555 -0.7326
   79MOL   O42744263   3.696   5.281   1.178 -0.4873 -0.1574 -0.1121
   79MOL   C42844264   3.638   5.378   1.099 -0.3091 -0.2332 -0.0292
   79MOL   O42944265   3.594   5.352   0.986 -0.5216  0.2883  0.1795
   79MOL   C43044266   3.628   5.510   1.159  0.0950  0.0059 -0.0696
   79MOL   C43144267   3.686   5.540   1.289  0.2742  0.8883  0.3075
   79MOL   C43244268   3.676   5.668   1.347  0.1884 -0.4880 -0.3280
   79MOL   C43344269   3.605   5.773   1.276  1.1256  0.0862  0.6466
   79MOL   C43444270   3.585   5.915   1.332 -0.6041 -0.3855  0.5729
   79MOL   O43544271   3.507   6.000   1.286  0.0483 -0.2320  0.6116
   79MOL   C43644272   3.560   5.741   1.147 -0.3194  0.2396  0.2078
   79MOL   C43744273   3.564   5.613   1.092 -0.5130 -0.7996  0.8340
   79MOL   H43844274   3.673   4.838   1.174 -0.3232 -0.2387  0.6888
   79MOL   H43944275   3.810   4.765   1.107 -0.7905 -0.2499  1.3635
   79MOL   H44044276   3.941   4.971   1.110 -0.4755 -1.8811 -1.2400
   79MOL   H44144277   3.886   4.892   1.259 -0.8120 -0.9644  0.0634
   79MOL   H44244278   3.735   5.059   1.311 -0.3251 -1.6865 -0.7956
   79MOL   H44344279   3.881   5.133   1.260  0.1846 -0.1451  0.2867
   79MOL   H44444280   3.780   5.148   1.032 -0.4112 -0.5062 -0.6770
   79MOL   H44544281   3.618   5.115   1.095  0.2239 -0.1247 -1.8994
   79MOL   H44644282   3.743   5.459   1.332  1.4960  1.2518 -0.5776
   79MOL   H44744283   3.725   5.689   1.441  0.2520  0.0778 -0.4850
   79MOL   H44844284   3.513   5.813   1.081 -0.5321  2.3704  2.6057
   79MOL   H44944285   3.522   5.586   0.996  0.4326  0.5419  0.0344
   79MOL   O45044286   3.665   5.936   1.436  0.4539 -0.1078 -0.7871
   79MOL   C45144287   3.674   6.063   1.501  0.6216 -0.3591  0.0654
   79MOL   C45244288   3.803   6.079   1.571 -0.2041 -0.4098  0.1479
   79MOL   C45344289   3.827   6.224   1.613  0.5358  0.2586  0.1638
   79MOL   C45444290   3.974   6.240   1.670 -0.4373 -0.3851 -0.4097
   79MOL   O45544291   4.000   6.379   1.680 -0.1229 -0.2900 -0.1887
   79MOL   C45644292   4.044   6.441   1.573 -0.5590 -0.1954  0.0464
   79MOL   O45744293   4.108   6.393   1.481  0.0835  0.8776  0.5559
   79MOL   C45844294   4.012   6.584   1.577 -0.2172 -0.3819 -0.8515
   79MOL   C45944295   4.069   6.686   1.501  0.8260  0.8019 -0.1974
   79MOL   C46044296   4.024   6.817   1.502  0.4018  0.2291  0.0473
   79MOL   C46144297   3.917   6.856   1.590  0.9929 -0.0163  0.8139
   79MOL   C46244298   3.867   6.993   1.600  0.4198 -0.0976 -0.4464
   79MOL   O46344299   3.935   7.094   1.567 -0.1947  0.0991 -0.7678
   79MOL   C46444300   3.854   6.752   1.670  0.4501 -0.1248 -0.2387
   79MOL   C46544301   3.903   6.620   1.662 -0.2913  0.0773 -0.1561
   79MOL   H46644302   3.675   6.147   1.431  3.7776 -0.7933 -0.4781
   79MOL   H46744303   3.592   6.079   1.571 -2.6703 -0.8666 -3.4978
   79MOL   H46844304   3.881   6.044   1.504 -0.6769 -1.5295  0.1704
   79MOL   H46944305   3.806   6.016   1.660  0.8842  1.2192  1.2802
   79MOL   H47044306   3.810   6.290   1.528 -1.2653 -1.1514 -0.6200
   79MOL   H47144307   3.757   6.243   1.695  0.1293  0.6370 -0.2643
   79MOL   H47244308   3.985   6.194   1.769  1.2152 -0.1657 -0.4834
   79MOL   H47344309   4.044   6.179   1.613 -1.6174 -1.1524 -1.0592
   79MOL   H47444310   4.146   6.669   1.427  1.3134  2.0415  0.0107
   79MOL   H47544311   4.079   6.887   1.442  0.2426 -0.5022 -0.9516
   79MOL   H47644312   3.770   6.772   1.735  2.1238  3.2925  1.0470
   79MOL   H47744313   3.838   6.543   1.703  1.8948  0.0306  3.4516
   79MOL   O47844314   3.742   7.006   1.654  0.9817  0.7322 -0.0278
   79MOL   C47944315   3.692   7.132   1.693  0.4426 -0.2437 -0.4011
   79MOL   C48044316   3.689   7.134   1.842 -0.5459  0.2839 -0.2934
   79MOL   C48144317   3.567   7.057   1.896 -0.7451 -0.6473 -0.0306
   79MOL   C48244318   3.585   7.021   2.043  1.0980 -0.4879 -1.0754
   79MOL   O48344319   3.681   6.917   2.059  0.1603  0.5478 -0.3049
   79MOL   C48444320   3.755   6.899   2.167  0.3925 -0.2297 -0.3770
   79MOL   O48544321   3.762   6.985   2.259  0.4627  0.8357 -0.3292
   79MOL   C48644322   3.826   6.764   2.158 -0.0663  0.1368  0.6725
   79MOL   C48744323   3.896   6.716   2.278 -0.4721 -0.1248  0.5013
   79MOL   C48844324   3.963   6.592   2.277  0.2206 -0.1277 -0.3666
   79MOL   C48944325   3.967   6.510   2.159 -0.1114  0.3035  0.4848
   79MOL   C49044326   4.064   6.391   2.153  0.0153 -0.4335  0.3959
   79MOL   O49144327   4.072   6.313   2.059  0.2397  0.2125  0.0362
   79MOL   C49244328   3.886   6.550   2.051 -0.4383 -0.5437  0.3529
   79MOL   C49344329   3.824   6.679   2.045  0.1264 -0.1780  0.9559
   79MOL   H49444330   3.756   7.209   1.649  1.7678 -2.0341 -1.6447
   79MOL   H49544331   3.589   7.139   1.658 -0.9375  0.4424  3.5305
   79MOL   H49644332   3.702   7.235   1.879 -0.6155  0.6622 -1.2903
   79MOL   H49744333   3.782   7.086   1.874 -0.8977 -0.5331 -0.4628
   79MOL   H49844334   3.483   7.126   1.890  0.7642  1.3959  1.2442
   79MOL   H49944335   3.548   6.971   1.832 -2.4887 -0.2545 -0.0662
   79MOL   H50044336   3.611   7.110   2.100  0.0692  0.1038 -1.5283
   79MOL   H50144337   3.495   6.980   2.090  1.6435 -2.2863 -1.5381
   79MOL   H50244338   3.906   6.784   2.361 -4.1438  1.5356 -0.3308
   79MOL   H50344339   4.031   6.574   2.359  0.3668  0.5388 -0.3395
   79MOL   H50444340   3.901   6.497   1.958  0.5884  0.3361  0.0074
   79MOL   H50544341   3.781   6.697   1.948  2.1869 -0.9594 -0.1139
   79MOL   O50644342   4.133   6.377   2.263 -0.0121 -0.2901 -0.0601
   79MOL   C50744343   4.228   6.269   2.270  0.2304  0.0569 -0.8185
   79MOL   C50844344   4.352   6.315   2.213 -0.2747 -0.2309  0.2120
   79MOL   C50944345   4.479   6.223   2.233 -0.4151  0.1011 -0.2473
   79MOL   C51044346   4.505   6.164   2.380  0.3739 -0.4636 -0.2447
   79MOL   O51144347   4.639   6.112   2.378  0.1922  0.2722  0.3348
   79MOL   C51244348   4.700   6.093   2.494  0.5890 -0.5360 -0.4901
   79MOL   O51344349   4.648   6.091   2.604 -0.7032  0.2191  0.1090
   79MOL   C51444350   4.845   6.053   2.469 -0.0681 -0.1128 -0.1176
   79MOL   C51544351   4.937   6.053   2.580 -0.5833  0.6890 -0.1864
   79MOL   C51644352   5.071   6.005   2.562  0.9994  0.4119 -0.4930
   79MOL   C51744353   5.112   5.962   2.441  0.3063 -0.1026  0.1782
   79MOL   C51844354   5.250   5.904   2.424 -0.4202  0.0564 -0.7129
   79MOL   O51944355   5.325   5.895   2.521 -0.2074 -0.5508  0.4824
   79MOL   C52044356   5.028   5.961   2.326  0.2149  0.0277 -0.4801
   79MOL   C52144357   4.891   6.010   2.337 -0.2200 -0.4278 -0.1154
   79MOL   H52244358   4.241   6.240   2.374  1.0611  0.1486 -0.8909
   79MOL   H52344359   4.194   6.181   2.215 -1.5338  0.3450 -0.2278
   79MOL   H52444360   4.385   6.412   2.253 -1.9899  0.4238  0.0830
   79MOL   H52544361   4.344   6.322   2.105  0.7494 -2.2828 -0.0132
   79MOL   H52644362   4.456   6.135   2.172 -1.7054  1.6355 -2.0671
   79MOL   H52744363   4.569   6.272   2.197 -1.2323  2.3864  0.6722
   79MOL   H52844364   4.503   6.248   2.449  0.6571 -1.3333  0.8418
   79MOL   H52944365   4.431   6.089   2.407 -1.1266  1.4231  0.9866
   79MOL   H53044366   4.901   6.087   2.676 -0.6897  0.2443 -0.0659
   79MOL   H53144367   5.124   5.990   2.654  1.7097 -0.3133 -1.0087
   79MOL   H53244368   5.055   5.921   2.229  3.0852  0.2366  0.1781
   79MOL   H53344369   4.828   6.008   2.250  0.8318 -2.6096 -0.8509
   79MOL   O53444370   5.286   5.873   2.301 -0.1352  0.0223 -0.0581
   79MOL   C53544371   5.411   5.816   2.278 -0.3212 -0.9411 -0.3125
   79MOL   C53644372   5.433   5.771   2.133  0.1460 -0.2604  0.1071
   79MOL   C53744373   5.328   5.675   2.073  0.2713  0.1490  0.0233
   79MOL   C53844374   5.370   5.589   1.952 -0.3250  0.2799  0.6375
   79MOL   O53944375   5.310   5.643   1.839  0.0214  0.2843 -0.0300
   79MOL   C54044376   5.367   5.740   1.760  0.2013 -0.4676 -0.0277
   79MOL   O54144377   5.489   5.759   1.748  0.0468 -0.9688 -0.2531
   79MOL   C54244378   5.268   5.818   1.686  0.1371 -0.0290 -0.3234
   79MOL   C54344379   5.297   5.930   1.615 -0.0125  0.0115 -0.8055
   79MOL   C54444380   5.206   6.000   1.535 -0.0491 -0.4450  0.4858
   79MOL   C54544381   5.071   5.956   1.529  0.1154 -0.4275  0.5674
   79MOL   C54644382   4.971   6.031   1.452  0.1548  0.1641  0.1540
   79MOL   O54744383   4.849   6.012   1.442  0.6615 -0.1573 -0.1563
   79MOL   C54844384   5.037   5.836   1.592  0.2762  0.3510 -0.6566
   79MOL   C54944385   5.137   5.771   1.671  0.4134  0.1090 -0.5760
   79MOL   H55044386   5.470   5.907   2.283  0.1845 -1.2923  0.1829
   79MOL   H55144387   5.445   5.742   2.350 -1.1343 -1.1112 -0.0921
   79MOL   H55244388   5.533   5.728   2.124  0.4471  0.8028 -1.8433
   79MOL   H55344389   5.440   5.855   2.065  0.1665  0.8201  1.4117
   79MOL   H55444390   5.287   5.608   2.149  0.0275 -1.1640 -1.2444
   79MOL   H55544391   5.254   5.745   2.033 -1.2292 -0.7269  1.2154
   79MOL   H55644392   5.476   5.613   1.956  0.3331 -1.8315 -2.1180
   79MOL   H55744393   5.376   5.480   1.958 -0.2157  0.2833  0.5928
   79MOL   H55844394   5.400   5.962   1.623  0.2650 -0.2979 -2.7688
   79MOL   H55944395   5.235   6.089   1.480  1.0778 -1.1649 -0.1017
   79MOL   H56044396   4.939   5.791   1.579  0.1360  0.6076 -0.5059
   79MOL   H56144397   5.109   5.686   1.731 -0.4737  0.9622  0.2371
   79MOL   H56244398   5.015   6.115   1.399  0.9840  0.3161  1.0755
   80MOL     O144399   3.933   5.581   3.656  0.0869  0.4135 -0.0215
   80MOL     C244400   3.930   5.676   3.550  0.2840  0.1711  0.0538
   80MOL     C344401   3.780   5.701   3.517 -0.2950 -0.8329  0.6074
   80MOL     C444402   3.762   5.809   3.410 -0.6356  0.2928  0.3653
   80MOL     C544403   3.860   5.818   3.286  0.2458 -0.1749  0.6656
   80MOL     O644404   3.986   5.871   3.323 -0.3392  0.3952  0.5543
   80MOL     C744405   4.088   5.884   3.224  0.7427  0.3998  0.7949
   80MOL     O844406   4.068   5.875   3.101  0.2586  0.1817 -0.1823
   80MOL     C944407   4.222   5.908   3.278 -0.0055 -0.3149  0.4725
   80MOL    C1044408   4.331   5.864   3.190  0.3127 -0.2840  0.3097
   80MOL    C1144409   4.463   5.866   3.232 -0.4443 -0.1695  0.0681
   80MOL    C1244410   4.493   5.908   3.360 -0.1082 -0.2365  0.1170
   80MOL    C1344411   4.630   5.900   3.414 -0.6893 -0.3760  0.0377
   80MOL    O1444412   4.667   5.917   3.528  0.5170 -0.2962 -0.3771
   80MOL    C1544413   4.389   5.951   3.448 -0.0056 -0.6887  0.3863
   80MOL    C1644414   4.259   5.952   3.404  0.4317  0.6603  0.0079
   80MOL    H1744415   3.977   5.769   3.579 -1.4651  1.7817 -2.0966
   80MOL    H1844416   3.980   5.636   3.461  0.6008  2.6485 -0.9120
   80MOL    H1944417   3.727   5.752   3.597  0.8323  1.2770  0.0435
   80MOL    H2044418   3.724   5.611   3.493 -0.5568 -0.4935 -0.0981
   80MOL    H2144419   3.662   5.796   3.369  0.1078 -2.9958 -0.5476
   80MOL    H2244420   3.752   5.906   3.458  1.2813 -0.1728  1.7878
   80MOL    H2344421   3.882   5.717   3.250  1.7751  0.7837 -1.1665
   80MOL    H2444422   3.814   5.880   3.209 -0.1757 -0.6169  0.5600
   80MOL    H2544423   4.303   5.821   3.095 -1.1228  1.1324  0.0822
   80MOL    H2644424   4.541   5.829   3.168 -0.6152 -0.7326  0.1843
   80MOL    H2744425   4.413   6.006   3.538 -1.8313  2.5185 -0.9964
   80MOL    H2844426   4.176   5.977   3.468 -0.0758  1.7653 -1.0629
   80MOL    H2944427   4.022   5.551   3.664  0.9315  2.9058  0.5595
   80MOL    O3044428   4.723   5.897   3.312 -0.0303 -0.3055  0.3975
   80MOL    C3144429   4.854   5.939   3.329  0.5451 -0.7832  0.2725
   80MOL    C3244430   4.944   5.823   3.300  0.2234  0.9611 -0.3618
   80MOL    C3344431   4.967   5.714   3.412  0.0574 -0.2102  0.2608
   80MOL    C3444432   5.023   5.771   3.542  0.2199  0.2120  0.0446
   80MOL    O3544433   5.013   5.680   3.645  0.6911  0.3231  0.3496
   80MOL    C3644434   5.060   5.715   3.766  0.6164  0.0039 -0.1110
   80MOL    O3744435   5.108   5.823   3.784  0.0448 -0.0942  0.5450
   80MOL    C3844436   5.026   5.620   3.883  0.1718  0.0978  0.2658
   80MOL    C3944437   5.064   5.653   4.011  0.1632  0.4368 -0.2398
   80MOL    C4044438   5.023   5.568   4.120 -0.0489 -0.8070 -0.2183
   80MOL    C4144439   4.939   5.458   4.098  0.3916  0.3709  0.3077
   80MOL    C4244440   4.889   5.374   4.213  0.2029  0.7499  0.6415
   80MOL    O4344441   4.803   5.288   4.197 -0.2147  0.8087  0.0425
   80MOL    C4444442   4.904   5.426   3.964 -0.3142  0.7278  0.2963
   80MOL    C4544443   4.949   5.503   3.860 -0.3162  0.1817 -0.1170
   80MOL    H4644444   4.892   6.016   3.260  0.8131  0.8633  2.2088
   80MOL    H4744445   4.868   5.994   3.422 -2.3283 -1.4002  1.1143
   80MOL    H4844446   5.040   5.872   3.282 -0.4812  1.7594 -2.0109
   80MOL    H4944447   4.917   5.775   3.206 -1.2197 -2.8649  1.9155
   80MOL    H5044448   4.870   5.670   3.436  0.6070 -0.9780  1.1168
   80MOL    H5144449   5.039   5.646   3.367  1.3052  0.4104  1.2829
   80MOL    H5244450   5.126   5.804   3.534  0.0353  0.9760  0.7613
   80MOL    H5344451   4.957   5.854   3.567 -0.0131 -0.0677  0.3656
   80MOL    H5444452   5.140   5.726   4.033  1.7746 -1.2369 -0.1010
   80MOL    H5544453   5.054   5.605   4.217  0.4317 -0.8989 -0.3359
   80MOL    H5644454   4.838   5.345   3.935 -1.2672  2.0023 -1.1577
   80MOL    H5744455   4.929   5.477   3.756 -0.6027 -0.6387  0.1384
   80MOL    O5844456   4.939   5.396   4.333 -0.0791 -0.3816 -0.2399
   80MOL    C5944457   4.884   5.343   4.446  1.0029 -0.3999 -0.9805
   80MOL    C6044458   4.945   5.206   4.489 -0.1298 -1.2110 -0.5531
   80MOL    C6144459   4.865   5.137   4.594  0.1992  0.9247  0.6499
   80MOL    C6244460   4.824   5.214   4.726  0.3034 -0.3446 -0.6167
   80MOL    O6344461   4.740   5.132   4.812  0.1928 -0.2764 -0.4712
   80MOL    C6444462   4.788   5.082   4.930 -0.5400 -0.3776  0.0755
   80MOL    O6544463   4.909   5.091   4.967  0.4521  0.1579  0.5286
   80MOL    C6644464   4.686   5.010   5.003  0.5271  1.0423 -0.1136
   80MOL    C6744465   4.544   5.022   4.981  0.1110  0.7927  0.4255
   80MOL    C6844466   4.452   4.943   5.045 -0.0239 -0.6986  0.1131
   80MOL    C6944467   4.490   4.852   5.144  0.0917  0.1477 -0.0181
   80MOL    C7044468   4.385   4.774   5.223  0.1990 -0.4902  0.6177
   80MOL    O7144469   4.415   4.683   5.298 -0.4795  0.0512  0.0452
   80MOL    C7244470   4.627   4.839   5.178  0.4229 -0.9027  0.0944
   80MOL    C7344471   4.724   4.913   5.105  0.0741 -0.3869 -0.8187
   80MOL    H7444472   4.906   5.404   4.533 -1.0499 -2.7946  1.2767
   80MOL    H7544473   4.776   5.343   4.453  0.9749 -2.8387 -1.1624
   80MOL    H7644474   5.051   5.212   4.512 -0.5466 -0.8935  1.3786
   80MOL    H7744475   4.940   5.140   4.402  0.6341 -0.1238 -1.4325
   80MOL    H7844476   4.768   5.112   4.551  0.7456 -0.5319  0.2245
   80MOL    H7944477   4.908   5.039   4.616 -2.5414 -0.2908  0.8257
   80MOL    H8044478   4.910   5.255   4.779 -0.4834  0.4460  0.0747
   80MOL    H8144479   4.761   5.301   4.705 -1.7934 -1.6500  0.0934
   80MOL    H8244480   4.514   5.094   4.906  1.0708  1.7694  0.9636
   80MOL    H8344481   4.347   4.943   5.017  0.2056  2.2324 -0.9515
   80MOL    H8444482   4.664   4.782   5.263  2.2172 -0.7389 -0.5566
   80MOL    H8544483   4.829   4.909   5.129 -0.0103 -0.9727 -0.5506
   80MOL    O8644484   4.261   4.825   5.209  0.3387 -0.7352 -0.3036
   80MOL    C8744485   4.150   4.782   5.281 -0.1100 -0.3137 -0.3800
   80MOL    C8844486   4.013   4.796   5.214  0.0679 -0.3844  0.5642
   80MOL    C8944487   3.993   4.719   5.085 -0.3539  0.4088  0.1965
   80MOL    C9044488   4.056   4.803   4.970  0.0279  1.5013  0.4414
   80MOL    O9144489   4.058   4.717   4.855  0.5692  0.8158 -0.3542
   80MOL    C9244490   4.095   4.763   4.735 -0.0792 -0.4777  0.3180
   80MOL    O9344491   4.126   4.885   4.710 -0.0033  0.2886  0.1841
   80MOL    C9444492   4.119   4.653   4.632  0.3014  0.3657 -0.3563
   80MOL    C9544493   4.107   4.517   4.669  0.4191 -0.0398 -0.3453
   80MOL    C9644494   4.117   4.415   4.580 -0.0639  0.1953  0.1779
   80MOL    C9744495   4.150   4.438   4.446  0.1253 -0.0603 -0.1327
   80MOL    C9844496   4.136   4.326   4.341  0.4993  0.0925  0.4318
   80MOL    O9944497   4.183   4.327   4.230  0.0129 -0.2414  0.5282
   80MOL   C10044498   4.183   4.568   4.410 -0.1761 -0.4169  0.2146
   80MOL   C10144499   4.171   4.682   4.502 -0.2323  0.3282  0.2166
   80MOL   H10244500   4.168   4.676   5.300  0.3169 -0.1122  0.3477
   80MOL   H10344501   4.162   4.837   5.374  2.6548  1.8846 -1.9584
   80MOL   H10444502   3.991   4.902   5.203 -1.1342 -0.7858 -0.9938
   80MOL   H10544503   3.939   4.758   5.284 -1.2834 -0.4818 -0.8997
   80MOL   H10644504   4.061   4.635   5.101  2.6267  2.8396  0.7813
   80MOL   H10744505   3.895   4.682   5.056  1.5751 -3.0753 -2.2310
   80MOL   H10844506   3.989   4.885   4.945 -0.4592  0.3746 -2.0991
   80MOL   H10944507   4.158   4.837   4.991  1.0007 -2.5441  2.7699
   80MOL   H11044508   4.080   4.476   4.765  0.8350 -1.0562 -0.6625
   80MOL   H11144509   4.109   4.315   4.620  1.5922  0.2612  0.7427
   80MOL   H11244510   4.221   4.579   4.310 -1.8629  0.3999 -0.3547
   80MOL   H11344511   4.195   4.783   4.473 -0.6903  1.0531  2.3030
   80MOL   O11444512   4.049   4.229   4.381  0.0663 -0.5243  0.1638
   80MOL   C11544513   4.000   4.139   4.287  0.2026  0.1853  0.2871
   80MOL   C11644514   3.888   4.217   4.212 -0.5369  0.8569  0.9186
   80MOL   C11744515   3.763   4.220   4.295  0.1734  0.0078 -0.0863
   80MOL   C11844516   3.763   4.317   4.412  0.2561  0.1606 -0.8734
   80MOL   O11944517   3.779   4.457   4.387  0.3155 -0.3090  0.2173
   80MOL   C12044518   3.669   4.529   4.365 -0.4222 -0.4149 -0.5336
   80MOL   O12144519   3.558   4.487   4.329 -0.2779 -0.7636  0.4155
   80MOL   C12244520   3.703   4.670   4.371  0.2290 -0.3542 -0.1127
   80MOL   C12344521   3.622   4.769   4.314  0.3563  0.4939  0.5105
   80MOL   C12444522   3.660   4.903   4.314 -0.6579 -0.7374 -0.0468
   80MOL   C12544523   3.773   4.950   4.384 -0.4381  0.6146 -0.2833
   80MOL   C12644524   3.799   5.099   4.385  0.2997 -0.5953 -0.0395
   80MOL   O12744525   3.721   5.190   4.355  0.0567  0.0457 -0.5130
   80MOL   C12844526   3.850   4.856   4.460  0.2746  0.4584 -0.4849
   80MOL   C12944527   3.820   4.715   4.445 -0.2502 -0.5167 -0.2530
   80MOL   H13044528   4.080   4.090   4.231 -1.6960 -1.2565 -1.2438
   80MOL   H13144529   3.963   4.048   4.335  0.9348 -0.6924 -0.7756
   80MOL   H13244530   3.862   4.163   4.121 -2.1396  0.5332  1.5612
   80MOL   H13344531   3.924   4.316   4.183 -3.0432  0.8062 -2.6918
   80MOL   H13444532   3.677   4.250   4.236  0.3627 -1.9608 -1.4117
   80MOL   H13544533   3.713   4.129   4.328 -2.6349  1.4158 -0.3277
   80MOL   H13644534   3.671   4.291   4.463  0.1841  0.6841 -0.7377
   80MOL   H13744535   3.849   4.288   4.472 -1.9425 -1.0368  1.7992
   80MOL   H13844536   3.529   4.736   4.270  2.1707 -4.9149  0.3759
   80MOL   H13944537   3.602   4.978   4.263  0.5838 -1.4753 -2.6528
   80MOL   H14044538   3.938   4.890   4.511  0.9552 -1.9184  0.0083
   80MOL   H14144539   3.888   4.644   4.489 -4.1503 -3.7333  0.7469
   80MOL   O14244540   3.925   5.120   4.423  0.0999 -0.3521 -0.4211
   80MOL   C14344541   3.969   5.250   4.448 -0.0434  0.4832  0.6638
   80MOL   C14444542   4.127   5.246   4.440  0.1641 -0.2367  0.3463
   80MOL   C14544543   4.199   5.171   4.547 -0.4556  0.1834 -0.2872
   80MOL   C14644544   4.346   5.206   4.567 -0.2762  0.2294 -0.2546
   80MOL   O14744545   4.367   5.333   4.632  0.0205  1.0566  0.0118
   80MOL   C14844546   4.487   5.395   4.612  0.3369  0.6586 -0.0822
   80MOL   O14944547   4.560   5.373   4.514  0.3408 -0.4387 -0.2693
   80MOL   C15044548   4.522   5.498   4.715 -0.1408  0.2016 -0.5824
   80MOL   C15144549   4.434   5.528   4.822  0.7356  0.4394  0.1667
   80MOL   C15244550   4.467   5.631   4.911  0.5434 -0.5351  0.2683
   80MOL   C15344551   4.581   5.710   4.898 -0.2926  0.3276  0.2005
   80MOL   C15444552   4.628   5.808   5.000 -0.3796  0.0171 -0.1452
   80MOL   O15544553   4.715   5.895   4.977 -0.2982 -0.3600  0.2604
   80MOL   C15644554   4.670   5.673   4.790 -0.1020  0.0821 -0.2755
   80MOL   C15744555   4.642   5.571   4.703 -0.0849  0.2105  0.3325
   80MOL   H15844556   3.928   5.324   4.379  0.0014  0.2475  0.3828
   80MOL   H15944557   3.934   5.279   4.547  1.3341  0.5035  1.1481
   80MOL   H16044558   4.177   5.343   4.439 -1.9358  0.9258  2.7387
   80MOL   H16144559   4.145   5.216   4.337  0.2101 -0.9263  0.5535
   80MOL   H16244560   4.155   5.186   4.646  2.1431 -0.4377  1.0291
   80MOL   H16344561   4.203   5.065   4.522 -0.4541  0.3029 -0.8037
   80MOL   H16444562   4.393   5.133   4.632 -0.1796  0.5780  0.0732
   80MOL   H16544563   4.396   5.204   4.471 -0.5585 -0.0819 -0.3974
   80MOL   H16644564   4.344   5.470   4.835  0.3945 -0.1309 -4.1738
   80MOL   H16744565   4.409   5.635   5.001 -0.9071  1.5101 -0.7013
   80MOL   H16844566   4.763   5.727   4.777 -0.8575  1.5013  0.2473
   80MOL   H16944567   4.713   5.538   4.628  1.4050  1.2002  1.2778
   80MOL   O17044568   4.571   5.793   5.119 -0.8846 -0.0215  0.3227
   80MOL   C17144569   4.599   5.886   5.222 -0.4704  0.1885 -0.0875
   80MOL   C17244570   4.592   5.822   5.363  0.2360 -0.3274  0.1299
   80MOL   C17344571   4.449   5.779   5.400  1.0978 -0.8870 -0.2273
   80MOL   C17444572   4.427   5.625   5.371 -0.6426  0.2331 -0.4602
   80MOL   O17544573   4.301   5.585   5.418  0.5889  0.0464  0.0005
   80MOL   C17644574   4.191   5.580   5.331  0.2848  0.3497  0.1267
   80MOL   O17744575   4.196   5.618   5.211 -0.6282  0.1234 -0.2292
   80MOL   C17844576   4.055   5.535   5.385 -0.2299  0.6897  0.4233
   80MOL   C17944577   4.033   5.492   5.517  1.1204 -0.1103  0.4407
   80MOL   C18044578   3.901   5.450   5.556 -0.6760  0.3093  0.2275
   80MOL   C18144579   3.789   5.473   5.469 -0.0483  0.5616 -0.6876
   80MOL   C18244580   3.651   5.440   5.501 -0.4845 -0.9288  0.0243
   80MOL   O18344581   3.554   5.461   5.431 -0.1228 -0.0866 -0.0298
   80MOL   C18444582   3.819   5.499   5.332 -0.2624  0.3752  0.3730
   80MOL   C18544583   3.949   5.524   5.291 -0.4082  0.0315 -0.3727
   80MOL   H18644584   4.690   5.946   5.209  0.2286 -0.8797 -0.2130
   80MOL   H18744585   4.520   5.960   5.232  0.2775  1.2056 -1.4544
   80MOL   H18844586   4.639   5.901   5.422  0.4860  1.1812 -2.0123
   80MOL   H18944587   4.656   5.734   5.366 -1.2524 -1.3942  2.0029
   80MOL   H19044588   4.431   5.781   5.507  2.7288  0.0246  0.0342
   80MOL   H19144589   4.372   5.844   5.357  0.1228 -0.1755  2.5081
   80MOL   H19244590   4.443   5.587   5.270 -1.1401  0.4181 -0.6079
   80MOL   H19344591   4.504   5.574   5.428 -1.1097 -0.8376 -0.7907
   80MOL   H19444592   4.119   5.487   5.582  1.2713 -1.7023  0.1376
   80MOL   H19544593   3.887   5.417   5.658  1.3433  1.4280  0.8838
   80MOL   H19644594   3.742   5.521   5.259  2.0776  0.0859 -2.2735
   80MOL   H19744595   3.962   5.548   5.187 -2.2804 -3.5248 -1.5033
   80MOL   O19844596   3.638   5.379   5.619 -0.1760 -0.1152 -0.3798
   80MOL   C19944597   3.504   5.338   5.667  0.7412  0.7613  0.6632
   80MOL   C20044598   3.519   5.228   5.773 -0.2506  0.0294  0.2055
   80MOL   C20144599   3.576   5.281   5.905 -0.1407  0.0427 -0.2673
   80MOL   C20244600   3.682   5.181   5.950 -0.1891  0.2917 -0.0536
   80MOL   O20344601   3.801   5.203   5.881  0.6075 -0.2271 -0.2910
   80MOL   C20444602   3.901   5.110   5.893  1.2469  0.0400 -0.8285
   80MOL   O20544603   3.901   5.002   5.955  0.0723  0.8298  0.0231
   80MOL   C20644604   4.034   5.159   5.847  0.7921  0.3729  0.5928
   80MOL   C20744605   4.071   5.295   5.844 -0.2763  0.0472 -0.2043
   80MOL   C20844606   4.199   5.338   5.812 -0.7125 -0.0468 -0.4416
   80MOL   C20944607   4.303   5.244   5.783 -0.7555  0.4606 -0.2796
   80MOL   C21044608   4.444   5.282   5.759 -0.2195  0.6590 -0.2966
   80MOL   O21144609   4.537   5.202   5.780  0.9169  0.4791  0.3087
   80MOL   C21244610   4.267   5.106   5.787 -0.3389  0.0972  0.2306
   80MOL   C21344611   4.133   5.065   5.811 -0.6002  0.4210  0.0401
   80MOL   H21444612   3.438   5.417   5.702  0.1384  0.9686 -0.8905
   80MOL   H21544613   3.448   5.292   5.585  0.9179  0.2396  0.8329
   80MOL   H21644614   3.575   5.146   5.729  0.9082  2.0552 -2.2425
   80MOL   H21744615   3.420   5.190   5.796 -1.4652  3.3934  0.9192
   80MOL   H21844616   3.624   5.379   5.900  3.1337 -1.5444 -0.6281
   80MOL   H21944617   3.503   5.291   5.986  1.3454  0.8729  0.9874
   80MOL   H22044618   3.703   5.198   6.056 -1.6483 -0.2696  0.3417
   80MOL   H22144619   3.653   5.078   5.930 -1.1894  0.3987  0.7758
   80MOL   H22244620   3.998   5.373   5.860  1.1678  1.9741 -2.6298
   80MOL   H22344621   4.232   5.442   5.809 -0.0868 -0.1563  1.8649
   80MOL   H22444622   4.341   5.028   5.773 -0.6915 -0.2651  0.3526
   80MOL   H22544623   4.112   4.959   5.813 -1.5055  0.5695 -1.0489
   80MOL   O22644624   4.467   5.403   5.716  0.0840  0.3171  0.0264
   80MOL   C22744625   4.602   5.438   5.680  0.1574 -0.2488 -0.0917
   80MOL   C22844626   4.660   5.554   5.759 -0.3570 -0.3249 -0.2658
   80MOL   C22944627   4.619   5.694   5.705 -0.0203  0.0212  0.3821
   80MOL   C23044628   4.692   5.812   5.765  0.0646 -0.9086  0.1226
   80MOL   O23144629   4.712   5.793   5.904 -0.1706  0.3298 -0.0873
   80MOL   C23244630   4.628   5.841   5.992  0.3129  0.1347 -0.1315
   80MOL   O23344631   4.525   5.906   5.962 -0.3111 -0.2644  0.3625
   80MOL   C23444632   4.656   5.796   6.132  0.5172 -0.9509  0.2640
   80MOL   C23544633   4.766   5.716   6.154  0.1354 -0.9004  0.1655
   80MOL   C23644634   4.792   5.664   6.284  0.9306  0.0717 -0.0267
   80MOL   C23744635   4.703   5.684   6.392 -0.1698  0.6398  0.8224
   80MOL   C23844636   4.721   5.636   6.529  0.1987 -0.0575  0.0599
   80MOL   O23944637   4.645   5.661   6.626 -0.7885 -0.4954 -0.1572
   80MOL   C24044638   4.581   5.756   6.366 -0.2990 -0.4408  0.5884
   80MOL   C24144639   4.563   5.814   6.240  1.0094  0.3059  0.2423
   80MOL   H24244640   4.676   5.359   5.693 -0.4283 -0.5973  1.1231
   80MOL   H24344641   4.596   5.454   5.573 -2.2009  0.8978  0.1853
   80MOL   H24444642   4.768   5.552   5.751 -0.4926  2.0250 -3.2091
   80MOL   H24544643   4.653   5.534   5.866 -0.7512  0.6721 -0.0909
   80MOL   H24644644   4.629   5.698   5.596  0.0685  2.0216  0.4499
   80MOL   H24744645   4.511   5.697   5.725  0.1589 -1.6877  1.7583
   80MOL   H24844646   4.794   5.809   5.726  0.5843  0.8015  1.2627
   80MOL   H24944647   4.649   5.911   5.748  1.7264  0.1906  2.0889
   80MOL   H25044648   4.837   5.694   6.076  1.0250 -0.3941  0.8287
   80MOL   H25144649   4.880   5.603   6.300  2.9913  3.1249  0.7925
   80MOL   H25244650   4.515   5.785   6.446  2.5603  0.2036  2.8234
   80MOL   H25344651   4.476   5.876   6.229 -0.7797 -1.7027  2.5300
   80MOL   O25444652   4.832   5.559   6.541 -0.7883  0.0382  0.2189
   80MOL   C25544653   4.862   5.501   6.664 -0.6124  0.4721  0.1039
   80MOL   C25644654   5.011   5.449   6.667 -0.1037  0.2852  0.5213
   80MOL   C25744655   5.027   5.329   6.564 -0.3377  0.0354  0.1595
   80MOL   C25844656   4.979   5.194   6.626  0.7911  0.1383 -0.1907
   80MOL   O25944657   5.022   5.095   6.535  0.0213  0.8002  0.2526
   80MOL   C26044658   5.000   4.959   6.557 -1.3115 -0.4614  0.3534
   80MOL   O26144659   4.967   4.913   6.662 -0.7162 -0.0145 -0.1731
   80MOL   C26244660   5.019   4.870   6.442  0.0175  0.7043  0.0933
   80MOL   C26344661   4.965   4.735   6.442  0.2161  0.2141 -0.6655
   80MOL   C26444662   4.986   4.653   6.330 -0.7765 -0.2922  0.1119
   80MOL   C26544663   5.053   4.688   6.215  0.0051 -0.1204 -0.5790
   80MOL   C26644664   5.072   4.593   6.104 -0.3136 -0.3295  0.1624
   80MOL   O26744665   5.111   4.627   5.993 -0.3247 -0.4019  0.3499
   80MOL   C26844666   5.116   4.817   6.215 -0.0849  0.5355 -0.6352
   80MOL   C26944667   5.097   4.902   6.328 -0.0408  0.3382  0.0613
   80MOL   H27044668   4.859   5.571   6.748 -1.2527  0.0561  0.4267
   80MOL   H27144669   4.788   5.426   6.692  0.4935 -0.8614 -0.4569
   80MOL   H27244670   5.039   5.421   6.769  0.2924 -0.5105  0.1966
   80MOL   H27344671   5.077   5.532   6.644 -0.3791 -0.0959 -1.6857
   80MOL   H27444672   4.990   5.362   6.467  2.4921  0.2700 -0.8739
   80MOL   H27544673   5.133   5.310   6.551 -0.0240  2.3548 -0.8322
   80MOL   H27644674   5.037   5.179   6.718 -4.3485 -2.6792  2.8461
   80MOL   H27744675   4.873   5.189   6.651  0.6035  3.4354 -0.2257
   80MOL   H27844676   4.918   4.681   6.523 -0.7852  1.8384 -0.1351
   80MOL   H27944677   4.948   4.552   6.340 -1.6824  0.0440  0.0905
   80MOL   H28044678   5.164   4.852   6.126  0.8580  1.7263  0.3264
   80MOL   H28144679   5.137   5.002   6.330 -1.5107  0.9130  1.5688
   80MOL   O28244680   5.015   4.466   6.127  0.1906  0.0679  0.5753
   80MOL   C28344681   5.058   4.353   6.040  0.1527 -0.9263 -0.5993
   80MOL   C28444682   5.185   4.284   6.101  0.4008 -0.3601 -0.0436
   80MOL   C28544683   5.240   4.174   6.010 -1.0579 -0.4907 -0.5722
   80MOL   C28644684   5.327   4.226   5.894 -0.0690  0.0343 -0.5577
   80MOL   O28744685   5.238   4.247   5.787 -0.2136 -0.3354  0.4914
   80MOL   C28844686   5.255   4.361   5.709  0.0012  0.4846  0.0307
   80MOL   O28944687   5.355   4.434   5.720 -0.1349  0.4581  0.4558
   80MOL   C29044688   5.134   4.387   5.617 -0.1820 -0.2112  0.5078
   80MOL   C29144689   5.043   4.289   5.584  0.3217 -0.4261  0.2297
   80MOL   C29244690   4.933   4.317   5.493  0.1923  0.2867  0.5662
   80MOL   C29344691   4.909   4.443   5.444  0.4867  0.6921  0.6252
   80MOL   C29444692   4.798   4.471   5.347  0.8932 -0.0482  0.9285
   80MOL   O29544693   4.797   4.574   5.280 -0.1267 -0.0195  0.3276
   80MOL   C29644694   5.002   4.540   5.489 -0.8676  0.0080  0.0211
   80MOL   C29744695   5.106   4.517   5.577  0.3436  0.6925 -0.1315
   80MOL   H29844696   4.975   4.284   6.028 -1.8514  1.1949  0.7610
   80MOL   H29944697   5.086   4.399   5.945  1.1852  0.3639  0.3019
   80MOL   H30044698   5.162   4.257   6.204 -2.4397 -2.0000 -1.0589
   80MOL   H30144699   5.265   4.358   6.102  0.0741 -0.0011 -0.2895
   80MOL   H30244700   5.310   4.124   6.078 -0.7848  1.1552  0.3827
   80MOL   H30344701   5.164   4.104   5.977 -0.2671 -1.2704 -0.7664
   80MOL   H30444702   5.386   4.307   5.937 -1.6411  0.6414  0.4866
   80MOL   H30544703   5.390   4.141   5.870 -0.6543  0.1013 -2.4008
   80MOL   H30644704   5.068   4.189   5.616  3.1263  0.0588 -0.3249
   80MOL   H30744705   4.879   4.231   5.455  2.1181 -0.7059  0.0205
   80MOL   H30844706   4.995   4.639   5.448  2.1984 -0.1631 -1.0112
   80MOL   H30944707   5.174   4.598   5.599  2.1921 -0.6936 -0.5688
   80MOL   O31044708   4.708   4.365   5.335  0.0455  0.0604  0.7012
   80MOL   C31144709   4.581   4.388   5.276  0.1713  0.1498  0.3222
   80MOL   C31244710   4.471   4.382   5.383  0.3218  0.0874 -0.3759
   80MOL   C31344711   4.335   4.375   5.324 -0.3097 -0.1690 -0.3830
   80MOL   C31444712   4.223   4.381   5.430 -0.2261  0.0964  0.5864
   80MOL   O31544713   4.097   4.348   5.384 -0.4505 -0.1429 -0.7286
   80MOL   C31644714   4.000   4.441   5.374  0.4796  0.1837  0.0583
   80MOL   O31744715   4.012   4.559   5.416  0.2695  0.6708 -0.5946
   80MOL   C31844716   3.887   4.387   5.295 -0.6035  0.0065 -0.1119
   80MOL   C31944717   3.882   4.254   5.254 -0.3560  0.3700  0.2269
   80MOL   C32044718   3.775   4.202   5.174 -0.0361 -0.2735  0.1912
   80MOL   C32144719   3.669   4.290   5.141  0.0958 -0.5153  0.1933
   80MOL   C32244720   3.545   4.244   5.078  0.1676  0.0988 -0.5209
   80MOL   O32344721   3.441   4.309   5.061 -0.1787  0.1195  0.1612
   80MOL   C32444722   3.671   4.421   5.188  0.1065 -0.1107  0.3891
   80MOL   C32544723   3.777   4.473   5.266 -0.5456 -0.7578 -0.0903
   80MOL   H32644724   4.569   4.474   5.211 -0.0287 -1.5409 -1.9310
   80MOL   H32744725   4.563   4.307   5.206 -1.1299 -0.6579  1.5634
   80MOL   H32844726   4.483   4.455   5.463 -0.4139 -0.3760  0.1637
   80MOL   H32944727   4.479   4.285   5.432 -0.0049  0.9003  1.3213
   80MOL   H33044728   4.310   4.453   5.252 -0.5490  1.0279  0.9717
   80MOL   H33144729   4.319   4.284   5.267 -1.1908 -0.8038  0.8633
   80MOL   H33244730   4.243   4.312   5.512  1.9077  0.3359  0.2915
   80MOL   H33344731   4.215   4.474   5.487 -2.0264  0.6568 -0.5344
   80MOL   H33444732   3.964   4.188   5.278 -1.8496 -1.2491  0.9571
   80MOL   H33544733   3.769   4.101   5.136 -2.3893 -0.0653 -0.0522
   80MOL   H33644734   3.593   4.493   5.164 -0.6498 -0.0272  2.9386
   80MOL   H33744735   3.785   4.577   5.293 -3.3250 -1.0904  2.1910
   80MOL   O33844736   3.554   4.118   5.031  0.3507 -0.0288  0.3494
   80MOL   C33944737   3.459   4.059   4.950  0.4168 -0.7537  0.0956
   80MOL   C34044738   3.379   3.944   5.021 -0.0328  0.7110 -0.3787
   80MOL   C34144739   3.326   3.976   5.168 -0.0394 -0.6604 -0.6835
   80MOL   C34244740   3.235   3.874   5.226  0.4729  0.1317  0.0008
   80MOL   O34344741   3.160   3.926   5.339 -0.0467 -0.0664 -0.5525
   80MOL   C34444742   3.059   3.850   5.397  0.7584  0.1532 -0.8585
   80MOL   O34544743   3.022   3.746   5.348 -0.1072  0.0233  0.0288
   80MOL   C34644744   2.995   3.927   5.510  0.2191 -0.1616  0.1508
   80MOL   C34744745   2.882   3.874   5.567 -0.2625 -0.5649  0.5090
   80MOL   C34844746   2.822   3.942   5.677 -0.0574 -0.1948  0.7291
   80MOL   C34944747   2.869   4.066   5.718  0.2691 -0.0257 -0.2721
   80MOL   C35044748   2.794   4.149   5.820 -1.0185 -0.1657 -1.2061
   80MOL   O35144749   2.824   4.270   5.837 -0.3298  0.4225 -0.3136
   80MOL   C35244750   2.986   4.119   5.652 -0.0683  0.0632 -0.9389
   80MOL   C35344751   3.051   4.053   5.554 -0.2911  0.3205  0.3979
   80MOL   H35444752   3.381   4.127   4.916  1.2568 -0.6564 -1.6931
   80MOL   H35544753   3.508   4.026   4.858 -1.0163  2.7795 -2.0120
   80MOL   H35644754   3.441   3.855   5.035 -0.0639  0.6580 -0.5789
   80MOL   H35744755   3.306   3.909   4.949 -0.3715 -0.7674  0.6582
   80MOL   H35844756   3.407   3.990   5.240 -1.9356  1.0968  1.1906
   80MOL   H35944757   3.274   4.072   5.166  1.1367  0.0613  1.5502
   80MOL   H36044758   3.165   3.850   5.146 -1.2102  0.7545  1.2398
   80MOL   H36144759   3.278   3.778   5.256 -1.9891 -1.2740 -0.7864
   80MOL   H36244760   2.837   3.779   5.543  1.1221 -1.3668  1.0835
   80MOL   H36344761   2.730   3.904   5.720 -0.5396  1.4812  1.2267
   80MOL   H36444762   3.021   4.211   5.695  2.1654 -0.7964 -0.8326
   80MOL   H36544763   3.140   4.097   5.510 -1.9582  2.9344 -0.5006
   80MOL   O36644764   2.692   4.097   5.885 -0.4755  0.1289  0.5394
   80MOL   C36744765   2.616   4.191   5.969  0.0490  0.6168  0.1639
   80MOL   C36844766   2.515   4.129   6.064 -0.0341  0.7118  0.4523
   80MOL   C36944767   2.574   4.033   6.173  0.1786  0.1369  1.1535
   80MOL   C37044768   2.664   4.110   6.272  0.4653 -0.6386  0.4194
   80MOL   O37144769   2.795   4.143   6.231  1.0143 -0.0653  0.1014
   80MOL   C37244770   2.902   4.057   6.254 -0.0685  0.3569  0.0129
   80MOL   O37344771   2.894   3.956   6.330 -0.3872 -0.1920 -0.5221
   80MOL   C37444772   3.019   4.093   6.179  0.6162  0.3792  0.2599
   80MOL   C37544773   3.018   4.200   6.085 -0.5257  0.1663 -0.0668
   80MOL   C37644774   3.132   4.231   6.007 -0.3713  0.1107  0.3557
   80MOL   C37744775   3.244   4.159   6.016 -0.7802 -0.1975  0.4714
   80MOL   C37844776   3.354   4.197   5.917 -0.3247 -0.1989  0.4206
   80MOL   O37944777   3.331   4.260   5.811  0.0909 -0.4299  0.1597
   80MOL   C38044778   3.244   4.045   6.096 -0.1665 -0.9937  0.4007
   80MOL   C38144779   3.136   4.013   6.185 -0.0623  0.2822  0.2943
   80MOL   H38244780   2.685   4.255   6.024  0.2489  0.9470 -0.4689
   80MOL   H38344781   2.563   4.254   5.898  0.2347 -0.5863 -1.0669
   80MOL   H38444782   2.448   4.060   6.013  1.0841 -1.4092  1.7874
   80MOL   H38544783   2.459   4.213   6.105 -0.8700  1.1315 -1.4805
   80MOL   H38644784   2.491   3.984   6.224  0.1760  1.5427  2.5403
   80MOL   H38744785   2.625   3.950   6.123  0.6061 -0.8068  3.0848
   80MOL   H38844786   2.623   4.208   6.294 -0.2154 -1.3749  2.4973
   80MOL   H38944787   2.671   4.047   6.360  2.6783  1.1529  1.5666
   80MOL   H39044788   2.926   4.250   6.061 -0.3969 -0.5065 -1.9959
   80MOL   H39144789   3.135   4.316   5.940 -0.1753  0.0307  0.2641
   80MOL   H39244790   3.333   3.987   6.081 -0.0137 -0.0818 -2.6787
   80MOL   H39344791   3.151   3.930   6.252  2.3464 -0.1669 -0.7451
   80MOL   O39444792   3.477   4.147   5.957 -0.0462  0.7489 -0.2158
   80MOL   C39544793   3.598   4.171   5.890  0.4992 -0.3717  0.1331
   80MOL   C39644794   3.722   4.151   5.980  0.2004  0.7396  0.1450
   80MOL   C39744795   3.750   4.002   5.981  0.1485  0.2408  0.2715
   80MOL   C39844796   3.872   3.966   6.058  0.4781 -0.7309 -0.5345
   80MOL   O39944797   3.868   4.004   6.195 -0.3636  0.0425  0.2785
   80MOL   C40044798   3.957   3.966   6.285  0.0589  0.4386  0.5840
   80MOL   O40144799   4.063   3.912   6.247  0.1637 -0.4036 -0.2855
   80MOL   C40244800   3.923   4.003   6.429 -0.8392  0.5911 -1.2110
   80MOL   C40344801   4.017   3.956   6.523  0.2003 -0.4072 -0.0090
   80MOL   C40444802   3.998   3.968   6.661  0.0813  0.2809  0.1890
   80MOL   C40544803   3.888   4.041   6.698 -0.5197 -0.3305 -0.2815
   80MOL   C40644804   3.866   4.051   6.840  0.7527 -0.4538  0.1722
   80MOL   O40744805   3.965   4.058   6.921 -0.0363  0.0108  0.0513
   80MOL   C40844806   3.789   4.091   6.608  0.8228  0.5017  0.8465
   80MOL   C40944807   3.811   4.074   6.470  0.2827  0.3433 -0.2261
   80MOL   H41044808   3.611   4.107   5.803  1.3621 -1.0804  0.7760
   80MOL   H41144809   3.596   4.273   5.853  1.2280 -0.2918  0.3086
   80MOL   H41244810   3.712   4.192   6.081 -0.5274 -1.8819  1.1866
   80MOL   H41344811   3.801   4.211   5.935  0.5717 -0.5899 -0.9970
   80MOL   H41444812   3.657   3.953   6.007 -1.0745  0.6303 -3.1670
   80MOL   H41544813   3.767   3.970   5.878  1.8309  0.1120  0.5734
   80MOL   H41644814   3.895   3.859   6.048  1.6237 -0.4237 -1.3331
   80MOL   H41744815   3.956   4.014   6.008  0.1821  1.0182  0.6334
   80MOL   H41844816   4.104   3.899   6.491  1.1588  2.1148 -2.0728
   80MOL   H41944817   4.076   3.932   6.727 -0.6263  0.3723  1.0813
   80MOL   H42044818   3.699   4.141   6.641 -0.4224 -0.0450 -1.6502
   80MOL   H42144819   3.736   4.110   6.401 -0.7072 -0.6645  0.3021
   80MOL   O42244820   3.731   4.059   6.879  0.2020 -0.0770 -0.5702
   80MOL   C42344821   3.698   4.069   7.019 -0.4201  0.1173 -0.1199
   80MOL   C42444822   3.553   4.023   7.037  0.0054  0.1183  0.2206
   80MOL   C42544823   3.524   3.873   7.015 -0.4439  0.0152  0.3502
   80MOL   C42644824   3.371   3.853   7.021 -0.0005 -0.7509 -0.0471
   80MOL   O42744825   3.315   3.871   7.143 -0.0548  0.1806 -0.5638
   80MOL   C42844826   3.262   3.990   7.177  0.0551 -0.4191 -0.1862
   80MOL   O42944827   3.252   4.080   7.092 -0.9658 -0.2594  0.1735
   80MOL   C43044828   3.197   4.001   7.310 -0.6833 -1.2887  0.4813
   80MOL   C43144829   3.173   3.881   7.387  0.5111 -0.3350 -0.0394
   80MOL   C43244830   3.098   3.895   7.507 -0.0895 -0.0668 -0.1809
   80MOL   C43344831   3.049   4.018   7.545  0.1645 -0.0754 -0.0280
   80MOL   C43444832   2.956   4.022   7.665  0.2071  0.0570  0.1343
   80MOL   O43544833   2.897   4.126   7.690 -0.1132  0.4420 -0.0061
   80MOL   C43644834   3.079   4.135   7.475  0.2439 -0.1065 -0.3275
   80MOL   C43744835   3.154   4.124   7.356  0.7112 -0.5114 -0.6386
   80MOL   H43844836   3.773   4.011   7.073 -1.5602 -0.4020  0.9369
   80MOL   H43944837   3.719   4.162   7.072 -1.4479 -0.3715  1.1793
   80MOL   H44044838   3.505   4.089   6.965  0.1419 -1.0257 -0.9319
   80MOL   H44144839   3.520   4.058   7.135  1.3913 -1.8003  1.4241
   80MOL   H44244840   3.559   3.847   6.915 -1.1793 -0.2717  0.1663
   80MOL   H44344841   3.573   3.819   7.096  0.9862  0.5783 -0.1273
   80MOL   H44444842   3.320   3.902   6.938  0.1343  0.9932  0.8749
   80MOL   H44544843   3.367   3.748   6.993 -2.1776 -0.9148  0.8213
   80MOL   H44644844   3.211   3.787   7.349  0.6285  0.3012 -1.5525
   80MOL   H44744845   3.070   3.812   7.571 -0.9954  0.0327 -0.4516
   80MOL   H44844846   3.046   4.232   7.509 -0.2964 -0.4496  0.1525
   80MOL   H44944847   3.164   4.215   7.298 -0.1413 -0.8973 -1.4154
   80MOL   O45044848   2.940   3.903   7.727 -0.3091  0.4606 -0.0668
   80MOL   C45144849   2.834   3.886   7.821  0.7882  0.3082 -0.3387
   80MOL   C45244850   2.894   3.906   7.964  0.0643  0.1766 -0.0959
   80MOL   C45344851   2.997   3.790   7.990  0.6928  0.5063 -0.0145
   80MOL   C45444852   3.040   3.784   0.043 -0.2131 -0.4159 -0.4333
   80MOL   O45544853   2.925   3.767   0.135  0.3947 -0.1655 -0.3273
   80MOL   C45644854   2.926   3.831   0.253 -0.0094  0.0651  0.3326
   80MOL   O45744855   2.995   3.932   0.275 -0.2635 -0.4957  0.7185
   80MOL   C45844856   2.827   3.768   0.346 -0.5083  0.0995  0.4547
   80MOL   C45944857   2.755   3.646   0.314 -0.2925 -0.3014  0.1774
   80MOL   C46044858   2.666   3.592   0.413 -0.3660  0.8094 -0.4623
   80MOL   C46144859   2.668   3.647   0.549 -0.2226  0.4877 -0.4305
   80MOL   C46244860   2.591   3.570   0.650 -0.4941 -0.0189 -0.2514
   80MOL   O46344861   2.512   3.480   0.620  0.0273 -0.3996 -0.3329
   80MOL   C46444862   2.741   3.765   0.573 -0.8664 -0.3374 -0.4083
   80MOL   C46544863   2.816   3.828   0.476  0.5517  0.4954  0.2516
   80MOL   H46644864   2.738   3.937   7.826  1.0052  0.6084  1.2287
   80MOL   H46744865   2.798   3.783   7.826 -0.2129  0.6645 -0.1051
   80MOL   H46844866   2.816   3.905   8.040 -0.3301 -1.6839 -0.5064
   80MOL   H46944867   2.939   4.006   7.969 -0.8428  0.5212  1.5187
   80MOL   H47044868   2.956   3.694   7.961 -0.3234  0.3546  1.8616
   80MOL   H47144869   3.090   3.800   7.934  0.6202 -0.3509 -0.2916
   80MOL   H47244870   3.103   3.696   0.058  0.6680 -0.2824 -3.0900
   80MOL   H47344871   3.100   3.872   0.067 -0.2851 -0.6681  0.7196
   80MOL   H47444872   2.766   3.589   0.223  1.0304 -0.6712  0.5703
   80MOL   H47544873   2.609   3.502   0.394  0.5047 -0.3601  2.3290
   80MOL   H47644874   2.748   3.813   0.669 -0.3684 -1.4069  0.1022
   80MOL   H47744875   2.874   3.915   0.502 -0.5491  1.3057 -0.0130
   80MOL   O47844876   2.613   3.615   0.774  0.1056 -0.6997  0.0658
   80MOL   C47944877   2.554   3.538   0.882  0.1974 -0.5062 -0.2884
   80MOL   C48044878   2.646   3.574   1.001  0.4600  0.0919  0.0943
   80MOL   C48144879   2.614   3.480   1.118 -0.1214 -0.2999  0.7474
   80MOL   C48244880   2.696   3.505   1.239  0.2921 -0.4878 -0.1656
   80MOL   O48344881   2.651   3.416   1.334 -0.3383 -0.2438 -0.5653
   80MOL   C48444882   2.725   3.372   1.442 -0.8807 -0.5408  0.9904
   80MOL   O48544883   2.836   3.419   1.465 -0.0403 -0.4209  0.0683
   80MOL   C48644884   2.642   3.271   1.520 -0.0846 -0.2140  0.5894
   80MOL   C48744885   2.673   3.239   1.655 -0.4918  0.5659  0.8989
   80MOL   C48844886   2.584   3.149   1.728 -0.9372  0.2184 -0.3441
   80MOL   C48944887   2.460   3.105   1.678 -0.0862  0.2880 -0.0849
   80MOL   C49044888   2.380   3.012   1.749  0.6136 -0.5333  0.4747
   80MOL   O49144889   2.409   2.949   1.848 -0.0083  0.0295 -0.3511
   80MOL   C49244890   2.416   3.158   1.554  0.2817 -0.1959 -0.3472
   80MOL   C49344891   2.511   3.227   1.473  0.2665  0.5391 -0.8439
   80MOL   H49444892   2.447   3.548   0.898 -0.1975 -0.7697 -2.5599
   80MOL   H49544893   2.571   3.431   0.872  2.4272 -0.1460 -0.4838
   80MOL   H49644894   2.626   3.678   1.029  1.7772 -0.1650  2.1026
   80MOL   H49744895   2.753   3.563   0.984  0.1316 -0.8659 -1.3835
   80MOL   H49844896   2.509   3.479   1.145 -0.2803  0.0164  0.1661
   80MOL   H49944897   2.628   3.375   1.092  0.6705  0.2998 -1.4111
   80MOL   H50044898   2.802   3.497   1.212 -0.1940 -1.8807 -1.7442
   80MOL   H50144899   2.671   3.603   1.280 -0.9637 -0.5594 -0.7635
   80MOL   H50244900   2.765   3.262   1.706  1.5916 -4.1381 -0.4996
   80MOL   H50344901   2.621   3.124   1.826  0.2983  0.5806 -0.7086
   80MOL   H50444902   2.326   3.122   1.505 -0.9667 -3.5285  4.0874
   80MOL   H50544903   2.479   3.264   1.377  0.0441 -0.4121 -1.1375
   80MOL   O50644904   2.248   3.002   1.694 -0.1817  0.1948  0.0531
   80MOL   C50744905   2.149   2.923   1.752 -0.8053 -0.4081  0.1290
   80MOL   C50844906   2.020   2.978   1.703  0.2114  0.1212  0.0651
   80MOL   C50944907   1.985   3.111   1.776 -0.6340 -0.5211  0.2191
   80MOL   C51044908   1.885   3.195   1.697 -0.0696  0.6621  0.3141
   80MOL   O51144909   1.955   3.253   1.586 -0.4788 -0.2628  0.1751
   80MOL   C51244910   1.888   3.295   1.484 -0.1820  0.5598  0.0205
   80MOL   O51344911   1.771   3.321   1.480 -0.0886  0.5648 -0.2207
   80MOL   C51444912   1.981   3.322   1.361  0.1539  0.1682 -0.5948
   80MOL   C51544913   2.122   3.307   1.366  0.2468 -0.0912  0.2679
   80MOL   C51644914   2.190   3.316   1.251 -0.4176  0.3328  0.1575
   80MOL   C51744915   2.134   3.358   1.128  0.0895  0.1558 -0.1474
   80MOL   C51844916   2.212   3.368   1.007 -0.4796 -0.0046  0.0612
   80MOL   O51944917   2.333   3.368   1.005  0.2441  0.3020 -0.4370
   80MOL   C52044918   1.995   3.385   1.129 -0.3807  1.0095  0.3485
   80MOL   C52144919   1.922   3.365   1.246  0.1506 -0.0725 -0.9807
   80MOL   H52244920   2.155   2.818   1.724 -0.0339 -0.9397  2.1301
   80MOL   H52344921   2.164   2.941   1.859 -1.1962 -1.4347  0.3566
   80MOL   H52444922   1.933   2.916   1.722  0.8127 -1.0150 -0.8549
   80MOL   H52544923   2.034   3.004   1.598  2.3536  0.8637  0.5115
   80MOL   H52644924   1.932   3.092   1.869  1.4717  1.7008  1.9142
   80MOL   H52744925   2.074   3.170   1.798  0.2894 -1.9703  0.4453
   80MOL   H52844926   1.808   3.127   1.661  2.8446 -1.5071 -2.1378
   80MOL   H52944927   1.840   3.271   1.762 -3.7605 -2.5313  1.6751
   80MOL   H53044928   2.161   3.271   1.460  0.1419 -1.3198 -0.1481
   80MOL   H53144929   2.297   3.306   1.257 -0.5479 -0.3477  1.8984
   80MOL   H53244930   1.949   3.432   1.043  1.2214  0.7640 -0.6642
   80MOL   H53344931   1.816   3.382   1.245 -0.0069 -1.0073 -3.6217
   80MOL   O53444932   2.145   3.358   0.894  0.2156 -0.5140 -0.1037
   80MOL   C53544933   2.208   3.323   0.771  0.1964  0.6224  0.0253
   80MOL   C53644934   2.111   3.246   0.672  0.0632 -0.3081  0.7309
   80MOL   C53744935   2.175   3.198   0.543 -0.2041 -0.1938 -0.4036
   80MOL   C53844936   2.269   3.082   0.570  0.3385  0.5610  0.2796
   80MOL   O53944937   2.379   3.099   0.660 -0.1888  0.0806  0.5822
   80MOL   C54044938   2.429   2.993   0.731  0.3629 -0.1640  0.0979
   80MOL   O54144939   2.375   2.889   0.723  0.8108  0.7201 -0.2216
   80MOL   C54244940   2.547   3.028   0.810  0.5534  0.5933 -0.8792
   80MOL   C54344941   2.615   2.922   0.875 -0.1309  0.7990 -0.2933
   80MOL   C54444942   2.728   2.953   0.952 -0.0187 -0.2121 -0.0585
   80MOL   C54544943   2.769   3.085   0.974 -0.0572 -1.2490  0.7587
   80MOL   C54644944   2.874   3.118   1.072 -0.0786 -0.4637  0.3560
   80MOL   O54744945   2.867   3.209   1.154  0.5651  0.2532 -0.0350
   80MOL   C54844946   2.703   3.190   0.905 -0.1611 -0.3006 -0.1069
   80MOL   C54944947   2.594   3.161   0.814 -0.0932  0.7091 -0.0184
   80MOL   H55044948   2.246   3.399   0.703  0.0371 -0.6858 -1.5687
   80MOL   H55144949   2.284   3.250   0.799 -1.3872 -0.5049  1.5593
   80MOL   H55244950   2.025   3.310   0.649  1.5166  1.6182  0.4988
   80MOL   H55344951   2.063   3.163   0.724  0.7341 -0.2853  1.3888
   80MOL   H55444952   2.099   3.173   0.470 -1.0454  0.0151  0.3989
   80MOL   H55544953   2.233   3.278   0.496  0.1684  0.3262  0.9131
   80MOL   H55644954   2.207   2.999   0.607 -0.3744  0.1679 -1.7477
   80MOL   H55744955   2.315   3.050   0.477  0.4216 -0.9330  0.8165
   80MOL   H55844956   2.587   2.820   0.856 -0.5191  0.2776  2.7423
   80MOL   H55944957   2.780   2.874   1.003  2.5916  1.2036 -0.4676
   80MOL   H56044958   2.734   3.292   0.919 -1.1286  0.6767 -4.4157
   80MOL   H56144959   2.554   3.234   0.746  0.0700 -0.9274 -1.9230
   80MOL   H56244960   2.960   3.051   1.072  0.9766  0.8295  1.9394
   81MOL     O144961   4.454   2.784   6.137 -0.0072  0.0263 -0.7967
   81MOL     C244962   4.548   2.807   6.248  0.3627 -0.1081 -0.3968
   81MOL     C344963   4.529   2.693   6.337 -0.7512  0.3594 -0.4763
   81MOL     C444964   4.654   2.686   6.420  0.2311 -0.4784  0.2385
   81MOL     C544965   4.645   2.572   6.509  0.3470  0.7795  0.4629
   81MOL     O644966   4.702   2.586   6.634 -0.3403 -0.1704 -0.0224
   81MOL     C744967   4.699   2.478   6.719  0.5452 -0.5661  0.9374
   81MOL     O844968   4.661   2.367   6.681 -0.4247  0.1283 -0.4285
   81MOL     C944969   4.749   2.510   6.858  0.3610  0.6101  0.2568
   81MOL    C1044970   4.804   2.634   6.902  0.0396  0.2717  0.2682
   81MOL    C1144971   4.852   2.659   7.032  0.4628 -0.1065  0.3437
   81MOL    C1244972   4.830   2.558   7.132  0.0292  0.2529  0.2792
   81MOL    C1344973   4.849   2.597   7.270 -0.3842  0.5599  0.0486
   81MOL    O1444974   4.937   2.675   7.304  0.0323  0.4585  0.0494
   81MOL    C1544975   4.772   2.434   7.095  0.7386 -0.3271 -0.8883
   81MOL    C1644976   4.746   2.406   6.961  0.6772  0.5462  0.3243
   81MOL    H1744977   4.649   2.800   6.207  1.1170 -1.6254  1.6704
   81MOL    H1844978   4.530   2.908   6.285 -1.4929 -0.7412  0.5036
   81MOL    H1944979   4.526   2.601   6.279  1.5418 -0.7527  1.0841
   81MOL    H2044980   4.440   2.704   6.399  1.1729  0.6194  2.3352
   81MOL    H2144981   4.743   2.688   6.357 -0.8730  1.1631 -1.3165
   81MOL    H2244982   4.664   2.778   6.478  0.1552 -0.0001 -0.4994
   81MOL    H2344983   4.537   2.555   6.514  0.4076 -0.4403 -1.7579
   81MOL    H2444984   4.695   2.483   6.471 -1.8427 -0.5030  0.4961
   81MOL    H2544985   4.808   2.714   6.829  2.9396 -1.2763 -1.3384
   81MOL    H2644986   4.889   2.757   7.054 -0.0028 -0.0040  0.6892
   81MOL    H2744987   4.748   2.358   7.167 -0.3648 -0.7742 -1.7030
   81MOL    H2844988   4.704   2.315   6.922  0.7884  0.6459 -0.0255
   81MOL    H2944989   4.462   2.863   6.086  1.6872  0.1631 -0.3304
   81MOL    O3044990   4.745   2.541   7.353 -0.4420 -0.1810  0.0331
   81MOL    C3144991   4.750   2.545   7.496 -0.0780  0.8987  0.2800
   81MOL    C3244992   4.741   2.694   7.551 -0.4229 -0.1079  0.7254
   81MOL    C3344993   4.621   2.763   7.480  0.5877 -0.4162 -0.0584
   81MOL    C3444994   4.607   2.911   7.517  0.4072  0.6701 -0.1356
   81MOL    O3544995   4.592   2.922   7.661 -0.1659 -0.4378  0.1271
   81MOL    C3644996   4.651   3.020   7.727 -0.5868 -0.4980 -0.3438
   81MOL    O3744997   4.725   3.103   7.673  0.5315  0.3821 -0.3285
   81MOL    C3844998   4.593   3.039   7.864  0.6027 -0.8069 -1.0350
   81MOL    C3944999   4.540   2.928   7.934 -0.5192 -0.3496 -0.1211
   81MOL    C4045000   4.500   2.945   8.067  0.1318  0.0123 -0.3163
   81MOL    C4145001   4.510   3.065   0.035  0.4354 -0.4477 -0.8307
   81MOL    C4245002   4.494   3.072   0.180  0.2050  0.2229 -0.2022
   81MOL    O4345003   4.537   3.170   0.240  0.0071 -0.2324 -0.3365
   81MOL    C4445004   4.542   3.176   8.054 -0.5352 -0.0500 -0.6122
   81MOL    C4545005   4.585   3.168   7.921 -0.2059  0.6644  0.3888
   81MOL    H4645006   4.666   2.491   7.541 -0.3738  0.6424 -0.5730
   81MOL    H4745007   4.837   2.497   7.541 -0.8746  1.4914  2.5323
   81MOL    H4845008   4.834   2.746   7.530 -0.1261 -1.7955 -2.4601
   81MOL    H4945009   4.729   2.693   7.659  1.0404 -1.3910  0.8870
   81MOL    H5045010   4.627   2.752   7.372  0.5963  0.5072 -0.1550
   81MOL    H5145011   4.534   2.708   7.517  0.8857 -1.2503 -0.5891
   81MOL    H5245012   4.700   2.958   7.483  2.7361 -2.2396  1.9820
   81MOL    H5345013   4.522   2.951   7.462 -0.2278 -0.7930 -0.2214
   81MOL    H5445014   4.549   2.830   7.889  4.6956 -0.1254  0.0355
   81MOL    H5545015   4.477   2.848   0.009 -1.7193  1.4259  2.1031
   81MOL    H5645016   4.553   3.268   0.012 -1.1988 -0.6454  0.5205
   81MOL    H5745017   4.607   3.254   7.860 -2.4177  1.2161  0.3434
   81MOL    O5845018   4.438   2.965   0.243 -0.0736  0.0700 -0.4013
   81MOL    C5945019   4.448   2.952   0.386  0.0320 -0.3267 -0.3479
   81MOL    C6045020   4.532   2.830   0.403 -0.2632  0.1467  0.3076
   81MOL    C6145021   4.484   2.707   0.321  0.0257 -0.4631  0.0443
   81MOL    C6245022   4.537   2.573   0.370 -0.0644  0.3398 -0.0082
   81MOL    O6345023   4.676   2.574   0.388  0.0258 -0.1376 -0.1510
   81MOL    C6445024   4.724   2.509   0.503  0.1332  0.2699  0.2875
   81MOL    O6545025   4.651   2.439   0.576 -0.4570  0.2246  0.3240
   81MOL    C6645026   4.870   2.521   0.517  0.4791 -0.0376 -0.1019
   81MOL    C6745027   4.935   2.640   0.483  0.0314 -0.0077  0.6389
   81MOL    C6845028   5.074   2.648   0.475  0.0663 -0.9057  0.3229
   81MOL    C6945029   5.151   2.538   0.517  0.5191  0.4579  0.4687
   81MOL    C7045030   5.304   2.546   0.518 -0.2510  0.3230 -0.4206
   81MOL    O7145031   5.379   2.456   0.562  0.1379 -0.2985  0.6253
   81MOL    C7245032   5.086   2.423   0.557 -0.1358 -0.2795  0.0958
   81MOL    C7345033   4.947   2.407   0.551 -0.0041 -0.4600  0.4721
   81MOL    H7445034   4.487   3.038   0.440  3.1380 -0.0887 -2.8400
   81MOL    H7545035   4.351   2.931   0.432 -0.2628  2.4776  0.3640
   81MOL    H7645036   4.541   2.810   0.510  2.7553 -0.1800  0.0249
   81MOL    H7745037   4.630   2.861   0.369  0.6654  0.2904  2.9859
   81MOL    H7845038   4.376   2.711   0.337  0.0559 -2.8978  1.1001
   81MOL    H7945039   4.518   2.715   0.218  0.3372 -0.5892  0.1376
   81MOL    H8045040   4.490   2.553   0.466 -1.7727  0.0820 -0.8767
   81MOL    H8145041   4.504   2.484   0.315 -0.6103 -0.8385  2.1627
   81MOL    H8245042   4.876   2.723   0.446 -1.2458 -1.3410 -0.3758
   81MOL    H8345043   5.124   2.727   0.421 -0.2529 -0.6268  0.4366
   81MOL    H8445044   5.154   2.341   0.573 -0.2216  0.1524  2.8344
   81MOL    H8545045   4.894   2.316   0.574 -0.4149  0.3172  2.7582
   81MOL    O8645046   5.354   2.656   0.455  0.6570 -0.2418  0.1295
   81MOL    C8745047   5.493   2.673   0.443 -0.4784 -0.1610 -0.1529
   81MOL    C8845048   5.512   2.717   0.303  0.0518 -0.3419  0.2049
   81MOL    C8945049   5.454   2.858   0.285 -0.1827 -0.1388 -0.3205
   81MOL    C9045050   5.450   2.867   0.130  0.3945  0.1747  0.0267
   81MOL    O9145051   5.445   3.007   0.096  0.0454 -0.2305  0.2024
   81MOL    C9245052   5.557   3.078   0.077  0.1593  0.2425  0.3820
   81MOL    O9345053   5.667   3.025   0.077  0.0817  0.0762 -0.6243
   81MOL    C9445054   5.524   3.218   0.042 -0.0350 -0.0479  0.1895
   81MOL    C9545055   5.623   3.310   0.006  0.3400 -0.2012  0.1012
   81MOL    C9645056   5.591   3.436   8.044  0.1149  0.0897 -0.0767
   81MOL    C9745057   5.456   3.471   8.035  0.1576 -0.2618 -0.1177
   81MOL    C9845058   5.409   3.605   7.976  0.4514 -0.0066 -0.4270
   81MOL    O9945059   5.475   3.706   7.997 -0.0349 -0.0166  0.2236
   81MOL   C10045060   5.355   3.387   8.084 -0.2290 -0.1013  0.0566
   81MOL   C10145061   5.387   3.258   0.039 -0.7258 -0.4978  0.2159
   81MOL   H10245062   5.518   2.757   0.509  0.1784 -0.8993  0.5553
   81MOL   H10345063   5.549   2.581   0.460  0.7772  0.8786  1.5779
   81MOL   H10445064   5.461   2.651   0.232 -0.2627 -0.3356  0.4200
   81MOL   H10545065   5.619   2.718   0.283  0.1840  1.1422  0.8906
   81MOL   H10645066   5.358   2.869   0.334  0.4616 -0.5537  1.0577
   81MOL   H10745067   5.529   2.925   0.328 -0.6213 -0.2688  0.6446
   81MOL   H10845068   5.529   2.817   0.074  0.4401  1.2343 -0.8735
   81MOL   H10945069   5.358   2.824   0.093  0.0977  0.4895  0.3994
   81MOL   H11045070   5.729   3.291   8.095  0.5798  1.4087 -0.7182
   81MOL   H11145071   5.669   3.492   7.994 -1.3226  0.8979 -1.4566
   81MOL   H11245072   5.254   3.426   8.082 -0.1111  0.4434  2.6475
   81MOL   H11345073   5.302   3.194   0.061 -0.7309 -0.1182  1.3421
   81MOL   O11445074   5.294   3.599   7.900  0.0094 -0.1165 -0.2521
   81MOL   C11545075   5.269   3.711   7.820  0.5430  0.0553  0.1101
   81MOL   C11645076   5.280   3.675   7.676  0.0386  0.4126 -0.5396
   81MOL   C11745077   5.335   3.796   7.599 -0.5633  0.7216  0.1073
   81MOL   C11845078   5.296   3.782   7.453 -0.1232 -0.1524  0.4153
   81MOL   O11945079   5.337   3.896   7.380  0.3474 -0.3048 -0.5507
   81MOL   C12045080   5.333   3.903   7.246  0.0138 -0.3807  0.4532
   81MOL   O12145081   5.284   3.814   7.175 -0.3374 -0.2505 -0.3634
   81MOL   C12245082   5.395   4.029   7.192  0.6233 -0.0527 -0.7909
   81MOL   C12345083   5.442   4.121   7.287  1.0514  0.8636 -0.2057
   81MOL   C12445084   5.513   4.234   7.236 -0.2405  0.3462 -0.1852
   81MOL   C12545085   5.514   4.260   7.102 -0.2358 -0.2244  0.9181
   81MOL   C12645086   5.579   4.397   7.056  0.4982 -0.4969  0.3232
   81MOL   O12745087   5.669   4.455   7.118  0.2494 -0.1136 -0.0790
   81MOL   C12845088   5.453   4.171   7.008  0.6428  0.4721 -0.1551
   81MOL   C12945089   5.392   4.053   7.053 -0.3254 -0.1104  0.5213
   81MOL   H13045090   5.170   3.747   7.847  0.8156  0.4831  0.5361
   81MOL   H13145091   5.335   3.794   7.845 -0.8300  1.0660  0.4188
   81MOL   H13245092   5.180   3.642   7.646 -0.6268 -0.5774  2.6051
   81MOL   H13345093   5.345   3.588   7.663 -1.1398 -0.6589  0.6425
   81MOL   H13445094   5.290   3.886   7.639  1.2586  1.2697  0.9665
   81MOL   H13545095   5.443   3.804   7.594 -0.2368 -1.7245  1.8665
   81MOL   H13645096   5.348   3.695   7.413 -0.1254 -1.3303  2.8948
   81MOL   H13745097   5.189   3.760   7.447  0.5847 -3.4917 -1.1759
   81MOL   H13845098   5.447   4.107   7.394 -0.9338  0.7898 -0.0957
   81MOL   H13945099   5.554   4.307   7.304 -0.1321 -0.4287  0.5911
   81MOL   H14045100   5.451   4.203   6.905 -0.1547  0.8374 -0.0363
   81MOL   H14145101   5.347   3.988   6.979  1.7258  2.5978 -3.2713
   81MOL   O14245102   5.544   4.424   6.926 -0.6435 -0.2501  0.4414
   81MOL   C14345103   5.592   4.538   6.859  0.2459 -0.4822 -0.6133
   81MOL   C14445104   5.740   4.516   6.804  0.7502 -0.1424 -0.1062
   81MOL   C14545105   5.752   4.408   6.696 -0.2699 -0.3834 -0.6436
   81MOL   C14645106   5.656   4.432   6.580  0.0721  0.3583  0.2814
   81MOL   O14745107   5.518   4.396   6.614 -0.3091  0.0858  0.6049
   81MOL   C14845108   5.407   4.455   6.568  0.4763  0.2539 -0.6772
   81MOL   O14945109   5.408   4.553   6.488  0.1303  0.2029  0.2598
   81MOL   C15045110   5.283   4.414   6.633  0.0135  0.2785  0.1166
   81MOL   C15145111   5.166   4.481   6.612  0.4917  0.2853  0.1453
   81MOL   C15245112   5.042   4.431   6.670  0.6063 -0.3049 -0.0896
   81MOL   C15345113   5.047   4.317   6.756  0.3992 -0.2264  0.4081
   81MOL   C15445114   4.921   4.252   6.816  0.6521 -0.2203  0.4445
   81MOL   O15545115   4.804   4.285   6.792 -0.5049  0.3225 -0.5789
   81MOL   C15645116   5.169   4.261   6.782  0.0777  0.4322 -0.7824
   81MOL   C15745117   5.281   4.308   6.718 -0.6665 -0.5388 -0.9593
   81MOL   H15845118   5.518   4.572   6.787  1.0141  2.0663 -0.2651
   81MOL   H15945119   5.590   4.612   6.939 -1.8086 -0.1330 -0.9616
   81MOL   H16045120   5.806   4.491   6.888  0.9636  1.1923  0.1399
   81MOL   H16145121   5.777   4.606   6.755  0.1593  1.0856  1.6305
   81MOL   H16245122   5.851   4.398   6.651  0.1921 -2.5819  0.7656
   81MOL   H16345123   5.728   4.313   6.744 -0.0942 -0.0192  0.1746
   81MOL   H16445124   5.672   4.528   6.530 -1.3043 -0.3045 -1.4983
   81MOL   H16545125   5.688   4.357   6.508 -1.9395 -0.7711  0.5320
   81MOL   H16645126   5.166   4.572   6.554  0.5584 -1.9094 -3.4043
   81MOL   H16745127   4.946   4.472   6.642 -0.2507 -1.6054  0.8868
   81MOL   H16845128   5.192   4.175   6.843  1.3338  1.9055  0.8787
   81MOL   H16945129   5.375   4.257   6.738 -0.0642  0.5516 -0.9770
   81MOL   O17045130   4.950   4.156   6.908 -0.0884 -0.3355 -0.7077
   81MOL   C17145131   4.836   4.114   6.984 -0.2492  0.1181  0.1982
   81MOL   C17245132   4.888   4.011   7.080  0.8192 -0.7540  0.4519
   81MOL   C17345133   4.942   3.870   7.043  0.4309 -0.2862  0.3869
   81MOL   C17445134   5.062   3.877   6.945 -0.0585  0.3047 -0.0165
   81MOL   O17545135   5.025   3.910   6.814  0.0444  0.1936 -0.5294
   81MOL   C17645136   5.115   3.930   6.719 -0.1244 -0.1039 -0.0755
   81MOL   O17745137   5.240   3.921   6.740 -0.1200  0.4333  0.0752
   81MOL   C17845138   5.058   3.963   6.589 -0.6749 -0.5760  0.1375
   81MOL   C17945139   4.915   3.977   6.583  0.7205 -0.0737  0.3106
   81MOL   C18045140   4.854   4.012   6.464 -0.4098 -0.3186 -0.4498
   81MOL   C18145141   4.924   4.024   6.352  0.0861  0.3227 -0.3416
   81MOL   C18245142   4.863   4.064   6.227  0.5103 -0.3673  0.4209
   81MOL   O18345143   4.913   4.045   6.120 -0.4146 -0.1289  0.4877
   81MOL   C18445144   5.068   4.011   6.352 -0.4332 -0.1801  0.5516
   81MOL   C18545145   5.134   3.983   6.476  0.0478  0.4427 -0.4335
   81MOL   H18645146   4.783   4.198   7.029  1.2325  1.1170  0.1245
   81MOL   H18745147   4.771   4.059   6.916 -0.6905  0.8193  0.0501
   81MOL   H18845148   4.826   4.010   7.169 -1.1715 -1.7249 -0.8943
   81MOL   H18945149   4.979   4.051   7.124  1.1898 -4.3891  3.2332
   81MOL   H19045150   4.977   3.823   7.135 -0.1628  0.5897  1.0692
   81MOL   H19145151   4.864   3.804   7.004  1.0663 -1.4806  1.1269
   81MOL   H19245152   5.139   3.950   6.967  0.9412  0.2019 -2.9448
   81MOL   H19345153   5.114   3.782   6.937 -1.7273 -0.5374 -1.2868
   81MOL   H19445154   4.847   3.962   6.666  1.2374  1.6127  1.0576
   81MOL   H19545155   4.748   4.034   6.468 -0.4027 -0.2440 -0.6490
   81MOL   H19645156   5.135   4.020   6.268 -0.8302  0.8217  0.3412
   81MOL   H19745157   5.242   3.978   6.485 -0.2701 -1.9077  2.6462
   81MOL   O19845158   4.739   4.115   6.246  0.0886 -0.3923 -0.3536
   81MOL   C19945159   4.665   4.170   6.137 -0.2815  0.7750  0.1599
   81MOL   C20045160   4.589   4.289   6.207  0.5238 -0.2240 -0.3319
   81MOL   C20145161   4.678   4.408   6.255 -0.9182  0.0916  0.3908
   81MOL   C20245162   4.601   4.524   6.311 -0.8621  1.2079 -0.1974
   81MOL   O20345163   4.551   4.482   6.440 -0.4538  0.6306  0.0934
   81MOL   C20445164   4.416   4.505   6.464 -0.0090  0.5152  0.8344
   81MOL   O20545165   4.339   4.564   6.392 -0.0253  0.5804  0.1529
   81MOL   C20645166   4.381   4.439   6.593  0.4919  0.1361 -0.1635
   81MOL   C20745167   4.246   4.461   6.639  0.3877 -0.0143  0.4357
   81MOL   C20845168   4.205   4.409   6.762  0.0148  0.1212  0.0847
   81MOL   C20945169   4.280   4.316   6.833  0.0190 -0.2721  0.3925
   81MOL   C21045170   4.230   4.262   6.965 -0.7738  0.6836 -0.0938
   81MOL   O21145171   4.291   4.191   7.049  0.1088  0.4251  0.3359
   81MOL   C21245172   4.406   4.288   6.784  0.1733  0.4076  0.5617
   81MOL   C21345173   4.458   4.347   6.664  0.1918  0.3611  0.3133
   81MOL   H21445174   4.730   4.206   6.057 -1.5636 -0.2660 -1.3762
   81MOL   H21545175   4.602   4.089   6.101  0.2565  0.0135  0.8940
   81MOL   H21645176   4.530   4.248   6.290  2.7897 -1.9159  0.4847
   81MOL   H21745177   4.515   4.313   6.131 -2.0491 -1.8908  1.5604
   81MOL   H21845178   4.767   4.377   6.310  0.4985  0.2702 -1.7434
   81MOL   H21945179   4.717   4.446   6.161  2.8994 -0.4952  1.6717
   81MOL   H22045180   4.657   4.616   6.328 -1.3705  1.3358  0.8016
   81MOL   H22145181   4.520   4.541   6.240 -1.7910  0.4581  0.6634
   81MOL   H22245182   4.174   4.529   6.595  1.3364  0.2516 -0.7487
   81MOL   H22345183   4.114   4.446   6.806  1.2838  0.7722  2.2654
   81MOL   H22445184   4.471   4.218   6.833  1.1863 -0.1647 -1.5373
   81MOL   H22545185   4.557   4.321   6.629 -0.2682  1.2068 -1.6520
   81MOL   O22645186   4.109   4.321   6.998 -0.5464  0.2805 -0.1765
   81MOL   C22745187   4.053   4.308   7.127  0.1882  0.2936 -0.7414
   81MOL   C22845188   4.106   4.415   7.231  0.1913 -0.0520 -0.3270
   81MOL   C22945189   4.036   4.552   7.233  0.5914 -0.0846 -0.1338
   81MOL   C23045190   4.060   4.634   7.106  0.1262 -0.0357  0.0831
   81MOL   O23145191   3.964   4.608   7.004 -0.3005 -0.0055  0.0957
   81MOL   C23245192   3.836   4.659   7.012  0.2805  0.6072  0.6418
   81MOL   O23345193   3.790   4.741   7.093 -0.2856 -0.2155 -0.2422
   81MOL   C23445194   3.739   4.601   6.906 -0.9143  0.3096 -0.8919
   81MOL   C23545195   3.618   4.663   6.883 -0.0044 -0.5272  0.4447
   81MOL   C23645196   3.523   4.614   6.793 -0.8302 -0.2501 -0.4014
   81MOL   C23745197   3.570   4.500   6.719  0.1609 -0.8847 -0.6060
   81MOL   C23845198   3.480   4.454   6.609  0.2937  0.0438 -0.7677
   81MOL   O23945199   3.399   4.533   6.558  0.5808  0.6338 -0.3018
   81MOL   C24045200   3.694   4.439   6.739  0.1793  0.5911 -0.0757
   81MOL   C24145201   3.778   4.481   6.839  0.5387  0.5352 -0.9814
   81MOL   H24245202   3.945   4.325   7.120  0.1825  1.1632  1.1980
   81MOL   H24345203   4.064   4.210   7.174 -0.8562  0.8531  0.7370
   81MOL   H24445204   4.213   4.434   7.225  0.2294 -0.1781 -0.0444
   81MOL   H24545205   4.084   4.370   7.327 -0.2469 -2.0550 -1.3489
   81MOL   H24645206   3.935   4.543   7.275  0.0651  2.5465 -0.7215
   81MOL   H24745207   4.084   4.611   7.311  0.1502 -0.5209  0.4767
   81MOL   H24845208   4.054   4.739   7.135 -2.1354  0.0834 -0.6734
   81MOL   H24945209   4.161   4.616   7.070  0.0800  0.1597 -0.1464
   81MOL   H25045210   3.588   4.748   6.941 -0.9532  1.0210 -2.2021
   81MOL   H25145211   3.429   4.666   6.782 -0.4886  0.7884  1.3704
   81MOL   H25245212   3.710   4.350   6.679 -2.1054 -1.4830  2.2991
   81MOL   H25345213   3.871   4.435   6.869  0.4212  1.8296  1.4904
   81MOL   O25445214   3.489   4.334   6.578 -0.0745  0.2439  0.0700
   81MOL   C25545215   3.381   4.271   6.512 -0.9473  0.7634 -0.7371
   81MOL   C25645216   3.355   4.137   6.588 -0.5974  0.0051 -0.7321
   81MOL   C25745217   3.269   4.029   6.510  0.7026  0.4285 -0.3771
   81MOL   C25845218   3.259   3.890   6.583 -0.5343 -0.2572  0.1718
   81MOL   O25945219   3.384   3.831   6.595 -0.9060 -0.6451 -0.1256
   81MOL   C26045220   3.393   3.705   6.647 -0.3350  0.5153  0.1425
   81MOL   O26145221   3.300   3.646   6.699 -0.2247 -0.4541 -0.0498
   81MOL   C26245222   3.527   3.646   6.628  0.8719  0.3781 -0.0243
   81MOL   C26345223   3.546   3.505   6.641 -0.8342 -0.3415  0.3034
   81MOL   C26445224   3.678   3.450   6.628 -0.3063 -0.0655 -0.2656
   81MOL   C26545225   3.791   3.536   6.613  0.6466  0.7689 -0.1671
   81MOL   C26645226   3.920   3.474   6.604 -0.6249 -1.1177 -0.9699
   81MOL   O26745227   3.943   3.367   6.659 -0.1120 -0.1151 -0.7049
   81MOL   C26845228   3.776   3.676   6.614  0.6975 -0.2276  0.4746
   81MOL   C26945229   3.644   3.731   6.623  0.3755 -0.1897  0.2965
   81MOL   H27045230   3.287   4.327   6.515 -0.7177  1.0664  1.3795
   81MOL   H27145231   3.405   4.243   6.409 -1.8878  0.0953 -0.7817
   81MOL   H27245232   3.319   4.160   6.688 -1.1037  1.9351 -1.3368
   81MOL   H27345233   3.449   4.084   6.607 -1.9357 -2.2620 -0.1962
   81MOL   H27445234   3.172   4.077   6.499  0.7501  0.5321 -0.3475
   81MOL   H27545235   3.307   4.014   6.409  1.2158  1.7080 -0.3960
   81MOL   H27645236   3.210   3.889   6.681 -1.3801  0.0090 -0.2418
   81MOL   H27745237   3.192   3.825   6.527 -0.8167 -1.6355  2.0604
   81MOL   H27845238   3.465   3.437   6.666 -0.1205 -1.1088  0.5750
   81MOL   H27945239   3.698   3.345   6.637  1.4163  0.3808  1.4198
   81MOL   H28045240   3.857   3.746   6.601 -0.4037  1.1191  0.7044
   81MOL   H28145241   3.631   3.838   6.612 -1.1872 -0.4120 -0.1479
   81MOL   O28245242   4.001   3.544   6.529 -0.0528  0.0083  0.9271
   81MOL   C28345243   4.133   3.493   6.509 -0.5034  0.2596 -0.9133
   81MOL   C28445244   4.220   3.583   6.414 -0.1868  0.0036  0.3244
   81MOL   C28545245   4.313   3.508   6.316 -0.1793 -0.9283  0.1238
   81MOL   C28645246   4.430   3.429   6.379  0.6463  0.0907 -0.5278
   81MOL   O28745247   4.385   3.318   6.456 -0.1903  0.2549 -0.2629
   81MOL   C28845248   4.466   3.210   6.464 -0.0321  0.0947 -0.4182
   81MOL   O28945249   4.582   3.206   6.422  0.6858 -0.3502 -0.0278
   81MOL   C29045250   4.413   3.088   6.548 -0.8216  0.0811 -0.5254
   81MOL   C29145251   4.497   2.985   6.564  0.4311  0.1633 -0.8877
   81MOL   C29245252   4.463   2.877   6.647  0.1662 -0.6181  0.4176
   81MOL   C29345253   4.327   2.865   6.690 -0.3323  0.9313 -0.7129
   81MOL   C29445254   4.282   2.747   6.771 -0.1141  0.1450  0.3648
   81MOL   O29545255   4.183   2.751   6.845 -0.3384  0.0440 -0.4640
   81MOL   C29645256   4.231   2.965   6.655  0.1156 -0.2195  1.0469
   81MOL   C29745257   4.276   3.079   6.592 -0.3162 -0.1435  0.7515
   81MOL   H29845258   4.175   3.465   6.606  2.3315 -1.3826 -2.5225
   81MOL   H29945259   4.121   3.405   6.445 -0.8266  0.1157 -0.6555
   81MOL   H30045260   4.270   3.667   6.464 -0.9586 -0.0150  1.1420
   81MOL   H30145261   4.149   3.631   6.347 -2.1069 -0.5234  1.9170
   81MOL   H30245262   4.256   3.435   6.257 -2.6258  1.8994 -1.1478
   81MOL   H30345263   4.346   3.583   6.244 -2.8154  1.3493  1.1730
   81MOL   H30445264   4.493   3.393   6.297 -0.8803  0.4606 -1.8831
   81MOL   H30545265   4.501   3.492   6.434 -1.7287  3.5183 -1.2297
   81MOL   H30645266   4.590   2.990   6.509  0.7014 -1.0952 -0.5549
   81MOL   H30745267   4.533   2.796   6.662  0.0571 -1.7453 -4.2870
   81MOL   H30845268   4.126   2.961   6.678  0.0075 -2.6684  0.3236
   81MOL   H30945269   4.201   3.157   6.583 -1.4171 -1.0996  1.4187
   81MOL   O31045270   4.376   2.642   6.755  0.2084 -0.0256  0.0309
   81MOL   C31145271   4.346   2.508   6.805  0.2840  0.3665 -0.8344
   81MOL   C31245272   4.381   2.490   6.955 -0.4561  0.0321  0.0072
   81MOL   C31345273   4.397   2.348   6.992  0.2516 -0.2942 -0.3440
   81MOL   C31445274   4.424   2.361   7.146 -0.7789  0.1122 -0.8029
   81MOL   O31545275   4.473   2.239   7.202 -0.3475 -0.0217  0.0622
   81MOL   C31645276   4.529   2.235   7.327 -0.0938  0.5386 -0.0594
   81MOL   O31745277   4.506   2.320   7.410 -0.3995  0.9593  0.0398
   81MOL   C31845278   4.611   2.114   7.342 -0.1398 -0.0245  0.1109
   81MOL   C31945279   4.702   2.077   7.238 -0.2744 -0.0320  0.4497
   81MOL   C32045280   4.777   1.958   7.250 -0.0807  0.4799 -0.2605
   81MOL   C32145281   4.766   1.881   7.367  0.1815 -0.1124 -0.0914
   81MOL   C32245282   4.850   1.767   7.398 -0.1498 -0.3504 -0.0890
   81MOL   O32345283   4.824   1.691   7.496  0.0953  0.1653  0.7970
   81MOL   C32445284   4.677   1.924   7.468  0.0894  0.9961 -0.4177
   81MOL   C32545285   4.598   2.037   7.456  0.6178 -0.4979 -0.7164
   81MOL   H32645286   4.241   2.487   6.790  0.2846 -1.3911  1.3883
   81MOL   H32745287   4.405   2.438   6.747 -2.5999 -1.2778 -1.8735
   81MOL   H32845288   4.297   2.533   7.009  1.1231  0.4389  2.1846
   81MOL   H32945289   4.468   2.553   6.974 -0.0034  0.0139 -1.8355
   81MOL   H33045290   4.304   2.293   6.976 -0.2821  0.6410 -0.4512
   81MOL   H33145291   4.482   2.301   6.940  0.3411 -1.1834  0.5882
   81MOL   H33245292   4.496   2.442   7.159  1.1429 -2.0124  2.2929
   81MOL   H33345293   4.331   2.388   7.195 -0.4975  1.6094 -1.0662
   81MOL   H33445294   4.729   2.143   7.157  1.2569 -0.3272  0.7156
   81MOL   H33545295   4.843   1.927   7.170  1.9783  0.6260  1.3442
   81MOL   H33645296   4.651   1.871   7.558 -0.3640  1.1960 -0.4287
   81MOL   H33745297   4.536   2.069   7.538  2.2685 -1.2003  0.8499
   81MOL   O33845298   4.961   1.767   7.324 -0.4512 -0.3008 -0.3706
   81MOL   C33945299   5.085   1.724   7.372 -0.0032  0.5685 -1.0307
   81MOL   C34045300   5.201   1.785   7.309 -0.3462 -0.2012 -0.3197
   81MOL   C34145301   5.191   1.934   7.310  0.3080  0.4524 -0.2849
   81MOL   C34245302   5.318   2.007   7.269  0.6510  0.4123  0.0188
   81MOL   O34345303   5.370   1.974   7.135  0.0691 -0.1583  0.3637
   81MOL   C34445304   5.469   2.057   7.085  0.9726  0.5076 -0.3263
   81MOL   O34545305   5.498   2.164   7.137  0.2539  0.4181  0.2717
   81MOL   C34645306   5.529   2.005   6.958 -0.3334  0.3113  0.4015
   81MOL   C34745307   5.504   1.875   6.900  0.6890  0.2207 -0.3878
   81MOL   C34845308   5.584   1.823   6.795  0.6672 -0.4050  0.0772
   81MOL   C34945309   5.687   1.899   6.741 -0.3874  0.2183 -0.2862
   81MOL   C35045310   5.765   1.841   6.632  0.1839 -1.0373 -0.6694
   81MOL   O35145311   5.763   1.723   6.598  0.2019 -0.4670 -0.2595
   81MOL   C35245312   5.705   2.031   6.787 -0.3029  0.0593 -0.0223
   81MOL   C35345313   5.624   2.084   6.893  0.2060  0.5341  0.7424
   81MOL   H35445314   5.103   1.724   7.480  1.6240 -1.3116 -1.2749
   81MOL   H35545315   5.099   1.616   7.363  4.2181  0.8501  0.9848
   81MOL   H35645316   5.194   1.744   7.208  0.2832  1.5949 -1.1204
   81MOL   H35745317   5.290   1.756   7.364  1.0645  0.7306 -2.0476
   81MOL   H35845318   5.104   1.976   7.259 -0.5552 -0.9576 -0.0276
   81MOL   H35945319   5.167   1.975   7.408 -0.9418  1.6375 -1.0612
   81MOL   H36045320   5.298   2.113   7.285  0.3234  0.1775  1.1762
   81MOL   H36145321   5.395   1.975   7.339  1.4765 -0.5766 -1.3136
   81MOL   H36245322   5.422   1.816   6.940 -1.4371  1.4757 -2.7485
   81MOL   H36345323   5.575   1.724   6.753  0.2356 -0.4735  0.3216
   81MOL   H36445324   5.784   2.092   6.747 -0.4110  0.8383  0.9523
   81MOL   H36545325   5.635   2.188   6.921 -2.7949  1.7528 -2.2889
   81MOL   O36645326   5.837   1.932   6.566 -0.2439 -0.5330  0.4283
   81MOL   C36745327   5.922   1.898   6.457 -0.3187  0.3233  0.4132
   81MOL   C36845328   5.941   2.017   6.369 -0.4494  0.1525  0.1414
   81MOL   C36945329   6.051   1.999   6.257  0.0353 -0.5283  0.0401
   81MOL   C37045330   6.100   2.131   6.201 -0.1380  0.8859  0.0624
   81MOL   O37145331   6.001   2.205   6.135  0.0433  0.2334 -0.5044
   81MOL   C37245332   6.010   2.342   6.128 -0.5777  0.5278 -0.2708
   81MOL   O37345333   6.089   2.410   6.194  0.1128  0.0935  0.2167
   81MOL   C37445334   5.907   2.395   6.037 -0.9359  0.1126  0.0380
   81MOL   C37545335   5.883   2.535   6.027 -0.3579 -0.3716  0.6170
   81MOL   C37645336   5.786   2.583   5.939 -1.1474 -0.4992  0.1770
   81MOL   C37745337   5.710   2.501   5.860 -0.1527 -0.0025  0.0213
   81MOL   C37845338   5.595   2.548   5.768 -0.2835  0.3925 -0.2251
   81MOL   O37945339   5.529   2.468   5.694  0.3573 -0.5743 -0.2278
   81MOL   C38045340   5.729   2.369   5.868  0.1756  0.7776 -0.1394
   81MOL   C38145341   5.828   2.310   5.951  0.9998  0.3916  0.1853
   81MOL   H38245342   6.022   1.863   6.482 -0.1629  1.1722  1.0308
   81MOL   H38345343   5.874   1.818   6.400 -1.8101  2.0563 -0.8337
   81MOL   H38445344   5.968   2.106   6.425 -1.1919  0.4368  0.0527
   81MOL   H38545345   5.845   2.041   6.322 -0.9213 -0.9167  0.5283
   81MOL   H38645346   6.132   1.944   6.304  0.4917 -0.5936 -0.8005
   81MOL   H38745347   6.010   1.939   6.175 -1.1295 -0.8338  0.8343
   81MOL   H38845348   6.141   2.188   6.285 -0.3104  1.3098 -0.1425
   81MOL   H38945349   6.185   2.115   6.135  1.2524  1.4365  1.6693
   81MOL   H39045350   5.932   2.606   6.093  3.6745 -1.2042 -1.3167
   81MOL   H39145351   5.776   2.690   5.927 -0.0694 -0.8364 -4.2193
   81MOL   H39245352   5.663   2.297   5.821 -0.7386  0.7719  1.1013
   81MOL   H39345353   5.837   2.203   5.957 -1.4138 -0.0763 -2.7413
   81MOL   O39445354   5.568   2.678   5.778  0.0280 -0.1398  0.5348
   81MOL   C39545355   5.464   2.739   5.705  0.4118 -0.2988  0.1962
   81MOL   C39645356   5.336   2.780   5.791  0.4516 -0.0664 -0.6535
   81MOL   C39745357   5.288   2.667   5.879  0.6498  0.4511 -0.4141
   81MOL   C39845358   5.176   2.700   5.972  0.3391 -0.1143  0.1835
   81MOL   O39945359   5.153   2.593   6.068  1.3178 -0.5609 -0.4052
   81MOL   C40045360   5.033   2.580   6.118 -0.4131  0.0690 -0.2060
   81MOL   O40145361   4.943   2.660   6.098 -0.5749  0.1350  0.0020
   81MOL   C40245362   5.023   2.463   6.208 -0.5533  0.1750  0.9585
   81MOL   C40345363   4.899   2.426   6.273  0.4250 -1.1392  0.5327
   81MOL   C40445364   4.891   2.318   6.356 -0.5229  0.4641  0.2811
   81MOL   C40545365   5.009   2.241   6.390  0.4617 -0.2039 -0.2609
   81MOL   C40645366   5.009   2.134   6.491  0.0716  0.0886  0.3423
   81MOL   O40745367   4.912   2.110   6.561  0.5827 -0.1595 -0.6531
   81MOL   C40845368   5.131   2.270   6.317  0.0913 -0.9152  0.0882
   81MOL   C40945369   5.143   2.382   6.228 -0.6369 -0.0262 -0.3487
   81MOL   H41045370   5.506   2.837   5.685 -2.3487  1.1632  1.2481
   81MOL   H41145371   5.432   2.685   5.616 -1.2696 -0.4269  0.8389
   81MOL   H41245372   5.260   2.824   5.725 -2.3350 -2.0068  1.1561
   81MOL   H41345373   5.364   2.862   5.857 -0.4245 -0.1780 -0.1287
   81MOL   H41445374   5.260   2.582   5.816 -2.8015 -0.6289  2.3930
   81MOL   H41545375   5.373   2.629   5.935  0.6248  0.5114 -0.3364
   81MOL   H41645376   5.216   2.793   6.012  1.7155  0.6973 -2.9283
   81MOL   H41745377   5.085   2.725   5.918 -0.0582  2.0179  1.7660
   81MOL   H41845378   4.817   2.493   6.255 -0.3876 -1.5557  2.5327
   81MOL   H41945379   4.795   2.295   6.400 -0.7846 -0.1887 -0.6040
   81MOL   H42045380   5.212   2.202   6.336 -0.0136 -1.2002 -0.4694
   81MOL   H42145381   5.233   2.401   6.171  0.1255 -1.0122  0.5016
   81MOL   O42245382   5.138   2.082   6.503  0.0184  0.2123  0.6319
   81MOL   C42345383   5.175   1.980   6.590 -0.0680  0.2162 -0.2205
   81MOL   C42445384   5.328   1.981   6.600  0.3252 -0.0950  0.0623
   81MOL   C42545385   5.388   1.956   6.460 -0.1565 -0.3387  1.1954
   81MOL   C42645386   5.519   2.031   6.445 -1.0786  0.0682  0.0086
   81MOL   O42745387   5.495   2.175   6.423  0.4536  0.1145 -0.1105
   81MOL   C42845388   5.545   2.233   6.317 -0.2636 -0.2420  0.3250
   81MOL   O42945389   5.610   2.172   6.228  0.7543 -0.3615 -0.3411
   81MOL   C43045390   5.512   2.377   6.312  0.3371 -0.1488  0.1918
   81MOL   C43145391   5.455   2.441   6.425 -0.2144 -0.2877 -0.7639
   81MOL   C43245392   5.406   2.573   6.425 -0.1728  0.1074 -0.1554
   81MOL   C43345393   5.431   2.652   6.307 -0.3233 -0.0772  0.8953
   81MOL   C43445394   5.375   2.791   6.291  0.1676 -0.1657  0.2991
   81MOL   O43545395   5.410   2.853   6.194 -0.4239 -0.7520 -0.4385
   81MOL   C43645396   5.508   2.592   6.206 -0.0176 -0.7042  0.0514
   81MOL   C43745397   5.540   2.454   6.200  0.1258 -0.0181 -0.1729
   81MOL   H43845398   5.122   2.001   6.683  0.3030  0.9228 -0.1672
   81MOL   H43945399   5.132   1.889   6.548 -0.2716 -0.3433  1.1781
   81MOL   H44045400   5.354   1.904   6.674  0.3412  1.2314  1.4700
   81MOL   H44145401   5.367   2.075   6.639  0.7188  0.4028 -1.5072
   81MOL   H44245402   5.409   1.851   6.442 -0.2288 -0.2310  0.4734
   81MOL   H44345403   5.324   1.999   6.383  0.6434 -0.2896  0.5550
   81MOL   H44445404   5.579   2.028   6.536 -1.5514 -0.8746  0.2924
   81MOL   H44545405   5.579   1.988   6.365 -1.0328  1.0216 -0.4751
   81MOL   H44645406   5.448   2.382   6.515  0.5117  0.3277 -0.3030
   81MOL   H44745407   5.376   2.618   6.519  2.2777 -1.7196  1.5846
   81MOL   H44845408   5.543   2.655   6.126  0.2631 -0.1802  0.5885
   81MOL   H44945409   5.594   2.431   6.109  0.9866 -0.7442  0.5124
   81MOL   O45045410   5.286   2.823   6.385 -0.5239  0.2111  0.1850
   81MOL   C45145411   5.218   2.944   6.385 -0.1259 -0.7095  0.1927
   81MOL   C45245412   5.097   2.920   6.296  0.5219 -0.6697  0.6082
   81MOL   C45345413   5.006   3.044   6.277  0.5544 -0.1679 -0.5374
   81MOL   C45445414   4.863   3.019   6.228 -0.4400 -0.2887 -0.1022
   81MOL   O45545415   4.810   3.146   6.200  0.2034  0.4552 -0.0278
   81MOL   C45645416   4.700   3.151   6.122  0.9245  0.0157  0.2651
   81MOL   O45745417   4.631   3.051   6.099  0.0953  0.0010 -0.5866
   81MOL   C45845418   4.667   3.282   6.074 -0.4402 -0.1084 -0.0902
   81MOL   C45945419   4.578   3.299   5.965 -0.0871 -0.2592  0.6489
   81MOL   C46045420   4.537   3.428   5.925 -0.4505 -0.0468  0.3660
   81MOL   C46145421   4.577   3.543   6.000  0.1813 -0.3962  0.2629
   81MOL   C46245422   4.528   3.678   5.964 -0.4130 -0.3737 -0.0529
   81MOL   O46345423   4.580   3.782   6.001  0.0188 -0.0379  0.3604
   81MOL   C46445424   4.668   3.523   6.111  0.0268 -0.6535 -0.5337
   81MOL   C46545425   4.714   3.397   6.141 -0.1287 -0.4414  0.8463
   81MOL   H46645426   5.205   2.973   6.489  1.7740 -0.1913  0.3090
   81MOL   H46745427   5.272   3.028   6.340 -1.3819 -0.9710 -1.8578
   81MOL   H46845428   5.046   2.833   6.337 -1.5743 -0.1541 -0.8135
   81MOL   H46945429   5.124   2.874   6.201  0.2098 -0.3047  0.3442
   81MOL   H47045430   4.995   3.094   6.374  0.0881 -0.4835 -0.4222
   81MOL   H47145431   5.045   3.127   6.219  3.5769  1.5089  3.6286
   81MOL   H47245432   4.856   2.962   6.136  0.1903 -1.0733  0.3399
   81MOL   H47345433   4.802   2.976   6.307  0.3996 -0.6048  0.3722
   81MOL   H47445434   4.533   3.218   5.909 -2.5213  0.3705  1.6087
   81MOL   H47545435   4.476   3.434   5.836  0.4061  0.9411 -0.1664
   81MOL   H47645436   4.699   3.603   6.177 -1.7103  0.2327 -0.7651
   81MOL   H47745437   4.787   3.388   6.220  0.7557  0.3560  0.1299
   81MOL   O47845438   4.410   3.662   5.892  0.2857  0.1139  0.0014
   81MOL   C47945439   4.334   3.778   5.857 -0.4262  0.0956  0.0086
   81MOL   C48045440   4.205   3.724   5.783  0.4815  0.8003  1.0534
   81MOL   C48145441   4.102   3.830   5.736 -0.2282 -0.2272  0.0011
   81MOL   C48245442   3.967   3.760   5.709 -0.1414  0.0841 -0.6186
   81MOL   O48345443   3.876   3.845   5.648 -0.8435  0.1405  0.3099
   81MOL   C48445444   3.740   3.827   5.648 -0.4399  0.5352 -0.2589
   81MOL   O48545445   3.689   3.724   5.693  0.3334 -0.1031  0.2911
   81MOL   C48645446   3.662   3.936   5.586  0.4469 -0.3616  0.1754
   81MOL   C48745447   3.728   4.054   5.553  0.0623  0.0992  0.0626
   81MOL   C48845448   3.657   4.170   5.518  0.1720  0.0271 -0.7554
   81MOL   C48945449   3.514   4.171   5.515  1.0025 -0.0655 -0.3626
   81MOL   C49045450   3.433   4.290   5.479 -0.3670 -0.3492 -0.6365
   81MOL   O49145451   3.311   4.291   5.457 -0.0805  0.1359  0.3428
   81MOL   C49245452   3.449   4.048   5.552 -1.1065 -0.1252  0.1190
   81MOL   C49345453   3.519   3.930   5.586  0.8385  0.0747 -0.6645
   81MOL   H49445454   4.314   3.829   5.952 -2.6224 -0.6820 -0.0084
   81MOL   H49545455   4.380   3.846   5.786 -0.3707  2.4323  2.2069
   81MOL   H49645456   4.150   3.673   5.863 -2.8502  1.9036 -0.4116
   81MOL   H49745457   4.229   3.643   5.714  2.4712  1.5397  0.8474
   81MOL   H49845458   4.097   3.900   5.819 -2.3795  0.3686 -0.6054
   81MOL   H49945459   4.131   3.888   5.649  4.9734 -1.5458  0.6418
   81MOL   H50045460   4.003   3.672   5.655  0.6985  0.2277 -0.3022
   81MOL   H50145461   3.915   3.732   5.800  0.6127 -0.7413 -0.4308
   81MOL   H50245462   3.835   4.071   5.557  0.2961 -0.8278 -2.0605
   81MOL   H50345463   3.718   4.258   5.501  1.3240 -0.5889  0.1049
   81MOL   H50445464   3.341   4.039   5.553 -1.0399 -0.8758  0.4894
   81MOL   H50545465   3.463   3.851   5.634  0.4067  0.9218  0.2547
   81MOL   O50645466   3.515   4.396   5.460  0.2163  0.3654  0.0156
   81MOL   C50745467   3.467   4.529   5.447  0.1514 -0.7318 -0.0814
   81MOL   C50845468   3.427   4.583   5.587  0.3486  0.0932 -0.4246
   81MOL   C50945469   3.549   4.645   5.659 -0.5715 -0.5394 -0.1703
   81MOL   C51045470   3.610   4.556   5.765  0.1976 -0.1453  0.4654
   81MOL   O51145471   3.738   4.576   5.820 -0.5211 -0.2824  0.5760
   81MOL   C51245472   3.846   4.523   5.761 -0.3197  0.4806  0.5170
   81MOL   O51345473   3.848   4.440   5.670  0.3749 -0.2023  0.1665
   81MOL   C51445474   3.972   4.576   5.824 -0.2608  0.1225  0.2812
   81MOL   C51545475   3.974   4.687   5.906  0.1766  0.3744  0.1937
   81MOL   C51645476   4.090   4.730   5.969  0.5872  0.0549  0.2166
   81MOL   C51745477   4.215   4.660   5.946  0.0729 -0.7057 -0.2387
   81MOL   C51845478   4.350   4.695   6.007 -0.1896  0.3708  0.4077
   81MOL   O51945479   4.445   4.614   6.000  0.5101 -0.5502  0.2433
   81MOL   C52045480   4.207   4.545   5.864 -0.5552  0.2184  0.3838
   81MOL   C52145481   4.092   4.510   5.799  0.5135  0.3265 -0.6777
   81MOL   H52245482   3.541   4.592   5.398  0.5499  1.4400  3.1830
   81MOL   H52345483   3.379   4.524   5.383  1.9179 -0.8577 -2.5767
   81MOL   H52445484   3.371   4.513   5.650  1.0952 -0.8195 -0.7680
   81MOL   H52545485   3.354   4.663   5.576  1.4615  1.3991  1.3783
   81MOL   H52645486   3.618   4.672   5.579 -0.1288  1.3098  0.8194
   81MOL   H52745487   3.516   4.736   5.710 -3.7808 -1.7640  0.0302
   81MOL   H52845488   3.544   4.567   5.851 -2.2003  2.4805 -1.5962
   81MOL   H52945489   3.599   4.453   5.731 -1.7107  0.3977 -0.6500
   81MOL   H53045490   3.881   4.734   5.934 -1.4152 -3.0153  0.9578
   81MOL   H53145491   4.090   4.821   6.028  0.7426  0.0142  0.2790
   81MOL   H53245492   4.292   4.481   5.846 -1.2004  0.0749 -2.2960
   81MOL   H53345493   4.089   4.425   5.731 -1.6755 -0.2501  0.1094
   81MOL   O53445494   4.353   4.828   6.049 -0.0064 -0.5168  0.1641
   81MOL   C53545495   4.471   4.873   6.107  0.3019  0.2721  0.2914
   81MOL   C53645496   4.560   4.941   6.010  0.3558 -0.0824 -0.3138
   81MOL   C53745497   4.688   4.988   6.073 -0.2776  0.3060 -0.6872
   81MOL   C53845498   4.800   5.053   5.983 -0.5454 -0.4938  0.4133
   81MOL   O53945499   4.901   5.113   6.058 -0.0031 -0.2304 -1.0047
   81MOL   C54045500   4.922   5.252   6.045  0.3910 -0.8977 -0.1420
   81MOL   O54145501   4.848   5.324   5.973 -0.5144 -0.4411 -0.1070
   81MOL   C54245502   5.046   5.297   6.116 -0.2391  0.1194 -0.3029
   81MOL   C54345503   5.059   5.433   6.135 -0.3007  0.2599  0.2955
   81MOL   C54445504   5.172   5.482   6.203  0.1563 -0.1841 -0.0409
   81MOL   C54545505   5.276   5.394   6.242  0.2094 -0.2359 -0.6540
   81MOL   C54645506   5.395   5.458   6.313 -0.3720  0.0314 -0.4980
   81MOL   O54745507   5.495   5.397   6.347 -0.2662  0.2935 -0.4724
   81MOL   C54845508   5.270   5.252   6.211  0.1061 -0.3650  0.3638
   81MOL   C54945509   5.156   5.208   6.141 -0.2822 -0.1730  0.8059
   81MOL   H55045510   4.451   4.946   6.186  0.6926  0.6048  0.0818
   81MOL   H55145511   4.525   4.789   6.149 -1.1210  0.1792  2.0063
   81MOL   H55245512   4.507   5.019   5.955 -0.9859  3.3451  5.3622
   81MOL   H55345513   4.596   4.863   5.944 -0.3764 -0.9624  0.3145
   81MOL   H55445514   4.672   5.069   6.145  0.5354 -1.3995  1.4626
   81MOL   H55545515   4.726   4.901   6.127 -0.5367  1.9242  2.2013
   81MOL   H55645516   4.853   4.974   5.928 -0.2680  0.1822 -0.2963
   81MOL   H55745517   4.762   5.124   5.910 -1.0044 -2.0692 -0.9136
   81MOL   H55845518   4.980   5.499   6.104 -0.7480  0.7667  2.4465
   81MOL   H55945519   5.181   5.589   6.209  0.0474 -0.1856  0.1776
   81MOL   H56045520   5.351   5.190   6.246  0.8721 -0.9258 -2.3042
   81MOL   H56145521   5.151   5.104   6.113  0.5607  0.8852 -3.5241
   81MOL   H56245522   5.383   5.567   6.322 -1.2880 -0.0280 -0.9131
   82MOL     O145523   7.127   7.145   1.610 -0.5960 -0.1289 -0.2647
   82MOL     C245524   7.119   7.184   1.740  0.1797  0.1325  0.0192
   82MOL     C345525   7.108   7.331   1.747  0.7007  0.6224 -0.1488
   82MOL     C445526   6.961   7.371   1.708 -0.6905 -0.6428 -0.7725
   82MOL     C545527   6.935   7.522   1.701  0.6633 -0.1717  0.0824
   82MOL     O645528   6.795   7.541   1.698  0.2313 -0.5709  0.0008
   82MOL     C745529   6.746   7.668   1.689  0.0773  0.0183 -0.2609
   82MOL     O845530   6.823   7.770   1.684  0.5604  0.0090  0.4927
   82MOL     C945531   6.602   7.671   1.681 -0.3109  0.3332 -0.1605
   82MOL    C1045532   6.543   7.795   1.651  0.1299 -0.2855 -0.2702
   82MOL    C1145533   6.406   7.807   1.616  0.0432  0.0468  0.3421
   82MOL    C1245534   6.323   7.693   1.619 -0.1839  0.1664  0.5510
   82MOL    C1345535   6.179   7.708   1.578 -0.5451  0.1593 -0.1455
   82MOL    O1445536   6.133   7.813   1.536 -0.0714 -0.4357  0.3404
   82MOL    C1545537   6.386   7.569   1.654  0.5433  0.1395  0.3642
   82MOL    C1645538   6.522   7.555   1.685  0.3897 -0.0603  0.4869
   82MOL    H1745539   7.036   7.135   1.791  0.5784 -1.1145 -0.5063
   82MOL    H1845540   7.214   7.156   1.786  0.9456 -0.6781 -1.9911
   82MOL    H1945541   7.179   7.375   1.678  1.4037 -2.5125 -1.4693
   82MOL    H2045542   7.137   7.364   1.847 -0.6948  1.0591  0.1259
   82MOL    H2145543   6.925   7.336   1.612 -0.9189  1.6752 -1.5572
   82MOL    H2245544   6.889   7.320   1.773  1.5640 -0.4520  2.0189
   82MOL    H2345545   6.973   7.558   1.797  0.7134  0.4940 -0.1853
   82MOL    H2445546   6.993   7.569   1.622 -3.8618  3.0742 -1.4939
   82MOL    H2545547   6.607   7.882   1.652 -3.2992  2.3410 -0.2564
   82MOL    H2645548   6.372   7.904   1.583  0.2717  0.0449  0.0959
   82MOL    H2745549   6.324   7.480   1.659  0.7327 -0.0314 -0.3787
   82MOL    H2845550   6.567   7.457   1.689 -0.0989 -0.3120 -0.1142
   82MOL    H2945551   7.123   7.216   1.548  2.6781  0.3039 -0.1031
   82MOL    O3045552   6.102   7.604   1.613  0.0593  0.4350  0.5143
   82MOL    C3145553   5.963   7.610   1.589  0.6363  0.1175 -0.9506
   82MOL    C3245554   5.909   7.488   1.668 -0.5138  0.5017 -0.3753
   82MOL    C3345555   5.879   7.383   1.565 -0.5771  0.0017 -0.5732
   82MOL    C3445556   6.003   7.316   1.507 -0.2895  0.7202 -0.2183
   82MOL    O3545557   6.067   7.402   1.411  0.1450 -0.5038  0.1029
   82MOL    C3645558   6.013   7.413   1.283 -0.0239  0.1005 -0.0069
   82MOL    O3745559   5.905   7.366   1.248  0.5947  0.6774 -0.2407
   82MOL    C3845560   6.097   7.502   1.195  0.3354 -0.0061  0.1868
   82MOL    C3945561   6.201   7.578   1.249 -0.3673 -0.1287 -0.3369
   82MOL    C4045562   6.291   7.644   1.159 -0.2222 -0.6220 -0.1232
   82MOL    C4145563   6.269   7.647   1.021  0.0674  0.5049 -0.3221
   82MOL    C4245564   6.346   7.735   0.929  0.4757  0.9252 -0.2257
   82MOL    O4345565   6.411   7.832   0.972  0.1236  0.2981 -0.1890
   82MOL    C4445566   6.168   7.562   0.971 -0.2484  0.6551 -0.3431
   82MOL    C4545567   6.081   7.497   1.058 -0.8134 -0.0441  0.5416
   82MOL    H4645568   5.926   7.703   1.631  2.1749  0.4691 -0.3447
   82MOL    H4745569   5.934   7.607   1.483 -1.5339  0.3651 -0.3965
   82MOL    H4845570   5.819   7.519   1.721  0.8528  3.3331  0.4473
   82MOL    H4945571   5.969   7.461   1.755  0.6949 -0.4421 -1.4872
   82MOL    H5045572   5.833   7.311   1.633  2.0322  0.6868  2.0307
   82MOL    H5145573   5.809   7.426   1.494 -2.4050 -0.3300  0.9691
   82MOL    H5245574   6.081   7.297   1.581 -1.5468  2.5043  1.6272
   82MOL    H5345575   5.974   7.216   1.477  3.3069 -0.3774 -0.2169
   82MOL    H5445576   6.241   7.575   1.350  0.5845 -1.3903 -0.7374
   82MOL    H5545577   6.367   7.697   1.215 -2.2167  0.5140  1.6170
   82MOL    H5645578   6.155   7.539   0.866 -0.3656  0.3725 -0.2660
   82MOL    H5745579   6.003   7.436   1.015 -0.8906 -0.6354  1.5114
   82MOL    O5845580   6.333   7.697   0.802 -0.2901 -0.5130  0.1268
   82MOL    C5945581   6.389   7.781   0.706  0.2088  0.8047 -0.0033
   82MOL    C6045582   6.333   7.747   0.565 -0.6943 -0.8411 -0.2085
   82MOL    C6145583   6.377   7.625   0.489  0.1818  1.1634  0.2911
   82MOL    C6245584   6.334   7.630   0.339 -0.1423  0.3715 -0.2717
   82MOL    O6345585   6.194   7.637   0.336 -0.2958 -0.0604  0.3466
   82MOL    C6445586   6.139   7.701   0.243  0.7329 -0.0228  0.1472
   82MOL    O6545587   6.190   7.783   0.168  0.0458  0.5929 -0.2282
   82MOL    C6645588   5.997   7.654   0.210  0.3576 -0.6039  0.4610
   82MOL    C6745589   5.936   7.710   0.093 -1.0149 -0.4598  0.0125
   82MOL    C6845590   5.805   7.667   0.064 -0.9047  0.1802  0.7206
   82MOL    C6945591   5.735   7.583   0.153 -0.3462  0.2303 -0.4566
   82MOL    C7045592   5.589   7.544   0.122  0.7175  0.0658  0.3651
   82MOL    O7145593   5.514   7.497   0.214  0.4194  0.1586 -0.3989
   82MOL    C7245594   5.795   7.537   0.272 -0.1056  1.0837 -0.7840
   82MOL    C7345595   5.927   7.565   0.294 -0.4811  0.3712  0.1712
   82MOL    H7445596   6.379   7.886   0.732  1.2774  0.5050  1.6860
   82MOL    H7545597   6.497   7.770   0.700  0.2173  1.4443 -1.0347
   82MOL    H7645598   6.374   7.829   0.507 -1.0521 -0.5410 -0.0411
   82MOL    H7745599   6.225   7.765   0.557 -0.9037 -1.3436  1.3369
   82MOL    H7845600   6.486   7.623   0.496  0.1635  0.6200  0.4541
   82MOL    H7945601   6.352   7.533   0.543  1.5831 -0.4380 -1.6939
   82MOL    H8045602   6.383   7.714   0.290  0.8927  0.0096  0.1056
   82MOL    H8145603   6.375   7.539   0.294  0.6486  0.4456  0.2686
   82MOL    H8245604   5.990   7.780   0.032 -1.8902 -0.6890 -1.0300
   82MOL    H8345605   5.758   7.693   8.069  0.2078 -3.5222 -0.9604
   82MOL    H8445606   5.737   7.473   0.336 -0.5233  1.1601 -1.0852
   82MOL    H8545607   5.978   7.521   0.378 -2.8686  0.1460  1.5293
   82MOL    O8645608   5.551   7.566   8.087 -0.1816  0.0188 -0.4727
   82MOL    C8745609   5.427   7.523   8.049  0.1720 -0.1355  0.6292
   82MOL    C8845610   5.436   7.523   7.892  0.4254 -0.2961 -0.0187
   82MOL    C8945611   5.325   7.430   7.831 -0.1563 -0.1575  0.1587
   82MOL    C9045612   5.346   7.424   7.681  0.3501  0.0232 -1.0991
   82MOL    O9145613   5.319   7.549   7.624  0.2043  0.3532  0.3061
   82MOL    C9245614   5.197   7.581   7.584  0.3439 -0.0606  0.3219
   82MOL    O9345615   5.096   7.509   7.604 -0.0871 -0.3647 -0.6001
   82MOL    C9445616   5.193   7.716   7.517  0.0850 -0.1186  0.1012
   82MOL    C9545617   5.316   7.779   7.475 -0.5193 -0.1014 -0.2441
   82MOL    C9645618   5.320   7.893   7.397  0.8187  0.3205 -0.1444
   82MOL    C9745619   5.194   7.957   7.367  0.5034 -0.0686  0.6616
   82MOL    C9845620   5.189   8.087   7.288  0.3872  1.0792  0.3320
   82MOL    O9945621   5.082   0.051   7.284  0.2787  0.2481 -0.1072
   82MOL   C10045622   5.072   7.907   7.421  0.9582 -0.2453  0.2357
   82MOL   C10145623   5.071   7.785   7.486  0.0865 -0.0428 -0.3601
   82MOL   H10245624   5.396   7.424   8.084 -1.3544  0.0269 -0.2311
   82MOL   H10345625   5.351   7.591   8.087  0.3520  1.0949 -1.1596
   82MOL   H10445626   5.533   7.486   7.860  0.3891 -0.9314  0.6064
   82MOL   H10545627   5.416   7.626   7.860 -0.5499 -0.8893 -1.3371
   82MOL   H10645628   5.339   7.327   7.864  2.2078  0.4256  1.0749
   82MOL   H10745629   5.226   7.466   7.860 -0.9823 -0.2362 -2.4175
   82MOL   H10845630   5.450   7.398   7.662  0.1845 -1.3840 -0.1563
   82MOL   H10945631   5.271   7.355   7.642 -2.2621  1.3130  1.4245
   82MOL   H11045632   5.416   7.739   7.486 -0.1320  0.5725 -1.2447
   82MOL   H11145633   5.412   7.930   7.354  1.1250  0.3108  0.4986
   82MOL   H11245634   4.976   7.955   7.406  0.5956 -1.6493 -2.2293
   82MOL   H11345635   4.985   7.744   7.539  1.0838 -2.5635 -0.6111
   82MOL   O11445636   5.305   0.022   7.234 -0.3633  0.0153 -0.1420
   82MOL   C11545637   5.314   0.151   7.180  0.1917  0.1376 -0.4869
   82MOL   C11645638   5.271   0.141   7.032 -0.6832 -0.1697  0.2773
   82MOL   C11745639   5.384   0.068   6.950  0.4301  0.5524 -0.0256
   82MOL   C11845640   5.323   8.090   6.829  0.6708  0.1122  0.4561
   82MOL   O11945641   5.242   7.984   6.893  0.0694 -0.3718  0.2992
   82MOL   C12045642   5.178   7.899   6.818  0.8008  0.2898  0.2127
   82MOL   O12145643   5.196   7.892   6.701 -0.0722  0.2651  0.7361
   82MOL   C12245644   5.093   7.805   6.894  0.2012 -0.0205  0.2126
   82MOL   C12345645   5.030   7.702   6.825 -0.0172  0.0137 -0.0258
   82MOL   C12445646   4.932   7.626   6.890  0.0498  0.2870  0.2672
   82MOL   C12545647   4.889   7.651   7.026  0.5442  0.2965 -0.3549
   82MOL   C12645648   4.775   7.581   7.080 -0.2158 -0.1255  0.4638
   82MOL   O12745649   4.734   7.471   7.033 -0.1253 -0.1946  0.1126
   82MOL   C12845650   4.955   7.753   7.094 -0.1732 -0.1678 -0.2041
   82MOL   C12945651   5.063   7.826   7.031 -0.6580  0.5377  0.6122
   82MOL   H13045652   5.253   0.227   7.228  0.1975  0.2940 -0.7247
   82MOL   H13145653   5.411   0.196   7.197  1.4449 -2.1943 -1.2478
   82MOL   H13245654   5.254   0.237   6.985 -2.9615 -0.3570  0.6823
   82MOL   H13345655   5.176   0.092   7.011 -0.4492 -0.8068  0.6690
   82MOL   H13445656   5.466   0.136   6.928  3.6458 -3.2301 -0.3000
   82MOL   H13545657   5.437   0.001   7.018  0.1486 -1.1744 -1.4672
   82MOL   H13645658   5.263   0.059   6.768  1.0092 -0.5318 -0.5919
   82MOL   H13745659   5.395   8.046   6.760 -1.5649  2.4251 -3.4805
   82MOL   H13845660   5.055   7.680   6.722  1.5160 -0.8076  0.5127
   82MOL   H13945661   4.889   7.554   6.822 -0.4485 -0.8015  1.6890
   82MOL   H14045662   4.929   7.790   7.192 -2.1787  1.8646 -1.4472
   82MOL   H14145663   5.114   7.911   7.073 -1.5843  0.7796  1.2527
   82MOL   O14245664   4.706   7.641   7.181 -0.3884  0.1999 -0.2642
   82MOL   C14345665   4.606   7.559   7.253  0.2980  0.4029  1.0084
   82MOL   C14445666   4.571   7.623   7.393  0.8737  0.0812  0.3455
   82MOL   C14545667   4.677   7.628   7.494  0.4116  0.1083 -0.0502
   82MOL   C14645668   4.633   7.695   7.624  0.0257  0.2369  0.5236
   82MOL   O14745669   4.740   7.695   7.722 -0.2615 -0.3555 -0.2580
   82MOL   C14845670   4.714   7.721   7.849 -0.2790 -0.6988 -0.4332
   82MOL   O14945671   4.605   7.730   7.901  0.0909 -0.3709 -0.0612
   82MOL   C15045672   4.830   7.753   7.930 -0.6200 -0.4606 -0.9486
   82MOL   C15145673   4.949   7.783   7.869 -0.3339  0.1116 -0.0917
   82MOL   C15245674   5.070   7.812   7.936  0.0312 -0.1802  0.8099
   82MOL   C15345675   5.067   7.811   8.076  0.0510  0.0483  0.3282
   82MOL   C15445676   5.199   7.838   0.041 -0.6066  0.8135  0.3198
   82MOL   O15545677   5.296   7.890   8.081  0.2640 -0.1374 -0.2180
   82MOL   C15645678   4.944   7.784   0.042 -0.5491  0.3634 -0.8382
   82MOL   C15745679   4.827   7.755   8.074  0.5339 -0.3065 -0.0896
   82MOL   H15845680   4.514   7.554   7.195  0.3204  1.9594  0.8171
   82MOL   H15945681   4.635   7.456   7.274  0.0704 -0.1087 -1.0455
   82MOL   H16045682   4.495   7.563   7.442  0.9647 -0.9314 -0.7283
   82MOL   H16145683   4.530   7.724   7.382  1.0369  0.1670  0.5301
   82MOL   H16245684   4.711   7.527   7.514 -1.3361 -0.3261  0.8329
   82MOL   H16345685   4.762   7.680   7.450  1.3634 -0.1045  1.4844
   82MOL   H16445686   4.602   7.799   7.612 -0.3950 -0.1211 -1.7501
   82MOL   H16545687   4.551   7.641   7.671 -0.1913  1.7425  1.9112
   82MOL   H16645688   4.947   7.779   7.761 -3.6082 -1.2318 -0.0569
   82MOL   H16745689   5.162   7.833   7.884  0.8932 -0.7683  2.0698
   82MOL   H16845690   4.936   7.789   0.150 -0.9323 -0.3493 -0.8294
   82MOL   H16945691   4.733   7.736   0.026  1.5257  0.0441  1.9511
   82MOL   O17045692   5.207   7.801   0.175 -0.0847  0.2372 -0.1726
   82MOL   C17145693   5.332   7.798   0.238 -0.3130  0.8928 -0.1439
   82MOL   C17245694   5.326   7.726   0.371 -0.2479  0.5879 -0.5415
   82MOL   C17345695   5.281   7.812   0.491 -0.0680 -0.3165 -0.1484
   82MOL   C17445696   5.274   7.716   0.608  1.0857  0.1218  0.2303
   82MOL   O17545697   5.165   7.632   0.587 -0.1632 -0.2750 -0.4164
   82MOL   C17645698   5.125   7.559   0.690 -0.3280 -0.0194  0.0778
   82MOL   O17745699   5.167   7.571   0.808  0.1065 -0.0138 -0.0468
   82MOL   C17845700   5.018   7.464   0.649 -0.1029  0.4271 -0.5404
   82MOL   C17945701   4.970   7.374   0.742 -0.0482 -0.6433 -0.6829
   82MOL   C18045702   4.854   7.296   0.718  0.1587  0.2580  0.2993
   82MOL   C18145703   4.778   7.307   0.597 -0.1133  0.5916 -0.3255
   82MOL   C18245704   4.666   7.215   0.576 -0.2710  0.2616  0.3344
   82MOL   O18345705   4.626   7.125   0.656 -0.6827  0.2422 -0.0310
   82MOL   C18445706   4.832   7.398   0.501  0.5266 -1.0793 -0.3280
   82MOL   C18545707   4.949   7.476   0.528 -0.1852  0.2595 -0.2880
   82MOL   H18645708   5.410   7.753   0.176  0.1081 -1.9124  2.3126
   82MOL   H18745709   5.373   7.898   0.258 -1.4390  1.9192 -2.7505
   82MOL   H18845710   5.423   7.687   0.402  0.2859  0.5375 -2.2379
   82MOL   H18945711   5.264   7.641   0.342 -0.4807  1.1067 -1.5915
   82MOL   H19045712   5.342   7.896   0.521 -0.8752  0.2231  0.0064
   82MOL   H19145713   5.185   7.863   0.484  0.1419 -0.1859 -2.4357
   82MOL   H19245714   5.363   7.652   0.615 -0.9666 -2.9142 -0.2931
   82MOL   H19345715   5.265   7.771   0.701  1.4023 -1.1877  1.0622
   82MOL   H19445716   5.011   7.358   0.841 -3.6915  0.2669  1.0984
   82MOL   H19545717   4.819   7.232   0.797  1.3994  0.3672  0.9456
   82MOL   H19645718   4.778   7.409   0.408  0.8910 -2.6167 -0.7279
   82MOL   H19745719   4.981   7.543   0.450  1.6002 -2.1086 -1.6626
   82MOL   O19845720   4.606   7.239   0.459 -0.3591  0.1423  0.3304
   82MOL   C19945721   4.493   7.157   0.430 -0.2584  0.2681 -0.0619
   82MOL   C20045722   4.541   7.031   0.357  0.3290 -0.0784 -0.3761
   82MOL   C20145723   4.571   7.047   0.204 -0.2983 -0.1261  0.0307
   82MOL   C20245724   4.569   6.911   0.137  0.4232  0.0643 -0.4422
   82MOL   O20345725   4.451   6.888   0.068  0.5723 -0.1249  0.0240
   82MOL   C20445726   4.435   6.937   8.036  0.0620  0.1500 -0.1566
   82MOL   O20545727   4.509   7.015   7.983  0.0163  0.4075 -0.1715
   82MOL   C20645728   4.304   6.898   7.978 -0.1244 -0.4130  0.8758
   82MOL   C20745729   4.224   6.794   8.041  0.3825  0.4455 -0.7185
   82MOL   C20845730   4.104   6.755   7.976 -0.6295 -0.0699  0.1973
   82MOL   C20945731   4.059   6.817   7.861  0.3353  1.0693  0.2640
   82MOL   C21045732   3.928   6.777   7.793  0.3565 -0.9378  0.2604
   82MOL   O21145733   3.883   6.846   7.706 -0.1042  0.0500 -0.0274
   82MOL   C21245734   4.134   6.921   7.807  0.0982  0.3873 -0.4326
   82MOL   C21345735   4.260   6.958   7.859  0.6567 -0.2734 -0.3700
   82MOL   H21445736   4.435   7.116   0.513  0.2845 -3.1068 -1.2686
   82MOL   H21545737   4.435   7.219   0.361 -1.5616 -1.0862 -0.2307
   82MOL   H21645738   4.453   6.969   0.372  0.5647  0.1199  1.9478
   82MOL   H21745739   4.618   6.986   0.419 -0.1497 -0.4316 -0.0282
   82MOL   H21845740   4.498   7.115   0.159  0.8558  0.9059 -0.2963
   82MOL   H21945741   4.665   7.097   0.182 -0.0124 -1.4717 -1.8904
   82MOL   H22045742   4.653   6.890   0.071 -1.0597  2.7349 -3.3694
   82MOL   H22145743   4.575   6.831   0.209 -0.8894  0.4615  0.1244
   82MOL   H22245744   4.250   6.742   0.033 -0.7695 -0.5385 -0.9468
   82MOL   H22345745   4.039   6.677   8.011 -0.9478  0.3164  0.4712
   82MOL   H22445746   4.110   6.970   7.713 -1.6561  0.4973  0.0562
   82MOL   H22545747   4.317   7.043   7.826 -1.8914  1.9987  0.8112
   82MOL   O22645748   3.862   6.664   7.845 -0.1074 -0.4125 -0.4514
   82MOL   C22745749   3.732   6.643   7.798  0.5299  0.9194 -0.2280
   82MOL   C22845750   3.636   6.639   7.918 -0.4679 -0.3735 -0.5556
   82MOL   C22945751   3.654   6.512   8.012 -0.7016  0.1200  0.2592
   82MOL   C23045752   3.769   6.532   0.012 -0.3448  0.0983 -0.0330
   82MOL   O23145753   3.736   6.632   0.116 -0.3053 -0.0343 -0.2764
   82MOL   C23245754   3.836   6.704   0.178  0.6086 -0.8130 -0.1591
   82MOL   O23345755   3.959   6.691   0.157 -0.0432  0.3517  0.1843
   82MOL   C23445756   3.777   6.793   0.281  0.1359  0.4651  0.0645
   82MOL   C23545757   3.855   6.840   0.388 -0.2349  0.8568  0.1241
   82MOL   C23645758   3.814   6.930   0.485  0.2349  0.7693  0.3663
   82MOL   C23745759   3.681   6.980   0.472 -0.1399 -0.2504 -0.5348
   82MOL   C23845760   3.630   7.076   0.574  0.8971 -0.0527  0.9583
   82MOL   O23945761   3.695   7.113   0.669  0.4146  0.1540  0.0873
   82MOL   C24045762   3.595   6.937   0.367  0.4414 -0.0338  0.4706
   82MOL   C24145763   3.641   6.839   0.273  0.1554 -0.3491  0.5770
   82MOL   H24245764   3.698   6.717   7.725  1.9023  1.2977 -0.4988
   82MOL   H24345765   3.726   6.545   7.751  2.2874  1.0489 -0.7681
   82MOL   H24445766   3.541   6.652   7.866 -0.0245 -0.1978 -1.3299
   82MOL   H24545767   3.640   6.724   7.986 -0.7736 -0.9990  0.2504
   82MOL   H24645768   3.558   6.497   8.061 -1.3762  0.9010 -0.8111
   82MOL   H24745769   3.665   6.426   7.947  0.3406 -0.2226  0.8624
   82MOL   H24845770   3.789   6.437   0.062 -1.1572  0.3860  0.8559
   82MOL   H24945771   3.865   6.555   8.064  1.2277 -0.6892  2.6910
   82MOL   H25045772   3.960   6.812   0.393 -0.0668  1.4123 -0.2753
   82MOL   H25145773   3.868   6.966   0.572 -0.4417 -1.2554  1.6673
   82MOL   H25245774   3.497   6.984   0.360 -0.3988 -1.4338  2.3272
   82MOL   H25345775   3.576   6.809   0.192 -0.4226  1.2215  0.4398
   82MOL   O25445776   3.503   7.118   0.562 -0.2949  0.2961 -0.4632
   82MOL   C25545777   3.451   7.214   0.647 -0.1092 -0.3027  0.4350
   82MOL   C25645778   3.425   7.346   0.568  0.0905 -0.5090  0.2366
   82MOL   C25745779   3.555   7.434   0.542  0.3983  0.3457 -0.3759
   82MOL   C25845780   3.633   7.467   0.669  0.5802 -0.1073 -0.2982
   82MOL   O25945781   3.553   7.542   0.758 -0.4106 -0.0720  0.0318
   82MOL   C26045782   3.589   7.551   0.889 -0.0997 -0.2627 -0.3703
   82MOL   O26145783   3.687   7.495   0.934 -0.4619  0.0552 -0.1328
   82MOL   C26245784   3.485   7.622   0.964 -0.1049  0.4869  0.0865
   82MOL   C26345785   3.507   7.653   1.104  0.7790 -0.0177 -0.0340
   82MOL   C26445786   3.401   7.710   1.177 -0.1045 -0.9131 -0.2996
   82MOL   C26545787   3.287   7.764   1.116 -0.0786  0.0299  0.2002
   82MOL   C26645788   3.183   7.847   1.180 -0.7892  0.6497  0.2664
   82MOL   O26745789   3.187   7.869   1.302  0.0410  0.0872  0.0522
   82MOL   C26845790   3.264   7.722   0.983 -0.1656  0.1215  0.7886
   82MOL   C26945791   3.356   7.646   0.911  0.1128  0.1949 -0.4146
   82MOL   H27045792   3.356   7.166   0.672 -1.5329  1.2764 -1.7533
   82MOL   H27145793   3.502   7.227   0.742 -0.8838  2.2176  0.5617
   82MOL   H27245794   3.359   7.411   0.625 -0.9064 -1.8908  0.6664
   82MOL   H27345795   3.376   7.335   0.471  1.6925 -1.8574 -0.4410
   82MOL   H27445796   3.619   7.388   0.466 -1.3057 -1.9735 -0.4439
   82MOL   H27545797   3.523   7.528   0.496  2.4975  0.8833 -0.8016
   82MOL   H27645798   3.672   7.371   0.703  1.3223  0.3636  0.1632
   82MOL   H27745799   3.715   7.531   0.638  0.5072  1.3694  2.4757
   82MOL   H27845800   3.589   7.616   1.163  1.7365 -2.4788 -2.8007
   82MOL   H27945801   3.426   7.715   1.282 -1.3642 -1.0691  0.0199
   82MOL   H28045802   3.170   7.745   0.935  1.0410 -0.0621 -1.7266
   82MOL   H28145803   3.330   7.611   0.812 -0.6372  0.4730 -0.3244
   82MOL   O28245804   3.105   7.904   1.091 -0.1600  0.1292  0.2723
   82MOL   C28345805   3.010   8.008   1.121 -0.0893  0.6246 -0.0678
   82MOL   C28445806   2.931   8.035   1.003  0.1542 -0.1683  0.5640
   82MOL   C28545807   2.912   0.089   0.982  0.1817  0.6044 -0.0269
   82MOL   C28645808   2.816   0.141   0.870  0.7948  0.4738  0.0546
   82MOL   O28745809   2.864   0.089   0.752 -0.1122 -0.3554 -0.0272
   82MOL   C28845810   2.855   0.147   0.634 -0.1465  0.6510  0.0952
   82MOL   O28945811   2.788   0.253   0.617  0.0627  0.0273 -0.1857
   82MOL   C29045812   2.939   0.085   0.530  0.0970  1.0059  0.3297
   82MOL   C29145813   2.982   8.049   0.540 -0.5011 -0.4258  0.2773
   82MOL   C29245814   3.057   7.990   0.434  0.0031  0.3154 -0.8688
   82MOL   C29345815   3.099   8.067   0.324 -0.0854  0.0516 -0.1869
   82MOL   C29445816   3.197   8.006   0.218 -0.1871 -0.0182  0.1144
   82MOL   O29545817   3.241   7.894   0.214 -0.0995  0.0227 -0.0157
   82MOL   C29645818   3.063   0.104   0.318  0.0046  0.2394 -0.3343
   82MOL   C29745819   2.980   0.167   0.415  0.1953  0.3929 -0.0510
   82MOL   H29845820   2.950   7.965   1.201  0.1016 -1.2749 -0.9283
   82MOL   H29945821   3.061   8.096   1.162 -1.2515  0.3079  2.1772
   82MOL   H30045822   2.828   7.999   1.010 -0.5411  2.3537  5.2455
   82MOL   H30145823   2.993   8.009   0.917 -0.0654  4.5418 -1.1794
   82MOL   H30245824   2.883   0.130   1.079  2.9768  3.9522 -0.4974
   82MOL   H30345825   3.008   0.140   0.973  0.0825  1.0919  1.5131
   82MOL   H30445826   2.712   0.116   0.892  1.1513 -0.5623  0.5790
   82MOL   H30545827   2.810   0.250   0.864 -0.2793  0.4753  0.9506
   82MOL   H30645828   2.962   7.990   0.628  0.8171  0.3688  1.1420
   82MOL   H30745829   3.091   7.888   0.442 -0.7215  0.0758 -0.8267
   82MOL   H30845830   3.107   0.166   0.242  2.2439 -0.9347 -0.0561
   82MOL   H30945831   2.960   0.273   0.410 -2.0046  0.0214  0.2371
   82MOL   O31045832   3.234   8.093   0.116  0.0715 -0.3091 -0.2355
   82MOL   C31145833   3.324   8.049   0.012 -0.6191 -0.0813  0.3164
   82MOL   C31245834   3.248   7.989   7.996 -0.2255 -0.0526 -0.3145
   82MOL   C31345835   3.335   7.935   7.887 -0.2520 -0.0541  0.2363
   82MOL   C31445836   3.411   8.040   7.818  0.1951 -0.3201  0.1815
   82MOL   O31545837   3.533   8.068   7.891 -0.2771  0.9205 -0.8694
   82MOL   C31645838   3.640   8.098   7.831  0.2250 -0.0916  0.1941
   82MOL   O31745839   3.672   8.065   7.717 -0.0057  0.2418  0.0155
   82MOL   C31845840   3.733   0.097   7.895 -1.1255  0.6551 -0.2282
   82MOL   C31945841   3.686   0.185   7.996  0.1367 -0.5990  0.0021
   82MOL   C32045842   3.778   0.276   8.057 -0.2286 -0.1251 -0.2784
   82MOL   C32145843   3.913   0.290   8.004 -0.5135  0.0559  0.1619
   82MOL   C32245844   4.008   0.390   8.065  0.0323 -0.1020  0.0424
   82MOL   O32345845   3.975   0.480   0.040 -0.0004  0.8224  0.0455
   82MOL   C32445846   3.958   0.204   7.907 -0.6150 -0.4452  0.3077
   82MOL   C32545847   3.867   0.112   7.847 -0.3117 -0.3909  0.0167
   82MOL   H32645848   3.390   0.033   8.085 -1.7634  0.2293 -1.7288
   82MOL   H32745849   3.397   7.977   0.049  0.8458  0.8216 -0.7957
   82MOL   H32845850   3.188   8.072   7.958  1.7264  0.0857 -3.2121
   82MOL   H32945851   3.182   7.909   8.031 -0.6454  0.2849 -0.3279
   82MOL   H33045852   3.387   7.842   7.909  0.1376  0.3844  1.2080
   82MOL   H33145853   3.256   7.905   7.818 -2.6742  1.7419  2.0947
   82MOL   H33245854   3.438   8.004   7.719 -3.4093 -2.8772  0.0256
   82MOL   H33345855   3.353   0.031   7.800  0.1034 -0.8040 -2.0396
   82MOL   H33445856   3.587   0.165   8.035 -0.5454  1.4980 -0.5874
   82MOL   H33545857   3.747   0.341   0.039  0.8978  1.0981 -0.8033
   82MOL   H33645858   4.054   0.196   7.858 -0.4867  0.2481  0.4355
   82MOL   H33745859   3.911   0.047   7.772  1.1454 -0.8899  1.2742
   82MOL   O33845860   4.129   0.375   8.026 -0.4148 -0.0002  0.0199
   82MOL   C33945861   4.232   0.432   8.095  0.0775 -0.3949 -0.4628
   82MOL   C34045862   4.350   0.350   8.050 -0.4640  0.6373 -0.2856
   82MOL   C34145863   4.477   0.395   0.023 -0.6326  0.9140 -0.2579
   82MOL   C34245864   4.596   0.321   8.073 -0.2416  0.4283 -0.3047
   82MOL   O34345865   4.618   0.191   0.033 -0.1069  0.4276 -0.1619
   82MOL   C34445866   4.708   0.160   0.129  0.0374 -0.7908  0.3145
   82MOL   O34545867   4.799   0.240   0.170  0.2744  0.0337  0.5625
   82MOL   C34645868   4.689   0.024   0.176  0.5497  0.0037  0.0683
   82MOL   C34745869   4.592   8.037   0.113  0.0019  0.2394 -0.5816
   82MOL   C34845870   4.564   7.905   0.161  0.1242 -0.2697  0.2283
   82MOL   C34945871   4.643   7.849   0.270  0.1393 -0.4237 -0.4815
   82MOL   C35045872   4.600   7.714   0.316  0.2998  0.3594  0.1922
   82MOL   O35145873   4.614   7.670   0.429  0.7171 -0.6845  0.8848
   82MOL   C35245874   4.738   7.933   0.330  0.5054  0.7108  0.1523
   82MOL   C35345875   4.768   8.064   0.283  0.0611  0.5110  0.6327
   82MOL   H35445876   4.244   0.539   8.080  0.2127 -0.4617 -0.8402
   82MOL   H35545877   4.218   0.412   0.103 -0.9031  0.5530 -0.4115
   82MOL   H35645878   4.361   0.349   7.942 -3.6201 -1.2967 -0.6397
   82MOL   H35745879   4.340   0.252   8.095 -3.0906  0.7778 -0.5214
   82MOL   H35845880   4.490   0.501   8.097 -0.6201  0.1218 -4.0586
   82MOL   H35945881   4.464   0.385   0.130 -3.4346 -1.0139 -0.7219
   82MOL   H36045882   4.577   0.298   7.968 -0.8315 -1.5974  0.2138
   82MOL   H36145883   4.689   0.378   8.081  1.0134 -1.7297  1.0695
   82MOL   H36245884   4.524   8.076   0.038 -0.8893  1.9539  1.0769
   82MOL   H36345885   4.487   7.854   0.106 -0.6235  2.9489 -1.9040
   82MOL   H36445886   4.788   7.895   0.419  1.3950 -0.5897 -0.8921
   82MOL   H36545887   4.853   0.015   0.326 -1.6520  1.8071  2.6562
   82MOL   O36645888   4.535   7.645   0.220  0.3008 -0.2356 -0.5486
   82MOL   C36745889   4.499   7.509   0.250 -0.6899 -0.4429 -0.1507
   82MOL   C36845890   4.458   7.441   0.123  0.1137  0.0519  1.2471
   82MOL   C36945891   4.572   7.448   0.016  0.0564 -0.0839  0.3769
   82MOL   C37045892   4.558   7.354   7.996  0.5091 -0.6633  0.1740
   82MOL   O37145893   4.464   7.418   7.910  0.3175 -0.2459 -0.6983
   82MOL   C37245894   4.334   7.391   7.907  0.1901  0.0324  0.3080
   82MOL   O37345895   4.281   7.304   7.983  0.2374  0.3731  0.1062
   82MOL   C37445896   4.251   7.471   7.808 -0.5849  0.0336 -0.0275
   82MOL   C37545897   4.302   7.590   7.753  0.2101  0.6294 -0.7515
   82MOL   C37645898   4.229   7.666   7.654  0.4964  0.2303  0.6424
   82MOL   C37745899   4.092   7.630   7.627  0.3735  0.4874 -0.4067
   82MOL   C37845900   3.996   7.709   7.545  0.5964  0.0472  0.0327
   82MOL   O37945901   3.885   7.665   7.510 -0.4687  0.6795 -0.0044
   82MOL   C38045902   4.044   7.514   7.689 -0.4587  0.0580  0.0888
   82MOL   C38145903   4.125   7.434   7.770 -0.0379 -0.2420  0.3344
   82MOL   H38245904   4.591   7.459   0.279  2.1571  4.9514  0.7805
   82MOL   H38345905   4.415   7.495   0.317 -0.4766 -2.3312 -0.2551
   82MOL   H38445906   4.366   7.484   0.082 -0.8164 -1.0454  2.1250
   82MOL   H38545907   4.432   7.336   0.137 -1.3771  0.2460  0.0995
   82MOL   H38645908   4.571   7.554   8.089  0.8977 -0.1973 -0.1303
   82MOL   H38745909   4.669   7.438   0.063 -0.0134 -2.0142  0.1803
   82MOL   H38845910   4.658   7.341   7.953 -0.6926 -1.3415 -2.5432
   82MOL   H38945911   4.523   7.255   8.027 -0.6808 -1.4077 -3.2443
   82MOL   H39045912   4.394   7.620   7.800 -0.4141  1.7532 -0.2281
   82MOL   H39145913   4.264   7.758   7.610 -1.6649  1.2503  0.9814
   82MOL   H39245914   3.943   7.487   7.663 -0.0989  0.4234 -1.7206
   82MOL   H39345915   4.083   7.347   7.817  0.3588 -0.5423  0.1332
   82MOL   O39445916   4.035   7.834   7.519  0.2462  0.0796 -0.2450
   82MOL   C39545917   3.942   7.917   7.453  0.1446  0.0603  0.5604
   82MOL   C39645918   3.935   7.878   7.307  0.6552 -0.4134 -0.5423
   82MOL   C39745919   4.072   7.898   7.243 -0.2043  0.8917  0.4833
   82MOL   C39845920   4.044   7.863   7.096  0.1860  0.3407  0.0210
   82MOL   O39945921   4.160   7.884   7.023 -0.7915 -0.7743 -0.6215
   82MOL   C40045922   4.251   7.790   7.026  0.9064  0.1878  0.5170
   82MOL   O40145923   4.237   7.681   7.083 -0.0511  0.7528  0.0645
   82MOL   C40245924   4.349   7.819   6.915  0.0746  0.6247 -0.0910
   82MOL   C40345925   4.350   7.935   6.830  0.3199 -0.3385 -0.0336
   82MOL   C40445926   4.461   7.956   6.745  0.4970 -0.5599  0.5951
   82MOL   C40545927   4.566   7.861   6.736 -0.0079 -0.3435  0.1261
   82MOL   C40645928   4.689   7.884   6.652 -0.3197  0.1430  0.1189
   82MOL   O40745929   4.773   7.799   6.629  0.4597 -0.4231 -0.2827
   82MOL   C40845930   4.568   7.755   6.827 -0.3866 -0.0341  0.6277
   82MOL   C40945931   4.458   7.728   6.908 -0.7170  0.2549 -1.2497
   82MOL   H41045932   3.851   7.911   7.511 -0.5102  0.3853 -0.4182
   82MOL   H41145933   3.967   8.022   7.463 -3.5018  0.9628  0.8589
   82MOL   H41245934   3.868   7.948   7.255  1.7983  0.7492 -0.4667
   82MOL   H41345935   3.904   7.774   7.294  0.0448 -0.0862 -1.8995
   82MOL   H41445936   4.110   7.999   7.263  2.0425  0.5125 -1.5711
   82MOL   H41545937   4.153   7.831   7.273 -1.2268  0.2265  1.7713
   82MOL   H41645938   4.013   7.760   7.078  1.9146 -0.0173 -1.0837
   82MOL   H41745939   3.967   7.925   7.051  1.1165  0.4104 -1.5028
   82MOL   H41845940   4.280   8.017   6.838  2.0416  1.0369  1.6238
   82MOL   H41945941   4.460   8.043   6.681 -0.6041 -1.3203 -0.4574
   82MOL   H42045942   4.658   7.695   6.827 -0.1434  0.3301  0.4744
   82MOL   H42145943   4.471   7.649   6.980  0.8923 -0.9354 -2.7748
   82MOL   O42245944   4.691   8.005   6.598 -0.6382  0.0643 -0.5700
   82MOL   C42345945   4.777   8.037   6.495  0.1757  0.1761 -0.1797
   82MOL   C42445946   4.913   8.084   6.549 -0.3818  0.6725 -0.0357
   82MOL   C42545947   5.006   0.000   6.437  0.4238  0.1569  0.7527
   82MOL   C42645948   5.126   0.095   6.459  0.5050  1.1997 -0.5715
   82MOL   O42745949   5.083   0.226   6.440 -0.1210  0.4063  0.0600
   82MOL   C42845950   5.120   0.328   6.522  0.4423 -0.1525 -0.4413
   82MOL   O42945951   5.190   0.312   6.619  0.0900 -0.5895  0.5492
   82MOL   C43045952   5.069   0.461   6.482  0.4152 -0.7629 -0.4420
   82MOL   C43145953   5.089   0.569   6.566 -0.2109  0.5178  0.0314
   82MOL   C43245954   5.034   0.692   6.537  0.5215  0.3794 -0.2126
   82MOL   C43345955   4.966   0.718   6.417  0.4469 -0.2598  0.2779
   82MOL   C43445956   4.927   0.855   6.382  0.7042 -0.0830 -0.3599
   82MOL   O43545957   4.887   0.891   6.267  0.2449 -0.5616 -0.2112
   82MOL   C43645958   4.946   0.613   6.326 -0.1737  0.6365 -0.3057
   82MOL   C43745959   4.998   0.480   6.359  0.3511  0.0087  0.2894
   82MOL   H43845960   4.785   7.958   6.420  1.1757 -1.7590  1.9152
   82MOL   H43945961   4.731   0.023   6.444 -1.8391 -1.2141 -0.7465
   82MOL   H44045962   4.953   8.014   6.622  0.0772 -0.6114 -1.5036
   82MOL   H44145963   4.897   0.079   6.603  0.0634  0.6052  0.2134
   82MOL   H44245964   5.043   7.998   6.417 -1.3359 -0.2013 -0.7606
   82MOL   H44345965   4.960   0.035   6.344 -0.3939 -1.1101  0.6730
   82MOL   H44445966   5.180   0.074   6.552 -0.3860 -1.7834 -0.6757
   82MOL   H44545967   5.200   0.080   6.380  2.4563  1.3083  1.1717
   82MOL   H44645968   5.145   0.566   6.658  0.3132  0.3137 -0.2931
   82MOL   H44745969   5.058   0.776   6.601  0.5357 -0.5536  1.0275
   82MOL   H44845970   4.905   0.635   6.228  0.2611  2.4749 -0.0942
   82MOL   H44945971   4.972   0.395   6.296 -1.4029 -1.0673  2.4182
   82MOL   O45045972   4.928   0.945   6.487  0.5988 -0.6509 -0.2170
   82MOL   C45145973   4.914   1.082   6.473 -0.4384  0.2029  0.6851
   82MOL   C45245974   4.962   1.159   6.597 -0.1716 -0.3518  0.1030
   82MOL   C45345975   5.108   1.151   6.624 -0.1863  0.1131 -0.3412
   82MOL   C45445976   5.161   1.220   6.753 -0.7355 -0.3096 -0.2339
   82MOL   O45545977   5.122   1.353   6.754  0.0132 -0.3053 -0.0644
   82MOL   C45645978   5.176   1.446   6.835 -0.1542  1.3022 -0.1948
   82MOL   O45745979   5.276   1.416   6.906 -0.4513 -0.4286  0.1331
   82MOL   C45845980   5.114   1.581   6.828 -0.2295  0.1556 -1.0257
   82MOL   C45945981   5.014   1.605   6.737 -0.2536  0.1133 -0.3663
   82MOL   C46045982   4.948   1.728   6.745  0.3162 -0.3376  0.1411
   82MOL   C46145983   4.973   1.827   6.848  0.4425 -0.5300 -0.0704
   82MOL   C46245984   4.884   1.948   6.871 -0.0698 -0.1825  0.4546
   82MOL   O46345985   4.900   2.029   6.955  0.4112 -0.1203 -0.3966
   82MOL   C46445986   5.086   1.799   6.935 -0.7468 -0.6335 -0.1990
   82MOL   C46545987   5.153   1.673   6.922  0.2675  1.0523  0.2319
   82MOL   H46645988   4.991   1.103   6.398 -1.6961 -2.2014 -1.3741
   82MOL   H46745989   4.825   1.129   6.432  0.0763  1.2955  0.7999
   82MOL   H46845990   4.903   1.120   6.681  0.7327  0.9101  1.3469
   82MOL   H46945991   4.948   1.267   6.588  0.8294 -0.3890 -2.0531
   82MOL   H47045992   5.129   1.044   6.627 -0.7025 -0.0567 -2.2551
   82MOL   H47145993   5.153   1.195   6.535 -0.6810 -0.2521 -0.7737
   82MOL   H47245994   5.128   1.176   6.847 -0.7181  3.0131  1.4034
   82MOL   H47345995   5.269   1.211   6.749 -0.7093  0.5634 -2.1919
   82MOL   H47445996   4.984   1.539   6.658  0.7402  0.7653 -1.3043
   82MOL   H47545997   4.866   1.755   6.680  0.6497  0.1488 -0.0793
   82MOL   H47645998   5.121   1.871   7.008 -2.1477 -1.5600  1.4269
   82MOL   H47745999   5.236   1.645   6.986 -2.7651 -1.8980  3.0527
   82MOL   O47846000   4.771   1.946   6.790  0.0822 -0.3930  0.2444
   82MOL   C47946001   4.668   2.045   6.804  0.2704 -0.1741 -0.3057
   82MOL   C48046002   4.536   1.986   6.770 -0.5843 -0.3401  0.3098
   82MOL   C48146003   4.516   1.931   6.622  0.1427 -0.2627  0.4164
   82MOL   C48246004   4.545   2.049   6.516 -0.1116 -0.3003 -0.5107
   82MOL   O48346005   4.440   2.149   6.535  0.4683  0.1591  0.5362
   82MOL   C48446006   4.433   2.258   6.465  0.2786 -0.2359 -0.4496
   82MOL   O48546007   4.523   2.301   6.391  0.4042  0.1157 -0.6013
   82MOL   C48646008   4.301   2.320   6.483  0.5145  0.3937 -0.4551
   82MOL   C48746009   4.194   2.256   6.553 -0.2379 -0.5617  0.4573
   82MOL   C48846010   4.073   2.328   6.566  0.1566 -0.2486  0.4456
   82MOL   C48946011   4.048   2.454   6.506 -0.1199 -0.4673 -0.5628
   82MOL   C49046012   3.914   2.520   6.527  0.0739 -0.4249 -0.8860
   82MOL   O49146013   3.818   2.464   6.583 -0.1761 -0.3329 -0.0519
   82MOL   C49246014   4.154   2.513   6.429  0.4433 -0.1990 -0.3631
   82MOL   C49346015   4.281   2.447   6.426  0.3141  0.5685  0.0038
   82MOL   H49446016   4.657   2.084   6.905 -1.8557  2.2341 -1.3914
   82MOL   H49546017   4.699   2.132   6.746  1.2360 -0.1913  0.1854
   82MOL   H49646018   4.465   2.066   6.794  0.1114 -0.0899  1.5747
   82MOL   H49746019   4.515   1.905   6.840  0.2662  0.1846  1.1806
   82MOL   H49846020   4.592   1.855   6.606  1.0324  0.1960  2.3352
   82MOL   H49946021   4.427   1.870   6.605 -0.3784  0.6565 -0.1493
   82MOL   H50046022   4.649   2.077   6.530  0.6566 -2.8010 -0.9908
   82MOL   H50146023   4.539   2.019   6.411  1.3110  2.1473 -1.3330
   82MOL   H50246024   4.198   2.162   6.605  0.9164 -0.1543  1.1280
   82MOL   H50346025   3.992   2.269   6.609 -2.3622  2.0494 -0.9774
   82MOL   H50446026   4.137   2.611   6.385  1.9687  0.5666  0.7096
   82MOL   H50546027   4.362   2.501   6.379  2.1321 -1.6692  0.4821
   82MOL   O50646028   3.916   2.641   6.487 -0.1461 -0.1639 -0.1986
   82MOL   C50746029   3.799   2.712   6.469  0.2446 -0.0723 -0.3374
   82MOL   C50846030   3.830   2.842   6.398 -0.2521  0.1879  0.0415
   82MOL   C50946031   3.887   2.944   6.502 -0.3126 -0.1687 -0.1295
   82MOL   C51046032   3.778   3.036   6.550 -0.3858 -0.6258  1.2507
   82MOL   O51146033   3.719   2.965   6.648  0.2422  0.4134  0.8648
   82MOL   C51246034   3.585   2.964   6.659 -0.0891 -0.3624  0.6390
   82MOL   O51346035   3.503   3.017   6.580  0.5229  0.2499 -0.5884
   82MOL   C51446036   3.533   2.874   6.765  0.5143 -0.5800  0.3556
   82MOL   C51546037   3.608   2.817   6.871 -0.1039  0.4197 -0.1593
   82MOL   C51646038   3.547   2.736   6.966 -0.0098  0.0932 -0.2845
   82MOL   C51746039   3.404   2.722   6.963  0.3105  0.4211 -0.7764
   82MOL   C51846040   3.343   2.648   7.076 -0.2022 -0.4938  0.2348
   82MOL   O51946041   3.401   2.572   7.151 -0.6621 -0.0240 -0.3155
   82MOL   C52046042   3.329   2.788   6.863  0.5059 -0.0570  0.1969
   82MOL   C52146043   3.393   2.856   6.763  0.3316  0.9147 -0.0316
   82MOL   H52246044   3.739   2.646   6.406  0.5891 -1.6607  0.9528
   82MOL   H52346045   3.753   2.735   6.565 -0.3367 -0.0355 -0.6228
   82MOL   H52446046   3.736   2.878   6.355 -0.2113 -0.6067 -0.7022
   82MOL   H52546047   3.891   2.814   6.313 -0.0458 -0.9435  0.5588
   82MOL   H52646048   3.931   2.894   6.588 -0.1772 -0.3033 -0.2757
   82MOL   H52746049   3.972   2.996   6.458 -0.7224 -1.4754 -2.5712
   82MOL   H52846050   3.817   3.128   6.592  1.1023 -0.1227 -1.1360
   82MOL   H52946051   3.704   3.074   6.479  0.0944  0.8801  1.5424
   82MOL   H53046052   3.715   2.832   6.875 -0.1415  0.6125  0.1133
   82MOL   H53146053   3.605   2.707   7.052  1.1346  2.3211 -0.2668
   82MOL   H53246054   3.221   2.788   6.867  0.5006 -0.0253  0.0697
   82MOL   H53346055   3.324   2.895   6.688  0.4999 -1.9235 -1.7327
   82MOL   O53446056   3.206   2.654   7.069  0.4494  0.4464 -0.0621
   82MOL   C53546057   3.115   2.573   7.146 -0.3286 -0.7095  0.4789
   82MOL   C53646058   3.099   2.609   7.292 -0.2567  0.5540 -0.5077
   82MOL   C53746059   3.000   2.727   7.330  0.0430  0.5135 -0.0392
   82MOL   C53846060   2.991   2.740   7.483  0.2068 -0.3605 -0.4753
   82MOL   O53946061   2.896   2.840   7.517  0.1824  0.2307  0.4082
   82MOL   C54046062   2.946   2.965   7.548  0.3181 -0.0887 -0.4241
   82MOL   O54146063   3.066   2.996   7.561  0.0655  0.2543 -0.1580
   82MOL   C54246064   2.837   3.068   7.569 -0.2277  0.4155  0.8288
   82MOL   C54346065   2.863   3.206   7.583 -0.2856  0.2355  0.1737
   82MOL   C54446066   2.771   3.305   7.597  0.0990  0.3904 -0.2673
   82MOL   C54546067   2.635   3.275   7.598  0.1507 -0.1781  0.1931
   82MOL   C54646068   2.543   3.381   7.626  0.3642 -0.0195  0.3765
   82MOL   O54746069   2.573   3.496   7.625  0.3249 -0.3795  0.0053
   82MOL   C54846070   2.594   3.145   7.583  0.1163  0.0439 -0.4183
   82MOL   C54946071   2.698   3.043   7.573  0.2386  0.3958 -0.2411
   82MOL   H55046072   3.018   2.583   7.098 -0.2077 -0.6501  0.2445
   82MOL   H55146073   3.146   2.470   7.128 -0.6883 -0.6319 -0.6201
   82MOL   H55246074   3.190   2.632   7.348 -1.3600 -0.5181  1.8347
   82MOL   H55346075   3.070   2.518   7.345  1.7457 -0.1866 -0.6223
   82MOL   H55446076   3.058   2.816   7.304 -0.4865  1.5401  2.1826
   82MOL   H55546077   2.906   2.717   7.277 -0.2767  2.0007  0.2320
   82MOL   H55646078   2.951   2.647   7.523  0.6661  0.2014  1.3506
   82MOL   H55746079   3.087   2.755   7.533 -0.1299 -1.3754  0.5153
   82MOL   H55846080   2.965   3.242   7.576 -0.6031  1.0016 -0.5288
   82MOL   H55946081   2.813   3.402   7.621 -1.5943  1.1112 -0.1721
   82MOL   H56046082   2.491   3.119   7.604  0.2805 -0.4357 -0.2073
   82MOL   H56146083   2.674   2.940   7.553 -0.2278  0.1402  1.5234
   82MOL   H56246084   2.437   3.356   7.637 -0.2608  1.9300 -0.9859
   83MOL     O146085   4.621   2.263   0.076  0.0612 -0.4396  0.0761
   83MOL     C246086   4.700   2.283   0.186  0.0515 -0.0471  0.1287
   83MOL     C346087   4.785   2.158   0.191 -0.8699 -0.4715  0.0808
   83MOL     C446088   4.879   2.163   0.306  0.1586 -0.0907 -0.2346
   83MOL     C546089   4.952   2.027   0.327  0.0078 -0.8814 -0.2880
   83MOL     O646090   4.982   2.011   0.459  0.4240  0.0048  0.5398
   83MOL     C746091   5.113   2.018   0.498 -0.2680 -0.3232  0.7205
   83MOL     O846092   5.209   2.027   0.422  0.1276 -0.5897 -0.2426
   83MOL     C946093   5.112   2.041   0.644  0.6047 -0.3186 -0.5006
   83MOL    C1046094   5.225   2.014   0.725  0.2780 -0.3735 -0.2202
   83MOL    C1146095   5.223   2.040   0.863  0.4823 -0.0380  0.6682
   83MOL    C1246096   5.107   2.076   0.929 -0.1749  0.8831 -0.9625
   83MOL    C1346097   5.103   2.085   1.076 -0.0295  0.1863 -0.2463
   83MOL    O1446098   5.201   2.059   1.151 -0.3315  0.0934 -0.5004
   83MOL    C1546099   4.988   2.094   0.849 -0.8653  0.6765 -0.9803
   83MOL    C1646100   4.992   2.074   0.713 -1.0042 -1.1610  0.3695
   83MOL    H1746101   4.767   2.368   0.172 -0.6673  0.6302  0.7260
   83MOL    H1846102   4.643   2.300   0.277 -0.0297  0.5926 -0.0409
   83MOL    H1946103   4.826   2.128   0.094 -1.2885 -0.9967  0.0647
   83MOL    H2046104   4.719   2.080   0.227  3.1211 -3.3827  1.4322
   83MOL    H2146105   4.946   2.248   0.289  1.3088 -0.4908  1.9966
   83MOL    H2246106   4.824   2.185   0.398 -2.2648  0.4316 -1.7700
   83MOL    H2346107   4.892   1.950   0.278 -1.9090  0.5153 -0.1974
   83MOL    H2446108   5.039   2.041   0.263 -0.7706  1.0750 -0.9387
   83MOL    H2546109   5.315   1.978   0.678 -0.0955 -0.1127 -1.1458
   83MOL    H2646110   5.315   2.018   0.914  0.5662  0.1325  0.5893
   83MOL    H2746111   4.892   2.091   0.899 -0.7860 -3.5394 -0.9660
   83MOL    H2846112   4.898   2.076   0.662 -0.3046 -1.2173 -0.9453
   83MOL    H2946113   4.547   2.321   0.078  0.0961 -0.4018  0.2971
   83MOL    O3046114   4.983   2.135   1.123 -0.4849 -0.1297  0.2065
   83MOL    C3146115   4.965   2.178   1.259  0.3526 -0.8808 -0.3176
   83MOL    C3246116   4.820   2.231   1.270 -0.1064  0.3630 -0.4803
   83MOL    C3346117   4.796   2.364   1.189  0.3018 -0.2289 -0.2030
   83MOL    C3446118   4.661   2.436   1.217 -0.4059  0.0230 -0.1156
   83MOL    O3546119   4.555   2.348   1.181  1.1491 -0.1280  0.1312
   83MOL    C3646120   4.436   2.368   1.244 -0.1775 -0.6212  0.1513
   83MOL    O3746121   4.410   2.466   1.316  0.8321 -0.0891  0.1831
   83MOL    C3846122   4.336   2.257   1.219  0.6102  0.4010  0.3038
   83MOL    C3946123   4.353   2.157   1.119  0.4891  0.1830 -0.3289
   83MOL    C4046124   4.256   2.046   1.109 -0.3709  0.1285 -0.3384
   83MOL    C4146125   4.147   2.044   1.193  0.2372 -0.5952 -1.1554
   83MOL    C4246126   4.058   1.924   1.183  0.3942  0.1834 -0.3087
   83MOL    O4346127   4.074   1.836   1.099  0.1683 -0.4692 -0.1390
   83MOL    C4446128   4.131   2.147   1.290  1.0273 -0.6491 -1.1952
   83MOL    C4546129   4.224   2.254   1.304  0.4214  0.5052  0.0196
   83MOL    H4646130   4.965   2.096   1.332  0.1441 -0.7073 -0.1204
   83MOL    H4746131   5.021   2.265   1.291 -3.0804  1.8762 -1.5468
   83MOL    H4846132   4.795   2.237   1.376 -1.5140 -1.6613 -0.6696
   83MOL    H4946133   4.759   2.149   1.232  0.7880 -1.7556  2.4178
   83MOL    H5046134   4.875   2.436   1.206  0.2105 -0.0500 -0.5278
   83MOL    H5146135   4.799   2.325   1.087  0.8346  3.7323 -1.7690
   83MOL    H5246136   4.658   2.468   1.321 -1.5401  1.3234 -0.5286
   83MOL    H5346137   4.653   2.520   1.148 -0.8420  1.7383  1.9470
   83MOL    H5446138   4.439   2.155   1.053  0.6814  0.0956 -0.0815
   83MOL    H5546139   4.278   1.971   1.035  1.4665  0.1074  0.1985
   83MOL    H5646140   4.047   2.144   1.358  2.2995  2.5334  0.6075
   83MOL    H5746141   4.198   2.328   1.378  3.3646  2.0378 -0.4005
   83MOL    O5846142   3.957   1.926   1.273  0.6331 -0.2872 -0.2667
   83MOL    C5946143   3.863   1.820   1.289 -0.4263  0.4550 -0.1214
   83MOL    C6046144   3.927   1.688   1.335  0.6167  0.8519 -0.2004
   83MOL    C6146145   4.010   1.683   1.467 -0.2451  0.0356 -0.3773
   83MOL    C6246146   4.070   1.542   1.491  0.2349  0.0888 -0.0504
   83MOL    O6346147   3.965   1.452   1.496  0.1967 -0.1508  0.2982
   83MOL    C6446148   3.986   1.328   1.445  0.0954  0.7414  0.0188
   83MOL    O6546149   4.084   1.295   1.378 -0.4235  0.4008  0.2008
   83MOL    C6646150   3.873   1.235   1.483 -0.3124 -0.1334 -0.0662
   83MOL    C6746151   3.775   1.255   1.578 -0.0435 -0.2823 -0.2309
   83MOL    C6846152   3.678   1.156   1.609 -0.1299 -0.1021 -0.1808
   83MOL    C6946153   3.670   1.040   1.531 -0.6007  0.0301  0.2972
   83MOL    C7046154   3.558   0.934   1.549  0.5539 -0.0322 -0.6708
   83MOL    O7146155   3.558   0.814   1.519  0.1533  0.2339  0.4919
   83MOL    C7246156   3.761   1.025   1.423 -0.0894  0.1131 -0.1586
   83MOL    C7346157   3.862   1.121   1.401 -0.2357 -0.1877  0.0255
   83MOL    H7446158   3.793   1.857   1.364  0.2597  1.0387  0.2477
   83MOL    H7546159   3.806   1.814   1.197  0.5139 -1.2358 -0.6168
   83MOL    H7646160   3.986   1.662   1.248  2.7050 -0.9873  1.7072
   83MOL    H7746161   3.854   1.606   1.338  2.3845 -0.7778 -1.0007
   83MOL    H7846162   4.099   1.741   1.445  0.6054 -1.3965 -0.7613
   83MOL    H7946163   3.958   1.712   1.558 -1.6027  0.4186 -1.2637
   83MOL    H8046164   4.139   1.518   1.410 -0.3721  2.4170 -1.3250
   83MOL    H8146165   4.115   1.532   1.589 -1.3428 -1.2874  0.5609
   83MOL    H8246166   3.785   1.346   1.635 -0.9226 -0.9356  0.9777
   83MOL    H8346167   3.614   1.168   1.696 -0.1765  2.4739 -0.5266
   83MOL    H8446168   3.753   0.936   1.363 -2.0300 -0.3112  0.6701
   83MOL    H8546169   3.929   1.097   1.320  0.3896  0.9620  0.2001
   83MOL    O8646170   3.460   0.992   1.608 -0.0652  0.1387 -0.3455
   83MOL    C8746171   3.360   0.924   1.674  0.7352 -0.3037 -0.1084
   83MOL    C8846172   3.231   1.003   1.679 -0.0777  0.1017  0.6916
   83MOL    C8946173   3.114   0.931   1.745 -0.4659  0.0993 -0.5006
   83MOL    C9046174   2.986   1.016   1.754 -0.4519  0.0462  0.7911
   83MOL    O9146175   2.958   1.071   1.628 -0.4927  0.2514  0.2538
   83MOL    C9246176   2.957   1.206   1.606 -0.5936  0.6643 -0.1576
   83MOL    O9346177   2.979   1.288   1.697  0.8440  0.2230  0.2322
   83MOL    C9446178   2.927   1.241   1.469  0.6154  0.0679  0.0809
   83MOL    C9546179   2.901   1.137   1.372  0.2568 -0.7626 -0.4835
   83MOL    C9646180   2.863   1.173   1.234 -0.1757 -0.3093 -0.1879
   83MOL    C9746181   2.857   1.313   1.199 -0.3726  0.5799 -0.3389
   83MOL    C9846182   2.824   1.339   1.056 -0.4722 -0.2162  0.9258
   83MOL    O9946183   2.791   1.253   0.981 -0.4046  0.2478  0.6545
   83MOL   C10046184   2.891   1.405   1.299 -0.4989  0.0554 -0.3890
   83MOL   C10146185   2.928   1.376   1.432  0.5757  0.3018  0.1104
   83MOL   H10246186   3.337   0.831   1.622  0.3243 -0.7742  0.9077
   83MOL   H10346187   3.371   0.885   1.775 -1.6043  1.3261  0.8266
   83MOL   H10446188   3.203   1.037   1.580 -0.2593 -1.1443  0.2999
   83MOL   H10546189   3.242   1.096   1.735 -0.0422  0.8337 -0.5102
   83MOL   H10646190   3.089   0.837   1.697 -1.0051  0.9705 -1.9604
   83MOL   H10746191   3.138   0.911   1.850 -2.3726  0.6481  0.0625
   83MOL   H10846192   2.898   0.957   1.779 -0.7881 -0.9336 -2.4605
   83MOL   H10946193   3.000   1.101   1.821  0.6224  2.0571 -1.8679
   83MOL   H11046194   2.888   1.033   1.396 -0.9515 -0.8508 -1.4699
   83MOL   H11146195   2.847   1.105   1.153  2.0477 -0.1175 -0.8275
   83MOL   H11246196   2.893   1.507   1.264  1.3480  0.5881  1.1372
   83MOL   H11346197   2.965   1.458   1.490  0.1851  0.1115  0.6251
   83MOL   O11446198   2.835   1.466   1.026 -0.9494  0.0257 -0.2667
   83MOL   C11546199   2.797   1.514   0.903  0.4713  0.6129 -0.5172
   83MOL   C11646200   2.668   1.594   0.905  0.0113  0.7305 -0.6897
   83MOL   C11746201   2.670   1.725   0.996 -0.4288 -0.5509 -0.4466
   83MOL   C11846202   2.714   1.846   0.920  0.4489  0.1526 -0.5209
   83MOL   O11946203   2.620   1.878   0.816 -0.2246  0.4062  0.2667
   83MOL   C12046204   2.507   1.940   0.836 -0.9672 -0.5319 -0.0798
   83MOL   O12146205   2.462   1.948   0.952 -0.3466 -0.0029 -0.4179
   83MOL   C12246206   2.443   1.999   0.715  0.5163  0.1759  0.6902
   83MOL   C12346207   2.501   1.974   0.587  0.2467  0.2528  0.1342
   83MOL   C12446208   2.458   2.050   0.476  1.0000  0.1071  0.3273
   83MOL   C12546209   2.354   2.148   0.494  0.0890 -0.3820 -0.6634
   83MOL   C12646210   2.308   2.245   0.383 -0.0182  0.6818 -1.1544
   83MOL   O12746211   2.313   2.218   0.262  0.0803  0.3113 -0.1869
   83MOL   C12846212   2.295   2.165   0.627  0.2410 -0.0070 -0.5220
   83MOL   C12946213   2.335   2.088   0.730  0.5923 -0.6528  0.1989
   83MOL   H13046214   2.872   1.583   0.863  2.3738  0.4350  2.6097
   83MOL   H13146215   2.794   1.438   0.825  0.7749 -0.4857  0.5242
   83MOL   H13246216   2.600   1.522   0.951  0.6336  2.3654  3.0043
   83MOL   H13346217   2.635   1.607   0.802  0.5089  2.5453 -0.6441
   83MOL   H13446218   2.566   1.730   1.028 -0.0250  0.9121  0.6828
   83MOL   H13546219   2.719   1.712   1.093 -0.6430 -2.3533 -0.5687
   83MOL   H13646220   2.729   1.941   0.972  2.0032  1.2426 -2.8907
   83MOL   H13746221   2.809   1.820   0.873  0.6138 -0.6113  0.2302
   83MOL   H13846222   2.587   1.908   0.582  0.3985  0.1280  3.5654
   83MOL   H13946223   2.489   2.022   0.376  1.9566 -0.8636  0.8965
   83MOL   H14046224   2.207   2.224   0.649 -0.6785 -2.6250  3.4376
   83MOL   H14146225   2.283   2.100   0.824 -0.5744  0.1261 -0.5341
   83MOL   O14246226   2.254   2.355   0.426 -0.7466  0.5502  0.8873
   83MOL   C14346227   2.223   2.457   0.336  0.0955 -0.0136  0.2597
   83MOL   C14446228   2.177   2.580   0.421 -0.6678 -0.1037 -0.4003
   83MOL   C14546229   2.040   2.560   0.479 -0.3844  0.2665  1.0134
   83MOL   C14646230   2.019   2.656   0.587 -0.2197  0.9716 -0.5012
   83MOL   O14746231   2.086   2.606   0.704  0.1726  0.1981 -0.0778
   83MOL   C14846232   2.064   2.665   0.821  1.0413 -0.4152  0.7961
   83MOL   O14946233   2.002   2.774   0.833  0.1360 -0.9898 -0.7463
   83MOL   C15046234   2.125   2.597   0.943  0.1109  0.5605  0.7626
   83MOL   C15146235   2.104   2.642   1.077  0.2249 -0.2067  0.2698
   83MOL   C15246236   2.158   2.573   1.188  0.5064  0.6633 -0.4797
   83MOL   C15346237   2.228   2.453   1.169 -0.3700  0.3075  0.0612
   83MOL   C15446238   2.266   2.375   1.292  0.2520 -0.0803 -0.3862
   83MOL   O15546239   2.231   2.412   1.411 -0.3983  0.1656  0.1208
   83MOL   C15646240   2.256   2.417   1.035 -0.5729  0.4160 -0.6387
   83MOL   C15746241   2.209   2.487   0.923  0.2853 -0.3328  0.1613
   83MOL   H15846242   2.310   2.489   0.280  0.6767 -0.0766  1.1285
   83MOL   H15946243   2.145   2.438   0.262 -0.0894 -0.3177  0.5289
   83MOL   H16046244   2.188   2.669   0.359 -0.7119 -0.8765 -1.5285
   83MOL   H16146245   2.250   2.590   0.502  0.1990  1.0407 -1.3091
   83MOL   H16246246   1.969   2.567   0.397  1.4610 -0.3176 -0.6676
   83MOL   H16346247   2.021   2.457   0.508 -0.5225 -0.5214 -1.7894
   83MOL   H16446248   2.052   2.754   0.553 -1.9792  1.9812  0.6549
   83MOL   H16546249   1.914   2.662   0.615  0.2319 -0.5684  1.7144
   83MOL   H16646250   2.037   2.725   1.097  0.3790 -0.4137  1.7519
   83MOL   H16746251   2.139   2.608   1.288  0.0325  0.7793 -0.6082
   83MOL   H16846252   2.317   2.329   1.020 -0.4178 -0.2234  3.0984
   83MOL   H16946253   2.241   2.459   0.824  1.8161  1.2459  0.1843
   83MOL   O17046254   2.333   2.265   1.257  0.3246 -0.1949  0.4971
   83MOL   C17146255   2.379   2.173   1.357  0.0423  0.2801 -0.9991
   83MOL   C17246256   2.410   2.045   1.285  0.3542 -0.0302  0.1946
   83MOL   C17346257   2.477   1.947   1.379  0.5163 -0.2857  0.2176
   83MOL   C17446258   2.526   1.814   1.316  0.1462 -0.6983  1.2349
   83MOL   O17546259   2.530   1.718   1.424 -0.1185  0.2777  0.6733
   83MOL   C17646260   2.579   1.596   1.404  0.2422 -0.9579 -0.4058
   83MOL   O17746261   2.637   1.568   1.299  0.4689 -0.5179  0.6626
   83MOL   C17846262   2.576   1.514   1.526  0.6121 -0.5161  0.2236
   83MOL   C17946263   2.624   1.382   1.521 -0.1341 -0.0127  0.5868
   83MOL   C18046264   2.610   1.288   1.627 -0.3932 -0.1297  0.0392
   83MOL   C18146265   2.558   1.332   1.754  0.0049  0.9893  0.2778
   83MOL   C18246266   2.538   1.235   1.863  0.9440  0.3488 -0.2692
   83MOL   O18346267   2.588   1.123   1.864  0.1828 -0.1833  0.5894
   83MOL   C18446268   2.515   1.468   1.757 -0.0404  0.4322  0.5276
   83MOL   C18546269   2.520   1.560   1.648 -0.0207  0.0322  0.3044
   83MOL   H18646270   2.460   2.223   1.411 -1.9458  2.5514 -0.0435
   83MOL   H18746271   2.306   2.155   1.436 -0.7038  0.7719 -1.5764
   83MOL   H18846272   2.478   2.078   1.207 -1.5452 -0.1496 -1.5481
   83MOL   H18946273   2.328   1.992   1.237 -0.1276  0.7805  0.1345
   83MOL   H19046274   2.550   2.000   1.441  0.4125 -1.6670  1.5718
   83MOL   H19146275   2.397   1.913   1.445  0.3670 -1.4087 -0.5182
   83MOL   H19246276   2.462   1.773   1.238 -1.4542 -0.2896  2.3038
   83MOL   H19346277   2.625   1.828   1.273 -0.6864 -1.1047 -0.8829
   83MOL   H19446278   2.666   1.335   1.433  0.6558  0.0723  0.9158
   83MOL   H19546279   2.648   1.188   1.610  0.1579  0.1170 -0.2089
   83MOL   H19646280   2.476   1.495   1.854  0.6777  0.6203  0.7629
   83MOL   H19746281   2.499   1.665   1.662 -1.2841 -0.1881  0.0851
   83MOL   O19846282   2.477   1.282   1.970 -0.0229 -0.1676  0.2094
   83MOL   C19946283   2.453   1.203   2.089  0.3075  0.3225  0.2416
   83MOL   C20046284   2.329   1.116   2.097  0.5526 -0.7925  0.1496
   83MOL   C20146285   2.305   1.025   2.214  0.4815 -0.2836  0.1870
   83MOL   C20246286   2.381   0.891   2.198 -0.4091  0.0596  0.0870
   83MOL   O20346287   2.521   0.909   2.200 -0.2008  1.1129 -0.2779
   83MOL   C20446288   2.582   0.918   2.317  1.2771 -0.0736  0.4953
   83MOL   O20546289   2.531   0.894   2.427 -0.1038  0.5636 -0.1724
   83MOL   C20646290   2.721   0.950   2.294 -0.3378  0.2938  0.1179
   83MOL   C20746291   2.772   0.976   2.163  0.1322  0.1640 -0.1870
   83MOL   C20846292   2.910   1.002   2.142  0.2570  0.2853 -0.8081
   83MOL   C20946293   2.996   1.010   2.257 -0.4215 -0.1757 -0.4832
   83MOL   C21046294   3.140   1.051   2.227 -0.5280 -0.1955 -0.1781
   83MOL   O21146295   3.211   1.086   2.324 -0.0053  0.5887  0.1005
   83MOL   C21246296   2.948   0.993   2.387 -0.4868  0.3556  0.3034
   83MOL   C21346297   2.807   0.964   2.405 -0.7059 -0.1761  0.1804
   83MOL   H21446298   2.542   1.142   2.098  0.1958  0.4953  3.1345
   83MOL   H21546299   2.448   1.271   2.174  1.1163  0.1231  0.4529
   83MOL   H21646300   2.315   1.061   2.004 -0.7979 -0.4818  0.1546
   83MOL   H21746301   2.243   1.183   2.108  2.8917  1.7357  4.1533
   83MOL   H21846302   2.348   1.080   2.297  1.9584 -0.3460 -0.5136
   83MOL   H21946303   2.201   0.998   2.234  0.5702 -0.5253  0.3207
   83MOL   H22046304   2.362   0.822   2.279 -1.0204 -1.1006 -1.0280
   83MOL   H22146305   2.347   0.849   2.103 -1.2198  1.9678 -0.5103
   83MOL   H22246306   2.707   0.974   2.077  0.0308 -2.7138 -0.1053
   83MOL   H22346307   2.953   1.031   2.047  1.2527  3.1011  0.4333
   83MOL   H22446308   3.014   0.997   2.473 -2.0674  1.6987  1.4960
   83MOL   H22546309   2.761   0.947   2.501 -2.4076  0.5555 -0.5022
   83MOL   O22646310   3.179   1.037   2.105  0.3653 -0.5388  0.0977
   83MOL   C22746311   3.294   1.099   2.061 -0.2861  0.6052 -0.2947
   83MOL   C22846312   3.420   1.014   2.075  0.0982  0.0870  0.5292
   83MOL   C22946313   3.535   1.071   1.990  0.1741 -0.2971 -0.0829
   83MOL   C23046314   3.659   0.984   2.015  0.3545  0.4967  0.5863
   83MOL   O23146315   3.776   1.041   1.965 -0.2261 -0.2294  0.1474
   83MOL   C23246316   3.824   0.988   1.855  0.4979 -0.0332  0.1835
   83MOL   O23346317   3.780   0.889   1.792  0.5448  0.0928  0.5938
   83MOL   C23446318   3.961   1.044   1.821  0.1701 -0.0310 -0.1354
   83MOL   C23546319   4.005   1.174   1.856  0.2540 -0.3761 -0.3325
   83MOL   C23646320   4.120   1.223   1.797 -0.0594  0.1663  0.3480
   83MOL   C23746321   4.205   1.144   1.715 -0.1089 -0.0448  0.0394
   83MOL   C23846322   4.330   1.198   1.661 -0.9011 -0.1529 -1.1693
   83MOL   O23946323   4.356   1.319   1.680 -0.0425  0.1972 -0.6256
   83MOL   C24046324   4.173   1.009   1.691  0.4324 -0.2517  0.4958
   83MOL   C24146325   4.052   0.966   1.750  0.1021 -0.8766  0.1450
   83MOL   H24246326   3.284   1.131   1.957  0.9544 -0.8991 -0.8940
   83MOL   H24346327   3.301   1.189   2.123 -3.8917  0.3499  0.6048
   83MOL   H24446328   3.399   0.916   2.033  0.0890  0.7282 -0.9800
   83MOL   H24546329   3.457   1.009   2.178 -0.5806 -3.8559  0.6502
   83MOL   H24646330   3.514   1.068   1.883 -1.5035  0.7210  0.1954
   83MOL   H24746331   3.560   1.176   2.005 -1.9103  0.3330 -0.8692
   83MOL   H24846332   3.676   0.961   2.121  2.1570  2.7018  0.8108
   83MOL   H24946333   3.633   0.891   1.964  0.9464 -0.3601  1.8251
   83MOL   H25046334   3.938   1.237   1.912 -2.0336 -0.1941 -3.1105
   83MOL   H25146335   4.142   1.325   1.824 -3.1042  0.5719  1.5148
   83MOL   H25246336   4.240   0.943   1.638 -0.7374 -0.4165 -0.8185
   83MOL   H25346337   4.016   0.867   1.725  1.8875 -1.6765  0.6353
   83MOL   O25446338   4.400   1.110   1.582  0.4562 -0.0829  0.1322
   83MOL   C25546339   4.521   1.159   1.533 -0.1728 -1.0469 -0.1321
   83MOL   C25646340   4.504   1.252   1.411  0.7343 -1.0170  0.3603
   83MOL   C25746341   4.631   1.324   1.375  0.8328 -0.2006 -0.2568
   83MOL   C25846342   4.672   1.436   1.471  0.1068 -0.3891  0.0158
   83MOL   O25946343   4.796   1.504   1.440  0.1170 -0.3742  0.5276
   83MOL   C26046344   4.912   1.449   1.463 -0.2262  0.5999 -0.2036
   83MOL   O26146345   4.931   1.331   1.504  0.1002  0.0181 -0.6205
   83MOL   C26246346   5.036   1.536   1.442  0.3231  0.2169  0.2899
   83MOL   C26346347   5.027   1.676   1.412 -0.2992  0.6563 -0.6860
   83MOL   C26446348   5.143   1.751   1.386 -0.0327  0.5465  0.0894
   83MOL   C26546349   5.275   1.694   1.401  0.6590  0.1618  0.3898
   83MOL   C26646350   5.396   1.769   1.377 -0.2825 -0.7568  0.3661
   83MOL   O26746351   5.502   1.714   1.347  0.2453  0.2607 -0.5537
   83MOL   C26846352   5.280   1.561   1.446 -0.0745  0.1984 -0.0932
   83MOL   C26946353   5.167   1.480   1.458  0.7362  0.1178  0.3587
   83MOL   H27046354   4.574   1.207   1.615 -0.7164 -0.4857 -0.1010
   83MOL   H27146355   4.580   1.073   1.504  0.3655 -2.0110  3.6358
   83MOL   H27246356   4.426   1.327   1.428  0.7688 -0.9846  0.3760
   83MOL   H27346357   4.469   1.190   1.329 -1.5739 -1.1703  1.4171
   83MOL   H27446358   4.709   1.247   1.376  0.2165 -0.8207  2.4105
   83MOL   H27546359   4.621   1.371   1.277  0.0104 -1.6434 -0.8754
   83MOL   H27646360   4.597   1.515   1.472  1.5008  0.9748  0.2876
   83MOL   H27746361   4.677   1.390   1.569  2.4833  1.6001  0.8809
   83MOL   H27846362   4.931   1.725   1.411 -0.5572  0.2426  1.4950
   83MOL   H27946363   5.134   1.856   1.362  2.7044  1.0894  1.3209
   83MOL   H28046364   5.376   1.513   1.458  0.1907  0.6963 -0.2286
   83MOL   H28146365   5.182   1.376   1.486 -1.1062 -0.8851 -2.2206
   83MOL   O28246366   5.372   1.905   1.388  0.0904  0.5977 -0.6144
   83MOL   C28346367   5.475   1.998   1.359 -0.6823 -0.8794 -0.4256
   83MOL   C28446368   5.464   2.119   1.457  0.1732  0.5410 -0.2268
   83MOL   C28546369   5.346   2.218   1.418 -0.1203 -0.9246 -0.0715
   83MOL   C28646370   5.350   2.339   1.505 -0.4372  0.5696  0.7305
   83MOL   O28746371   5.272   2.444   1.453  0.2154 -0.0855 -0.0134
   83MOL   C28846372   5.152   2.481   1.517 -0.2667  0.7774  0.1091
   83MOL   O28946373   5.120   2.446   1.631  0.1752  1.3819 -0.2616
   83MOL   C29046374   5.067   2.570   1.436 -0.0846 -0.2335 -0.1416
   83MOL   C29146375   4.936   2.595   1.476 -0.2439  0.6524  0.0188
   83MOL   C29246376   4.851   2.681   1.406 -0.0432  1.1090  0.2418
   83MOL   C29346377   4.894   2.739   1.286  0.7250  0.1400  0.4986
   83MOL   C29446378   4.804   2.825   1.202 -0.5293  0.0280 -0.0207
   83MOL   O29546379   4.856   2.906   1.123  0.0222 -0.2520  0.0176
   83MOL   C29646380   5.028   2.718   1.239 -0.3392  0.5024  0.5291
   83MOL   C29746381   5.109   2.629   1.313  0.2159  0.2653  0.0639
   83MOL   H29846382   5.573   1.955   1.379 -0.1003  1.1105  1.1723
   83MOL   H29946383   5.464   2.036   1.258  1.3353 -0.6554 -0.5721
   83MOL   H30046384   5.558   2.175   1.456  0.1201  0.6893  1.9720
   83MOL   H30146385   5.450   2.085   1.559  0.6007 -0.1583 -0.3980
   83MOL   H30246386   5.355   2.248   1.314 -0.5617 -1.9052 -0.3991
   83MOL   H30346387   5.246   2.176   1.419  0.0041 -1.2211  0.6265
   83MOL   H30446388   5.321   2.303   1.604  1.1152  0.1790  1.0603
   83MOL   H30546389   5.448   2.387   1.501 -0.4349  0.4204 -2.0977
   83MOL   H30646390   4.896   2.549   1.565 -4.2544  0.5122 -1.7623
   83MOL   H30746391   4.748   2.692   1.436 -0.0904 -1.4712  1.1727
   83MOL   H30846392   5.052   2.765   1.145 -4.2249  0.8880 -0.3564
   83MOL   H30946393   5.210   2.616   1.276 -0.2433  4.4091 -3.0555
   83MOL   O31046394   4.674   2.813   1.225  0.1351  0.2600  0.0191
   83MOL   C31146395   4.595   2.882   1.133  0.3011  0.0482 -0.6042
   83MOL   C31246396   4.453   2.839   1.152 -0.1363 -0.0445 -0.3312
   83MOL   C31346397   4.411   2.811   1.302  0.1137  0.5686 -0.4701
   83MOL   C31446398   4.259   2.798   1.324 -0.7720 -0.1887  0.7749
   83MOL   O31546399   4.192   2.710   1.230  0.6422  0.2659  0.1011
   83MOL   C31646400   4.125   2.759   1.131  0.1794 -0.5835 -0.5922
   83MOL   O31746401   4.097   2.878   1.119 -0.9720  0.0516  0.1066
   83MOL   C31846402   4.074   2.652   1.040 -0.4844 -0.7960  0.0536
   83MOL   C31946403   4.093   2.518   1.070  0.0949  0.0395 -0.6990
   83MOL   C32046404   4.045   2.417   0.983 -0.0752 -0.3223 -0.2599
   83MOL   C32146405   4.005   2.446   0.851 -0.3983 -0.5438  0.0869
   83MOL   C32246406   3.954   2.339   0.751  0.4235 -0.0610  0.2427
   83MOL   O32346407   3.932   2.357   0.630  0.3374 -0.4125  0.9867
   83MOL   C32446408   3.996   2.585   0.811 -0.2249  0.5140 -0.3275
   83MOL   C32546409   4.023   2.687   0.907 -0.6416 -0.0584  0.4690
   83MOL   H32646410   4.600   2.988   1.156 -1.0391 -0.2552  1.1561
   83MOL   H32746411   4.624   2.865   1.029 -0.1233  2.2667 -1.1127
   83MOL   H32846412   4.429   2.755   1.087  2.1066 -1.2645  0.3465
   83MOL   H32946413   4.393   2.926   1.124 -1.1418 -0.6944 -0.2108
   83MOL   H33046414   4.464   2.723   1.338 -2.1415 -0.4562  0.4827
   83MOL   H33146415   4.451   2.886   1.369 -1.7340  3.1244 -2.1242
   83MOL   H33246416   4.241   2.774   1.429  1.9157 -2.4289  0.7740
   83MOL   H33346417   4.217   2.898   1.327 -1.3273 -0.4245  1.0484
   83MOL   H33446418   4.116   2.486   1.171 -1.6591  2.6342  0.5800
   83MOL   H33546419   4.051   2.312   1.006  1.5426 -0.2451 -0.3153
   83MOL   H33646420   3.957   2.602   0.712 -0.6311 -0.8842 -0.4177
   83MOL   H33746421   4.016   2.791   0.880 -1.2414 -0.5351 -1.2439
   83MOL   O33846422   3.942   2.214   0.811  0.0183  0.0108 -0.0661
   83MOL   C33946423   3.898   2.104   0.736  0.0770  0.1342  1.0011
   83MOL   C34046424   3.905   1.971   0.818  0.7458 -0.3371  0.3278
   83MOL   C34146425   3.853   1.850   0.730 -0.2124 -0.1995  0.1706
   83MOL   C34246426   3.841   1.731   0.822 -0.0413  0.3270 -1.2632
   83MOL   O34346427   3.974   1.695   0.856  0.0988 -0.2067  0.0888
   83MOL   C34446428   3.989   1.583   0.925 -0.1855 -0.4396  0.7899
   83MOL   O34546429   3.897   1.534   0.987 -0.6439  0.2192  0.1340
   83MOL   C34646430   4.131   1.524   0.933  0.7030 -0.3620 -0.5153
   83MOL   C34746431   4.233   1.582   0.854 -0.3729 -0.6585  0.3218
   83MOL   C34846432   4.365   1.529   0.863 -0.2295  0.9724 -0.1557
   83MOL   C34946433   4.395   1.427   0.958  0.4908 -0.3294 -0.7406
   83MOL   C35046434   4.531   1.374   0.983 -0.8896  0.6507 -0.0131
   83MOL   O35146435   4.550   1.252   0.999  0.2214 -0.5762  0.0163
   83MOL   C35246436   4.289   1.369   1.031  0.9111 -0.5249  0.8322
   83MOL   C35346437   4.160   1.420   1.024  0.2364 -0.8715 -0.1128
   83MOL   H35446438   3.793   2.131   0.723  0.5978  1.8909  0.4295
   83MOL   H35546439   3.945   2.095   0.639  1.2583 -0.6481  1.6325
   83MOL   H35646440   3.840   1.967   0.906 -0.1725  0.1943 -0.3045
   83MOL   H35746441   4.006   1.956   0.853  0.2955 -2.5825  0.7103
   83MOL   H35846442   3.758   1.871   0.680 -0.3003 -1.4227 -0.1739
   83MOL   H35946443   3.923   1.844   0.647 -0.3320  0.3436  0.0222
   83MOL   H36046444   3.777   1.749   0.908  0.9987 -2.2968  0.1091
   83MOL   H36146445   3.785   1.655   0.769  1.2670 -1.5161 -0.0727
   83MOL   H36246446   4.210   1.661   0.784  2.1297 -0.3915 -0.2171
   83MOL   H36346447   4.439   1.567   0.793 -0.4664 -0.4641 -1.2123
   83MOL   H36446448   4.317   1.298   1.107  0.3422 -0.6128  0.9642
   83MOL   H36546449   4.085   1.382   1.092 -0.7803  0.5770 -0.4078
   83MOL   O36646450   4.630   1.461   0.970 -0.2521  0.5405 -0.1547
   83MOL   C36746451   4.762   1.440   1.002  0.5809  0.2237 -0.3717
   83MOL   C36846452   4.854   1.437   0.881 -1.4304 -0.4354  0.4296
   83MOL   C36946453   4.896   1.304   0.821 -0.4815  0.0670 -0.6131
   83MOL   C37046454   4.795   1.209   0.767 -0.1683  0.7088 -0.3933
   83MOL   O37146455   4.847   1.080   0.748 -0.2154  0.4904  0.3133
   83MOL   C37246456   4.906   1.051   0.636 -1.0626 -0.4365  0.0536
   83MOL   O37346457   4.942   1.134   0.553  0.3474 -0.3504  0.2009
   83MOL   C37446458   4.947   0.901   0.622  0.0607 -0.1748  0.3201
   83MOL   C37546459   5.023   0.857   0.513 -0.5999  0.0969 -0.2171
   83MOL   C37646460   5.058   0.727   0.500 -0.1234  1.0744  0.6121
   83MOL   C37746461   5.020   0.632   0.599 -0.0820 -0.3286  0.8006
   83MOL   C37846462   5.059   0.490   0.595  0.6513 -0.3986  0.8806
   83MOL   O37946463   5.059   0.420   0.699  0.1051  0.1042  0.6328
   83MOL   C38046464   4.948   0.678   0.710 -0.3397  0.5855 -0.1902
   83MOL   C38146465   4.904   0.808   0.721  0.4943  0.1818  0.6309
   83MOL   H38246466   4.782   1.526   1.066 -1.1621  1.5883 -1.6147
   83MOL   H38346467   4.769   1.352   1.065 -2.0170 -0.3634 -0.8192
   83MOL   H38446468   4.939   1.496   0.915 -1.2365 -0.1491 -0.5263
   83MOL   H38546469   4.823   1.510   0.807  0.8703  0.8397  0.7043
   83MOL   H38646470   4.959   1.335   0.737  0.8657 -0.1582  0.2951
   83MOL   H38746471   4.968   1.250   0.882 -1.1390 -0.2213 -0.0913
   83MOL   H38846472   4.725   1.201   0.850 -1.9667  0.2766 -1.9141
   83MOL   H38946473   4.746   1.251   0.680  0.5530  2.3231 -0.0289
   83MOL   H39046474   5.059   0.925   0.437 -1.6668  0.4631 -0.4110
   83MOL   H39146475   5.123   0.702   0.418 -3.1994  1.6145 -2.0644
   83MOL   H39246476   4.923   0.606   0.786 -1.3984  1.1622  0.0301
   83MOL   H39346477   4.831   0.821   0.800  2.7547  0.2410  2.8051
   83MOL   O39446478   5.099   0.443   0.479 -0.3942 -0.0128 -0.1116
   83MOL   C39546479   5.138   0.311   0.464  0.1676  0.5252  0.3402
   83MOL   C39646480   5.171   0.274   0.321 -0.2270 -0.2219 -0.6100
   83MOL   C39746481   5.179   0.118   0.294  0.6232 -0.5290  1.1649
   83MOL   C39846482   5.249   0.095   0.160 -0.4843 -0.3215 -0.0011
   83MOL   O39946483   5.157   0.102   0.048 -0.0088  0.3468  0.5012
   83MOL   C40046484   5.202   0.097   8.024  0.6619 -0.0994  1.1546
   83MOL   O40146485   5.320   0.113   7.998 -0.6402  0.6306  0.4606
   83MOL   C40246486   5.099   0.072   7.922 -0.3883  0.0220 -0.2676
   83MOL   C40346487   4.962   0.058   7.966  0.3413 -0.1193 -0.7724
   83MOL   C40446488   4.853   0.030   7.878  0.3058  0.4609  0.0489
   83MOL   C40546489   4.880   0.018   7.739  0.1238 -0.5945  0.1080
   83MOL   C40646490   4.766   8.085   7.643 -0.0331 -0.0074 -0.1684
   83MOL   O40746491   4.658   8.034   7.685  0.4377 -0.4984 -0.0876
   83MOL   C40846492   5.019   0.018   7.694  0.2078 -0.6994  0.1464
   83MOL   C40946493   5.123   0.043   7.786  0.0642  0.4253  0.0954
   83MOL   H41046494   5.222   0.282   0.527  0.1739  0.4736  0.3088
   83MOL   H41146495   5.064   0.248   0.514  1.1992 -0.7894  0.2260
   83MOL   H41246496   5.264   0.326   0.297 -0.8117 -0.2289 -3.0262
   83MOL   H41346497   5.090   0.313   0.258  0.4396  0.0045 -1.3267
   83MOL   H41446498   5.238   0.075   0.375  0.5073 -1.0152  0.9972
   83MOL   H41546499   5.082   0.067   0.295  1.0303 -1.3445 -0.1360
   83MOL   H41646500   5.327   0.170   0.151  2.1703 -2.7348  1.9311
   83MOL   H41746501   5.299   8.097   0.157  0.2619  0.0375  0.9370
   83MOL   H41846502   4.939   0.068   8.072 -2.7058 -1.3648 -1.2549
   83MOL   H41946503   4.753   0.005   7.911  0.2009 -0.0391 -0.6480
   83MOL   H42046504   5.038   8.086   7.592 -1.2131 -1.4575  0.0986
   83MOL   H42146505   5.225   0.028   7.754 -1.6953 -2.2816 -4.8212
   83MOL   O42246506   4.789   0.014   7.513  0.0025  0.0111  0.2198
   83MOL   C42346507   4.700   8.081   7.411  0.0859 -0.6485  0.0207
   83MOL   C42446508   4.754   0.019   7.272  0.5300  0.4187 -0.0568
   83MOL   C42546509   4.661   8.045   7.171  0.1972  0.0606  0.2850
   83MOL   C42646510   4.712   8.054   7.028  0.1056 -0.2034 -0.2468
   83MOL   O42746511   4.731   0.099   7.004 -0.2352 -0.0584  0.4216
   83MOL   C42846512   4.844   0.130   6.934  0.5202 -0.4749 -0.2066
   83MOL   O42946513   4.934   0.047   6.899  0.5153 -0.6699  0.1238
   83MOL   C43046514   4.854   0.285   6.911  0.2577  0.1909  0.2842
   83MOL   C43146515   4.753   0.375   6.939  0.3907 -0.1809  0.5858
   83MOL   C43246516   4.768   0.520   6.935 -0.3360 -0.4271 -0.0360
   83MOL   C43346517   4.892   0.567   6.899  0.3334 -0.4353 -0.5629
   83MOL   C43446518   4.920   0.711   6.890  0.1565 -0.5937 -0.0890
   83MOL   O43546519   5.035   0.765   6.868  0.2797  0.0256  0.3412
   83MOL   C43646520   4.998   0.474   6.880  0.1555 -0.5805  0.2005
   83MOL   C43746521   4.976   0.338   6.872  0.0595 -0.0779 -0.1732
   83MOL   H43846522   4.687   7.973   7.409  0.9948 -0.8132  2.0795
   83MOL   H43946523   4.602   0.030   7.423  0.2634 -0.4681  0.8272
   83MOL   H44046524   4.851   8.070   7.255  0.2255 -0.7814  1.3831
   83MOL   H44146525   4.769   0.126   7.263 -0.3638  0.6590  1.0956
   83MOL   H44246526   4.639   7.941   7.196  1.2884  0.0582  1.3059
   83MOL   H44346527   4.560   8.083   7.185  0.4165  0.7102  0.1302
   83MOL   H44446528   4.798   7.989   7.011  0.1991  0.1933 -1.3128
   83MOL   H44546529   4.644   8.015   6.953 -0.1371 -1.5348  0.6411
   83MOL   H44646530   4.659   0.335   6.974  0.1277 -1.1674 -1.1764
   83MOL   H44746531   4.685   0.588   6.947 -0.2946 -0.2453 -0.7308
   83MOL   H44846532   5.100   0.507   6.865  0.0708 -0.2266  0.3913
   83MOL   H44946533   5.053   0.265   6.853  1.6475  2.3242 -3.3370
   83MOL   O45046534   4.804   0.789   6.893  0.3717  0.3000 -0.5180
   83MOL   C45146535   4.815   0.928   6.909 -0.1242 -0.7624  0.3443
   83MOL   C45246536   4.730   0.974   7.024 -0.2737  0.4202 -0.1276
   83MOL   C45346537   4.763   0.927   7.160 -0.7226 -0.3006  0.1178
   83MOL   C45446538   4.871   1.007   7.240  0.2554  0.6821 -0.4609
   83MOL   O45546539   5.004   1.005   7.196  0.4143 -0.6068 -0.5371
   83MOL   C45646540   5.088   0.910   7.204 -0.2106  0.8189 -0.3725
   83MOL   O45746541   5.048   0.801   7.240  0.3433 -0.3264  0.0066
   83MOL   C45846542   5.227   0.947   7.161 -0.1466 -1.1427  0.7975
   83MOL   C45946543   5.251   1.076   7.096 -0.5113  0.0243 -0.5609
   83MOL   C46046544   5.380   1.115   7.052  0.9651 -0.4279 -0.2081
   83MOL   C46146545   5.491   1.030   7.078 -0.4475 -0.5962  0.8314
   83MOL   C46246546   5.627   1.066   7.035  0.1434 -0.9731  0.3750
   83MOL   O46346547   5.726   1.002   7.077  0.1978 -0.3068  0.0123
   83MOL   C46446548   5.468   0.912   7.156 -0.0887 -0.1249  0.1281
   83MOL   C46546549   5.337   0.871   7.191  0.1401  0.8127  0.5945
   83MOL   H46646550   4.919   0.961   6.916  0.4333 -2.1077 -1.1441
   83MOL   H46746551   4.783   0.983   6.821 -0.7877  0.6259  1.4393
   83MOL   H46846552   4.631   0.936   6.998  0.2173 -0.2583 -1.0438
   83MOL   H46946553   4.725   1.082   7.016 -4.1817  0.1847 -2.2878
   83MOL   H47046554   4.679   0.943   7.228  0.5377  1.7244  1.2336
   83MOL   H47146555   4.788   0.821   7.171 -1.1782 -0.3828  0.3621
   83MOL   H47246556   4.835   1.109   7.246 -2.0274 -0.0949 -0.1464
   83MOL   H47346557   4.871   0.966   7.341  1.1249  0.9704 -0.3432
   83MOL   H47446558   5.171   1.148   7.085 -1.0959 -0.5213  0.0910
   83MOL   H47546559   5.395   1.206   6.996 -2.1046 -0.1986 -0.7389
   83MOL   H47646560   5.546   0.845   7.188  0.8469 -0.1778 -2.1947
   83MOL   H47746561   5.332   0.781   7.252 -0.5076  0.2454 -0.2777
   83MOL   O47846562   5.631   1.164   6.940 -0.1905 -0.1689  0.1888
   83MOL   C47946563   5.749   1.174   6.861  0.0331 -0.3197 -0.1028
   83MOL   C48046564   5.744   1.302   6.776 -0.0043 -0.0631 -0.1407
   83MOL   C48146565   5.627   1.291   6.672 -0.6626 -1.0194 -0.1354
   83MOL   C48246566   5.561   1.424   6.625 -0.1074  0.8544 -0.0762
   83MOL   O48346567   5.468   1.387   6.527 -0.1892  0.2171 -0.0163
   83MOL   C48446568   5.374   1.477   6.491  0.7610 -0.5140  0.0322
   83MOL   O48546569   5.357   1.590   6.545  0.1070 -0.1510 -0.1275
   83MOL   C48646570   5.281   1.418   6.391 -0.8821 -0.5199 -0.0644
   83MOL   C48746571   5.171   1.495   6.345 -0.0291  0.1264 -0.2646
   83MOL   C48846572   5.081   1.434   6.257 -0.1988  0.6676  0.5669
   83MOL   C48946573   5.102   1.299   6.206 -0.3138 -0.6809 -0.6886
   83MOL   C49046574   5.000   1.232   6.126 -0.6240  0.0538  0.0145
   83MOL   O49146575   4.883   1.264   6.121 -0.3894 -0.5010  0.2369
   83MOL   C49246576   5.216   1.227   6.250  0.5727 -0.4314  0.4324
   83MOL   C49346577   5.307   1.297   6.330 -0.7244 -0.6167 -0.1274
   83MOL   H49446578   5.839   1.172   6.922  0.1729  0.8602 -0.2524
   83MOL   H49546579   5.768   1.084   6.802 -3.0088 -0.9672 -0.1726
   83MOL   H49646580   5.839   1.310   6.723 -0.1647 -1.6714 -0.6819
   83MOL   H49746581   5.731   1.391   6.837  0.6366 -0.5296  0.6686
   83MOL   H49846582   5.650   1.228   6.586 -2.1541 -1.3934 -0.2633
   83MOL   H49946583   5.539   1.238   6.710 -0.0004 -2.7661 -0.9816
   83MOL   H50046584   5.523   1.474   6.714  2.1174  3.8327 -0.7387
   83MOL   H50146585   5.643   1.488   6.592  0.2165  0.3490 -0.2594
   83MOL   H50246586   5.132   1.586   6.389 -0.8212 -0.1600 -0.3534
   83MOL   H50346587   4.992   1.488   6.228 -0.7606 -0.3922  0.3191
   83MOL   H50446588   5.242   1.134   6.202  1.0872  1.1381 -2.4151
   83MOL   H50546589   5.405   1.253   6.344  0.9819  2.1286 -2.8616
   83MOL   O50646590   5.047   1.138   6.035  0.2697  0.0913 -0.2901
   83MOL   C50746591   4.954   1.071   5.957  0.2966 -0.3537  0.2884
   83MOL   C50846592   5.020   0.957   5.887  0.0374 -0.5534  0.5132
   83MOL   C50946593   4.936   0.906   5.776 -0.2828  0.6744  1.5093
   83MOL   C51046594   5.007   0.792   5.687  0.1732  0.1174  0.3126
   83MOL   O51146595   5.008   0.662   5.755  0.1748 -0.0783 -0.5612
   83MOL   C51246596   5.065   0.544   5.700 -0.6751 -0.0777  0.1780
   83MOL   O51346597   5.106   0.537   5.588  0.8607 -0.3873 -0.3854
   83MOL   C51446598   5.074   0.432   5.785  0.7754  0.5660 -0.2207
   83MOL   C51546599   5.077   0.449   5.923  0.3711  0.2498  0.1496
   83MOL   C51646600   5.084   0.344   6.015  0.2734 -0.7771 -0.0998
   83MOL   C51746601   5.101   0.218   5.963  0.5850 -0.1246  0.3644
   83MOL   C51846602   5.136   0.103   6.056 -0.4413  0.6975 -0.0511
   83MOL   O51946603   5.122   0.110   6.177 -0.5081  0.2496  0.5331
   83MOL   C52046604   5.088   0.188   5.824 -0.1891 -0.4345  0.3761
   83MOL   C52146605   5.082   0.300   5.735 -0.0404  0.8925  0.5150
   83MOL   H52246606   4.868   1.034   6.013  1.0832 -0.8137  1.2097
   83MOL   H52346607   4.920   1.147   5.886 -0.2548 -0.7301  0.1531
   83MOL   H52446608   5.035   0.883   5.966 -0.5143 -1.0103  0.1958
   83MOL   H52546609   5.117   0.985   5.846 -1.4997  2.3197 -1.2773
   83MOL   H52646610   4.839   0.871   5.813  1.3523 -3.1115  2.4659
   83MOL   H52746611   4.924   0.982   5.699 -2.1908 -0.3327  0.7798
   83MOL   H52846612   4.951   0.783   5.593  0.8965  1.1037 -0.2271
   83MOL   H52946613   5.104   0.834   5.660  0.2637  0.6523  1.4460
   83MOL   H53046614   5.083   0.550   5.962  0.0207 -0.0307  0.9632
   83MOL   H53146615   5.097   0.361   6.121  0.8399 -2.4855  0.1242
   83MOL   H53246616   5.087   0.093   5.773 -1.1290 -0.5791  0.6686
   83MOL   H53346617   5.088   0.295   5.627 -0.8583  0.2796  0.4891
   83MOL   O53446618   5.191   8.094   5.990  0.2562 -0.2243  0.5566
   83MOL   C53546619   5.240   7.982   6.061  0.0966 -0.2400 -0.2728
   83MOL   C53646620   5.152   7.849   6.040  0.5558 -0.9813  0.4041
   83MOL   C53746621   5.090   7.800   6.169 -0.4808 -0.9056  0.3596
   83MOL   C53846622   5.002   7.677   6.129  0.7119 -0.2399 -0.6227
   83MOL   O53946623   4.932   7.616   6.244  0.5493  0.1975  0.0522
   83MOL   C54046624   4.981   7.513   6.319 -0.0435  0.1919 -0.5760
   83MOL   O54146625   5.094   7.461   6.292  0.6491 -0.5515 -0.0915
   83MOL   C54246626   4.891   7.478   6.435  1.1676 -0.0045  0.0429
   83MOL   C54346627   4.764   7.542   6.458 -0.2393  0.8867  0.8489
   83MOL   C54446628   4.692   7.499   6.571 -0.0000  0.0396  0.5056
   83MOL   C54546629   4.734   7.395   6.654 -0.0634  0.0622 -0.6843
   83MOL   C54646630   4.644   7.345   6.767 -0.2842  0.2605 -0.1251
   83MOL   O54746631   4.546   7.406   6.814 -0.0893 -0.0993  0.1699
   83MOL   C54846632   4.857   7.342   6.636  0.2950 -0.3426  0.0274
   83MOL   C54946633   4.933   7.371   6.523 -0.1478  0.4322  0.2181
   83MOL   H55046634   5.341   7.975   6.021 -0.3826 -0.3651 -1.4880
   83MOL   H55146635   5.250   8.004   6.167  0.4845  0.3390 -0.4283
   83MOL   H55246636   5.224   7.776   6.003  1.5187  0.0447  0.2171
   83MOL   H55346637   5.075   7.858   5.964  0.6317 -0.5367  0.3768
   83MOL   H55446638   5.174   7.770   6.231 -0.0422 -1.4919 -0.5057
   83MOL   H55546639   5.027   7.870   6.223 -0.5763 -2.3060  2.1081
   83MOL   H55646640   4.918   7.708   6.067  0.7692  0.1943 -0.4838
   83MOL   H55746641   5.053   7.600   6.071 -0.0300 -0.0675 -1.5169
   83MOL   H55846642   4.726   7.625   6.401  0.3349 -0.4576 -1.6082
   83MOL   H55946643   4.594   7.543   6.586 -0.1673 -0.1297 -0.1000
   83MOL   H56046644   4.886   7.258   6.697 -1.2411 -0.1727  1.0092
   83MOL   H56146645   5.023   7.313   6.511  1.6055  3.0037  0.5317
   83MOL   H56246646   4.669   7.248   6.809  0.0066  0.5751  0.4363
   84MOL     O146647   2.381   7.224   4.710  0.0232  0.0175  0.1707
   84MOL     C246648   2.366   7.141   4.820  0.5138  0.1293  0.8595
   84MOL     C346649   2.488   7.091   4.883  0.6178 -0.0673  0.1913
   84MOL     C446650   2.580   7.017   4.785 -0.6081 -0.6431  0.6386
   84MOL     C546651   2.711   6.967   4.843  0.0970 -0.0649 -0.5435
   84MOL     O646652   2.782   6.874   4.758  0.4613 -0.4575  0.9471
   84MOL     C746653   2.843   6.771   4.804 -0.3889  0.3302  1.0424
   84MOL     O846654   2.855   6.743   4.923  0.5246 -0.6172 -0.1737
   84MOL     C946655   2.899   6.684   4.699 -0.2062 -0.3130  0.0461
   84MOL    C1046656   2.893   6.712   4.562 -0.6845  0.4000  0.0725
   84MOL    C1146657   2.954   6.624   4.471  0.5119  0.3525 -0.0962
   84MOL    C1246658   3.021   6.510   4.513 -0.8669 -0.4813  0.1619
   84MOL    C1346659   3.089   6.423   4.410  0.1289  0.5851 -0.4812
   84MOL    O1446660   3.099   6.302   4.413  0.3853 -0.1604  0.0045
   84MOL    C1546661   3.020   6.471   4.647  0.6049  0.5002 -1.2586
   84MOL    C1646662   2.965   6.561   4.742  0.5559  0.1998  0.3299
   84MOL    H1746663   2.319   7.198   4.900 -1.9232 -3.2013  1.9410
   84MOL    H1846664   2.295   7.064   4.791  1.0346 -0.2735  0.6418
   84MOL    H1946665   2.474   7.028   4.971 -2.4207  0.7087  0.3396
   84MOL    H2046666   2.540   7.179   4.919  1.2257 -0.2845 -0.1615
   84MOL    H2146667   2.528   6.933   4.739  0.5909 -0.3723 -1.2784
   84MOL    H2246668   2.590   7.077   4.694 -0.6467 -3.1315 -1.0543
   84MOL    H2346669   2.781   7.050   4.856 -0.3927 -0.1628  3.4875
   84MOL    H2446670   2.701   6.926   4.943 -3.6028 -1.4674 -1.4024
   84MOL    H2546671   2.856   6.805   4.523  1.2041  1.7149  1.3314
   84MOL    H2646672   2.929   6.639   4.367 -1.0761 -0.1906  0.1946
   84MOL    H2746673   3.055   6.372   4.675 -1.4893 -0.1252 -0.7251
   84MOL    H2846674   2.973   6.540   4.847 -2.1304  0.7245  0.6851
   84MOL    H2946675   2.392   7.311   4.744 -0.1145 -0.3466  1.1527
   84MOL    O3046676   3.132   6.494   4.300  0.1737 -0.6754 -0.0190
   84MOL    C3146677   3.188   6.418   4.189 -0.1138  0.0397  0.0139
   84MOL    C3246678   3.230   6.517   4.079  0.8728 -0.3167  0.3463
   84MOL    C3346679   3.351   6.608   4.116 -0.7576 -0.2700  0.0887
   84MOL    C3446680   3.397   6.716   4.008  0.5770  0.1068 -0.5013
   84MOL    O3546681   3.496   6.788   4.075 -0.2563 -0.0091  0.4732
   84MOL    C3646682   3.466   6.890   4.155 -0.1771 -0.3701 -0.0142
   84MOL    O3746683   3.351   6.922   4.173 -0.5175 -0.6959 -0.2160
   84MOL    C3846684   3.575   6.968   4.228 -0.5320  0.0189 -0.2796
   84MOL    C3946685   3.538   7.057   4.332 -0.8191 -0.5080 -0.0348
   84MOL    C4046686   3.635   7.111   4.418  0.6168  0.4284 -0.4019
   84MOL    C4146687   3.769   7.087   4.390 -0.1667  0.2787  0.4793
   84MOL    C4246688   3.874   7.162   4.466 -0.0644 -0.2377  0.4169
   84MOL    O4346689   3.992   7.165   4.430  0.2151  0.1995  0.7868
   84MOL    C4446690   3.817   7.001   4.280 -0.0591 -0.2168 -0.2389
   84MOL    C4546691   3.715   6.944   4.203  0.0591 -0.1510 -0.5823
   84MOL    H4646692   3.262   6.347   4.225 -3.2077 -1.4034  3.8740
   84MOL    H4746693   3.107   6.368   4.136 -1.8863  2.1375  0.6663
   84MOL    H4846694   3.145   6.581   4.056  1.0759 -0.0728  0.2805
   84MOL    H4946695   3.250   6.458   3.989  1.2154  0.7780 -0.3091
   84MOL    H5046696   3.319   6.662   4.205  0.5886  0.5379  0.0926
   84MOL    H5146697   3.441   6.550   4.138 -0.8019 -0.6115 -0.5890
   84MOL    H5246698   3.446   6.664   3.927  0.3326 -0.4956 -0.2659
   84MOL    H5346699   3.317   6.781   3.972 -0.9865 -1.4011  0.1813
   84MOL    H5446700   3.437   7.091   4.347 -0.2088 -0.0995  3.3860
   84MOL    H5546701   3.601   7.193   4.479  1.3708  1.4312 -1.3054
   84MOL    H5646702   3.918   6.971   4.260  0.3709  0.0817  1.4382
   84MOL    H5746703   3.747   6.870   4.131  0.6726  1.2577 -1.7756
   84MOL    O5846704   3.834   7.214   4.581 -0.2044 -0.5263  0.1499
   84MOL    C5946705   3.928   7.246   4.685 -0.0765 -0.6802 -0.1131
   84MOL    C6046706   3.931   7.396   4.703  0.6929 -0.3073  0.2253
   84MOL    C6146707   4.064   7.432   4.768  0.3777  0.3784 -0.0696
   84MOL    C6246708   4.075   7.370   4.904 -0.4015  0.4610 -0.4112
   84MOL    O6346709   4.207   7.419   4.941 -0.0257  0.4781 -0.3539
   84MOL    C6446710   4.277   7.350   5.031  0.1656 -0.3744  0.7586
   84MOL    O6546711   4.234   7.255   5.099  0.0385 -0.0275 -0.2435
   84MOL    C6646712   4.405   7.420   5.055  0.6939  1.2843  0.4679
   84MOL    C6746713   4.462   7.404   5.184 -0.4379 -0.4364  0.1215
   84MOL    C6846714   4.578   7.472   5.214 -0.3567 -0.1010  0.0187
   84MOL    C6946715   4.645   7.545   5.118  0.3811 -0.4284 -0.1696
   84MOL    C7046716   4.779   7.609   5.153  0.5908  0.2972 -0.1385
   84MOL    O7146717   4.832   7.586   5.261 -0.0940  0.2589 -0.4684
   84MOL    C7246718   4.589   7.565   4.993 -0.5001 -0.3510  0.2031
   84MOL    C7346719   4.464   7.504   4.961  0.4507  0.5170 -0.4308
   84MOL    H7446720   3.872   7.205   4.770  0.3916 -0.7491  0.1627
   84MOL    H7546721   4.027   7.203   4.672  0.3162  0.5364 -1.2161
   84MOL    H7646722   3.848   7.420   4.769 -0.5381 -2.5709 -0.4198
   84MOL    H7746723   3.917   7.449   4.609  0.3138 -1.1165 -0.1817
   84MOL    H7846724   4.145   7.396   4.705 -0.0830 -0.5825 -0.1387
   84MOL    H7946725   4.073   7.538   4.791 -3.9743  0.9847 -0.7139
   84MOL    H8046726   4.000   7.403   4.975  0.6535  1.4926  0.2374
   84MOL    H8146727   4.077   7.262   4.891 -3.6293  0.5484 -1.8955
   84MOL    H8246728   4.404   7.353   5.259 -0.2433 -0.7916  0.0317
   84MOL    H8346729   4.618   7.455   5.313 -0.9868 -0.3442  0.2335
   84MOL    H8446730   4.640   7.624   4.918 -1.4908  0.8120  0.4360
   84MOL    H8546731   4.421   7.518   4.863 -0.1624  0.2424 -0.1996
   84MOL    O8646732   4.833   7.668   5.045 -0.4932  0.2048 -0.7271
   84MOL    C8746733   4.952   7.748   5.059  0.3472 -0.3772  0.8458
   84MOL    C8846734   4.985   7.801   4.911  0.0662 -0.0776 -0.0820
   84MOL    C8946735   4.868   7.876   4.843  0.0451  0.4100 -0.2386
   84MOL    C9046736   4.809   7.990   4.924  0.3612  0.4122  0.2004
   84MOL    O9146737   4.706   7.940   5.009 -0.0114  0.1657 -0.4023
   84MOL    C9246738   4.669   8.025   5.112  0.0292  0.0778  0.7753
   84MOL    O9346739   4.705   0.046   5.126 -0.4064  0.8111 -0.1889
   84MOL    C9446740   4.558   7.975   5.189 -0.2965 -0.5528 -0.5865
   84MOL    C9546741   4.488   7.852   5.167 -0.1679  0.2943 -0.4296
   84MOL    C9646742   4.390   7.806   5.246  0.5774  0.1727 -0.4286
   84MOL    C9746743   4.353   7.876   5.364  1.0503  0.0139  0.0492
   84MOL    C9846744   4.265   7.806   5.459  0.1812  0.0560  0.2079
   84MOL    O9946745   4.201   7.704   5.429  0.0114  0.0844 -0.7626
   84MOL   C10046746   4.423   7.996   5.395 -0.6383  0.0098  0.7477
   84MOL   C10146747   4.514   8.049   5.305 -0.1367 -0.4992  0.3053
   84MOL   H10246748   4.942   7.829   5.131 -0.9447  0.4009 -0.1827
   84MOL   H10346749   5.039   7.687   5.083  1.4896  0.2543 -1.4287
   84MOL   H10446750   5.017   7.718   4.848  0.5124  0.1346 -0.1372
   84MOL   H10546751   5.070   7.867   4.925  1.3306 -2.0838  2.0671
   84MOL   H10646752   4.901   7.921   4.749  0.7371 -1.8538 -1.1349
   84MOL   H10746753   4.795   7.803   4.809 -2.5012  2.1710  1.3383
   84MOL   H10846754   4.883   8.049   4.978  0.6049  0.1108  0.1920
   84MOL   H10946755   4.768   8.064   4.856  1.7071  2.6613  1.7596
   84MOL   H11046756   4.514   7.795   5.079 -1.7625 -0.1468 -0.6360
   84MOL   H11146757   4.343   7.710   5.234 -0.5800  0.7368 -0.5842
   84MOL   H11246758   4.408   8.039   5.493 -0.9577 -0.0396  0.7212
   84MOL   H11346759   4.548   0.046   5.342 -1.6605  0.7320 -1.3560
   84MOL   O11446760   4.265   7.864   5.581 -0.2428  0.0766 -0.2497
   84MOL   C11546761   4.181   7.806   5.684 -1.1819  0.6831 -0.6360
   84MOL   C11646762   4.069   7.901   5.731 -0.0904  0.9751 -0.4156
   84MOL   C11746763   3.938   7.892   5.648  0.1081  0.4735 -0.0267
   84MOL   C11846764   3.820   7.980   5.695  0.1266 -0.3449 -0.2921
   84MOL   O11946765   3.789   7.922   5.823  0.9012 -0.3688  0.4889
   84MOL   C12046766   3.671   7.887   5.847 -0.4124 -0.3963 -0.0374
   84MOL   O12146767   3.570   7.901   5.774 -0.6245 -0.3191  0.0945
   84MOL   C12246768   3.661   7.847   5.995  0.0186  0.0723 -0.3352
   84MOL   C12346769   3.775   7.807   6.065 -0.6934  0.0902 -0.2202
   84MOL   C12446770   3.777   7.775   6.203  0.0888  0.0901 -0.6452
   84MOL   C12546771   3.660   7.785   6.278  0.1820 -0.1038  0.1335
   84MOL   C12646772   3.668   7.782   6.427 -0.1859  0.0738 -0.2698
   84MOL   O12746773   3.770   7.783   6.492  0.3726 -0.0857  0.1298
   84MOL   C12846774   3.544   7.814   6.209  0.4590 -0.2896 -0.8568
   84MOL   C12946775   3.545   7.839   6.070 -0.7258 -0.1871 -0.1515
   84MOL   H13046776   4.132   7.715   5.648  2.3938 -1.9127  0.8025
   84MOL   H13146777   4.244   7.780   5.769 -2.4724 -0.7304 -0.0787
   84MOL   H13246778   4.097   8.006   5.726  1.4454  0.5647 -0.7777
   84MOL   H13346779   4.049   7.887   5.837 -1.0168 -0.8853 -0.8136
   84MOL   H13446780   3.982   7.919   5.552 -0.4238 -1.4764 -0.8555
   84MOL   H13546781   3.905   7.788   5.638 -0.3881  0.6078  0.1895
   84MOL   H13646782   3.861   8.077   5.723  0.6191 -0.8200  0.6751
   84MOL   H13746783   3.738   7.989   5.624  0.6475 -0.3260 -0.8927
   84MOL   H13846784   3.874   7.796   6.021  0.5193  1.4757  2.0720
   84MOL   H13946785   3.872   7.757   6.252  0.2187 -3.2184 -1.9814
   84MOL   H14046786   3.452   7.836   6.260  0.3763  2.5442 -2.1298
   84MOL   H14146787   3.457   7.863   6.012 -0.4530 -0.6798 -0.7666
   84MOL   O14246788   3.547   7.790   6.485  0.8606  0.4295 -0.2995
   84MOL   C14346789   3.529   7.820   6.620  0.0940 -0.1607 -0.0353
   84MOL   C14446790   3.386   7.890   6.621 -0.1623 -0.0653  0.1300
   84MOL   C14546791   3.270   7.808   6.569 -0.4927  0.4517  0.0151
   84MOL   C14646792   3.225   7.703   6.667 -0.3771 -0.9563 -0.0377
   84MOL   O14746793   3.150   7.780   6.761 -0.0445 -0.2159 -0.2893
   84MOL   C14846794   3.160   7.767   6.891 -0.1460 -0.3097  0.0476
   84MOL   O14946795   3.216   7.670   6.948  0.2119 -0.3084 -0.3011
   84MOL   C15046796   3.085   7.870   6.963 -0.0509 -0.1948  0.1661
   84MOL   C15146797   3.041   7.986   6.896  0.2513 -0.0002  0.5765
   84MOL   C15246798   2.972   8.087   6.961 -1.0797 -0.3922  0.9041
   84MOL   C15346799   2.962   8.089   7.103 -0.6544  0.0350 -0.0144
   84MOL   C15446800   2.898   0.108   7.174 -0.8347  0.1202 -0.1524
   84MOL   O15546801   2.863   0.209   7.111 -0.5270 -0.2481  0.1806
   84MOL   C15646802   3.006   7.970   7.173 -0.3401 -0.2979  0.1896
   84MOL   C15746803   3.067   7.858   7.101 -0.5712  0.1027 -0.1812
   84MOL   H15846804   3.530   7.734   6.687  0.7531 -0.8931 -0.9852
   84MOL   H15946805   3.600   7.885   6.671  0.1498  0.9371 -1.4804
   84MOL   H16046806   3.399   7.992   6.586  0.3004 -0.4702 -0.9160
   84MOL   H16146807   3.362   7.901   6.726 -0.5479  1.3730 -0.1015
   84MOL   H16246808   3.198   7.885   6.545  0.7660  1.1259 -1.6853
   84MOL   H16346809   3.291   7.763   6.472 -0.0291 -0.6598  0.6194
   84MOL   H16446810   3.155   7.635   6.619 -1.8940  0.5726 -0.0433
   84MOL   H16546811   3.305   7.647   6.715  0.6699  1.3619  0.9905
   84MOL   H16646812   3.044   7.983   6.788 -0.2898 -1.8977  0.5882
   84MOL   H16746813   2.947   0.076   6.902  1.5884  3.5886  5.2669
   84MOL   H16846814   3.000   7.955   7.280  3.6514 -1.3744  0.3195
   84MOL   H16946815   3.084   7.764   7.152  0.9487  2.1367  3.2088
   84MOL   O17046816   2.878   0.088   7.305  0.2723  0.7651  0.2102
   84MOL   C17146817   2.817   0.187   7.400 -0.3980  0.0717  0.4956
   84MOL   C17246818   2.760   0.105   7.508  0.2174  0.4182 -0.4719
   84MOL   C17346819   2.846   8.094   7.564 -0.3051  0.6083  0.2644
   84MOL   C17446820   2.951   0.068   7.650 -0.0850 -0.0842 -0.5263
   84MOL   O17546821   3.067   0.101   7.570  0.1620 -0.2512  0.1838
   84MOL   C17646822   3.154   0.003   7.535 -0.2431 -0.3577 -0.3342
   84MOL   O17746823   3.157   7.985   7.581  0.2361 -0.0205 -0.3468
   84MOL   C17846824   3.256   0.050   7.441 -0.2109  0.3008 -0.6460
   84MOL   C17946825   3.238   0.158   7.356 -0.4621  0.6374 -0.6732
   84MOL   C18046826   3.340   0.193   7.270  0.0429  0.3378 -0.0812
   84MOL   C18146827   3.467   0.126   7.275  0.3013  0.9648 -0.3064
   84MOL   C18246828   3.576   0.177   7.189  0.7672  0.1694  0.3197
   84MOL   O18346829   3.685   0.123   7.190 -0.5881  0.0525 -0.7125
   84MOL   C18446830   3.487   0.029   7.373  0.2663  0.1763  0.4524
   84MOL   C18546831   3.382   8.081   7.452  0.3812 -0.3655 -0.1944
   84MOL   H18646832   2.889   0.261   7.436  0.5790  0.0520 -1.3608
   84MOL   H18746833   2.738   0.244   7.352 -2.5118 -2.7933  0.4869
   84MOL   H18846834   2.666   0.060   7.476  0.0939 -0.6738  1.3460
   84MOL   H18946835   2.739   0.179   7.585 -1.2305 -1.0148  0.5421
   84MOL   H19046836   2.780   8.047   7.637 -2.8196 -1.0966 -3.0119
   84MOL   H19146837   2.891   8.021   7.496 -1.6054  1.1894 -1.2554
   84MOL   H19246838   2.906   0.156   7.694  0.3126 -0.7829  1.3234
   84MOL   H19346839   2.986   8.096   7.726 -0.4168  0.5313  0.1997
   84MOL   H19446840   3.140   0.202   7.342 -1.4969 -0.3734  3.0259
   84MOL   H19546841   3.319   0.282   7.213  2.7625  1.0126 -0.0829
   84MOL   H19646842   3.583   8.079   7.359  0.0769  0.2348 -1.1030
   84MOL   H19746843   3.400   8.000   7.521  0.8120  0.1508  0.3110
   84MOL   O19846844   3.544   0.282   7.113  0.6346 -0.5663 -0.5494
   84MOL   C19946845   3.638   0.322   7.008  0.1919  0.6587 -0.4474
   84MOL   C20046846   3.572   0.441   6.933 -0.6766  0.5910 -1.1297
   84MOL   C20146847   3.670   0.513   6.841  0.5905  0.5178  0.6397
   84MOL   C20246848   3.602   0.638   6.783  0.0128  0.5229  0.1514
   84MOL   O20346849   3.567   0.736   6.883  0.3065  0.5074 -0.0078
   84MOL   C20446850   3.536   0.863   6.850 -0.9934 -0.3930 -0.6472
   84MOL   O20546851   3.538   0.909   6.732 -0.4880 -0.3633 -0.7875
   84MOL   C20646852   3.500   0.944   6.970  0.4050 -0.3132  0.5243
   84MOL   C20746853   3.471   1.080   6.950 -0.0945  0.2640  0.4748
   84MOL   C20846854   3.435   1.166   7.059  0.1151  0.6794  0.1152
   84MOL   C20946855   3.428   1.111   7.194 -0.2039  0.1515  0.0196
   84MOL   C21046856   3.420   1.203   7.313  0.8153 -1.2684 -0.1661
   84MOL   O21146857   3.397   1.165   7.430  0.5240 -0.2244  0.1905
   84MOL   C21246858   3.447   0.974   7.208  0.1376 -0.2692  0.0059
   84MOL   C21346859   3.486   0.891   7.099 -0.4584  0.2052 -0.4671
   84MOL   H21446860   3.733   0.359   7.047 -0.4015  0.5487  1.1210
   84MOL   H21546861   3.654   0.234   6.944 -3.8880 -0.7040  0.2474
   84MOL   H21646862   3.548   0.514   7.010 -0.4530 -0.3357 -0.1655
   84MOL   H21746863   3.478   0.419   6.882  0.0710 -0.8711 -1.9014
   84MOL   H21846864   3.760   0.529   6.901  0.5579 -1.5242  1.2841
   84MOL   H21946865   3.689   0.446   6.758  4.1440  2.2967 -0.0789
   84MOL   H22046866   3.676   0.678   6.714  0.3591  0.4235  0.4640
   84MOL   H22146867   3.509   0.613   6.732 -0.1605 -0.3483  0.8816
   84MOL   H22246868   3.474   1.125   6.852  0.6537  0.7231  0.7085
   84MOL   H22346869   3.414   1.271   7.044  2.7107  0.8673 -2.5994
   84MOL   H22446870   3.432   0.931   7.306 -0.5488 -1.5227 -0.6361
   84MOL   H22546871   3.492   0.783   7.109 -0.6618  0.3042  0.7744
   84MOL   O22646872   3.423   1.333   7.267  0.1169  0.7597  0.2759
   84MOL   C22746873   3.440   1.439   7.364  0.3776 -0.3291  0.2500
   84MOL   C22846874   3.355   1.564   7.315  0.7249  0.4513  0.3574
   84MOL   C22946875   3.391   1.615   7.175  0.1467 -0.0923  0.5926
   84MOL   C23046876   3.274   1.642   7.082 -0.2688 -0.3661 -0.6676
   84MOL   O23146877   3.245   1.525   7.001  0.3769  0.4616  0.5019
   84MOL   C23246878   3.123   1.530   6.945  0.8326  0.0476  0.2805
   84MOL   O23346879   3.042   1.613   6.961 -0.1984  0.2785  0.0180
   84MOL   C23446880   3.093   1.403   6.865  0.0126 -0.1662  0.2707
   84MOL   C23546881   2.960   1.395   6.808 -0.6051 -0.1802  0.4796
   84MOL   C23646882   2.925   1.284   6.725  0.0914  0.3345  1.4175
   84MOL   C23746883   3.015   1.176   6.711  0.3999 -0.2752 -0.0956
   84MOL   C23846884   2.980   1.048   6.641  0.2023 -0.5880 -0.6300
   84MOL   O23946885   2.867   1.030   6.596 -0.7241  0.2295 -0.2295
   84MOL   C24046886   3.142   1.185   6.765 -0.4277  0.5433 -0.4398
   84MOL   C24146887   3.178   1.298   6.846 -0.3666 -0.3945  0.3438
   84MOL   H24246888   3.406   1.409   7.463  1.3849  0.8588  0.9753
   84MOL   H24346889   3.546   1.466   7.369  0.5424 -1.2090  1.6029
   84MOL   H24446890   3.347   1.645   7.387  0.2751 -0.3507  1.2131
   84MOL   H24546891   3.253   1.525   7.317  0.8698 -0.0903 -1.8493
   84MOL   H24646892   3.454   1.702   7.192  1.8663 -1.3681  0.9146
   84MOL   H24746893   3.466   1.554   7.124 -0.9677  0.1210 -1.3697
   84MOL   H24846894   3.193   1.672   7.148  1.5464 -0.4513  1.6473
   84MOL   H24946895   3.291   1.733   7.024 -1.1377  1.6368  2.1031
   84MOL   H25046896   2.892   1.477   6.829  3.4736  2.5862  3.8130
   84MOL   H25146897   2.822   1.271   6.699  1.4192 -0.3235 -4.0261
   84MOL   H25246898   3.224   1.116   6.763 -2.2133 -1.6376 -0.2546
   84MOL   H25346899   3.285   1.298   6.864 -0.3726  1.5329  0.4875
   84MOL   O25446900   3.070   0.950   6.665 -0.6555  0.4676 -0.1320
   84MOL   C25546901   3.043   0.818   6.637  0.3113 -0.0220  0.3210
   84MOL   C25646902   3.135   0.727   6.713  0.5269 -0.9955 -0.5953
   84MOL   C25746903   3.079   0.703   6.849 -0.2006 -0.0055 -0.5173
   84MOL   C25846904   3.179   0.640   6.942  0.0514 -0.2465 -0.8674
   84MOL   O25946905   3.122   0.624   7.067  0.1074 -0.4427  0.3489
   84MOL   C26046906   3.198   0.579   7.169  0.2482 -0.0031 -0.3344
   84MOL   O26146907   3.320   0.561   7.161  0.0649  0.0331  0.4128
   84MOL   C26246908   3.120   0.549   7.297  0.5553 -0.0608 -0.0668
   84MOL   C26346909   2.979   0.567   7.301 -0.2401 -0.0221 -0.2899
   84MOL   C26446910   2.903   0.532   7.410 -0.2319  0.3240 -0.0419
   84MOL   C26546911   2.972   0.481   7.523 -0.0850  0.2293  0.0680
   84MOL   C26646912   2.906   0.474   7.661  0.2576  0.7362  0.5577
   84MOL   O26746913   2.962   0.425   7.763  0.2280 -0.1515 -0.1576
   84MOL   C26846914   3.112   0.461   7.517 -0.0160 -0.2146 -0.3439
   84MOL   C26946915   3.187   0.497   7.404 -0.4456 -1.0217  0.0211
   84MOL   H27046916   2.942   0.790   6.666 -0.1946  1.1903 -0.2396
   84MOL   H27146917   3.056   0.797   6.531 -0.1877 -0.9103  0.4396
   84MOL   H27246918   3.232   0.774   6.727  0.3482 -0.9260  0.4337
   84MOL   H27346919   3.145   0.633   6.660 -1.4935 -1.0423 -0.9605
   84MOL   H27446920   3.053   0.799   6.892  0.7726  0.2296 -0.4324
   84MOL   H27546921   2.992   0.637   6.845 -1.2361  1.0851  2.5066
   84MOL   H27646922   3.201   0.543   6.898  3.3031  0.1458 -0.2766
   84MOL   H27746923   3.268   0.703   6.948 -1.1461  1.4348 -0.1509
   84MOL   H27846924   2.912   0.584   7.217  0.2765 -0.6403 -0.8345
   84MOL   H27946925   2.796   0.542   7.413 -0.2712  0.7619 -2.2655
   84MOL   H28046926   3.165   0.422   7.603 -1.2787 -1.5435 -0.1334
   84MOL   H28146927   3.295   0.491   7.408 -0.4357 -1.3623 -0.6697
   84MOL   O28246928   2.783   0.534   7.659  0.2506 -0.0916  0.0684
   84MOL   C28346929   2.695   0.534   7.772  0.2034  0.7271 -0.4178
   84MOL   C28446930   2.611   0.407   7.791  0.2073 -0.0381  0.6604
   84MOL   C28546931   2.502   0.379   7.686 -0.0745  0.7261 -0.0661
   84MOL   C28646932   2.458   0.229   7.696  0.1165  0.0802 -0.2154
   84MOL   O28746933   2.372   0.198   7.590  0.3611  0.9187 -0.5059
   84MOL   C28846934   2.288   0.089   7.599  0.1741 -0.5487 -0.4769
   84MOL   O28946935   2.275   0.010   7.697 -0.3784  0.2726 -0.2430
   84MOL   C29046936   2.216   0.068   7.469 -0.5117  0.6186 -0.5817
   84MOL   C29146937   2.152   8.043   7.453  0.0084 -0.1305  0.0931
   84MOL   C29246938   2.083   8.014   7.332 -0.2886 -0.6822 -0.1157
   84MOL   C29346939   2.082   0.011   7.231  0.3892  0.0310  0.2102
   84MOL   C29446940   2.016   8.077   7.102  0.8979  0.0528 -0.4888
   84MOL   O29546941   1.921   7.996   7.093 -0.2209  0.8771 -0.5496
   84MOL   C29646942   2.141   0.134   7.247 -0.2474 -0.5978 -1.2068
   84MOL   C29746943   2.212   0.161   7.363 -0.1661 -0.0913 -0.9739
   84MOL   H29846944   2.752   0.540   7.865  0.5887 -2.6076 -0.3674
   84MOL   H29946945   2.633   0.624   7.770 -1.2043 -0.1657  1.1372
   84MOL   H30046946   2.559   0.424   7.886 -1.7512  1.8705 -0.7143
   84MOL   H30146947   2.680   0.323   7.805  0.8025  0.5437  1.2466
   84MOL   H30246948   2.410   0.438   7.687  1.0552  2.5165 -0.2244
   84MOL   H30346949   2.531   0.379   7.581 -2.8003  0.2967 -0.8727
   84MOL   H30446950   2.527   0.144   7.693 -0.3970 -0.3254 -0.5469
   84MOL   H30546951   2.398   0.220   7.787 -0.4475  0.0764 -0.5862
   84MOL   H30646952   2.152   7.958   7.520  0.5598  0.0552  0.3210
   84MOL   H30746953   2.037   7.919   7.311 -0.2119 -1.0431  1.2559
   84MOL   H30846954   2.151   0.206   7.168  2.5016 -0.1945 -0.5452
   84MOL   H30946955   2.265   0.254   7.380  1.7750 -1.1128 -1.2771
   84MOL   O31046956   2.078   0.048   7.001  0.1676 -0.2163 -0.0860
   84MOL   C31146957   2.034   0.039   6.869 -0.7167 -0.3074  0.0182
   84MOL   C31246958   2.120   0.129   6.789  0.0641  0.4423  0.3462
   84MOL   C31346959   2.091   0.270   6.821 -0.3450 -1.0830  0.3643
   84MOL   C31446960   2.161   0.374   6.741 -0.8359  0.8914  0.0243
   84MOL   O31546961   2.147   0.505   6.795  0.3641 -0.0926  0.2358
   84MOL   C31646962   2.243   0.596   6.802  0.7211 -0.1877 -0.4944
   84MOL   O31746963   2.344   0.588   6.736 -0.0030 -0.0922  0.0257
   84MOL   C31846964   2.204   0.713   6.889 -0.2160  0.8247 -0.9449
   84MOL   C31946965   2.070   0.731   6.926  0.0484  0.2176 -0.1001
   84MOL   C32046966   2.039   0.854   6.988 -0.0915 -0.2371  0.7034
   84MOL   C32146967   2.128   0.951   7.018  0.5585 -0.2487  0.4660
   84MOL   C32246968   2.080   1.079   7.079 -0.0032 -0.0453 -0.5503
   84MOL   O32346969   2.151   1.180   7.091 -0.2767 -0.3995 -0.4932
   84MOL   C32446970   2.257   0.928   6.989  0.0993 -0.2279  0.4871
   84MOL   C32546971   2.303   0.808   6.928  0.7279 -0.2229 -0.3375
   84MOL   H32646972   2.035   8.035   6.830 -0.4045 -1.0649  1.9405
   84MOL   H32746973   1.929   0.067   6.870 -1.4060 -2.5213 -3.4795
   84MOL   H32846974   2.101   0.107   6.684  0.3735 -1.5934  0.6907
   84MOL   H32946975   2.225   0.113   6.813  0.0244  1.5132  1.2565
   84MOL   H33046976   1.983   0.283   6.810 -0.3231  0.1072  1.4387
   84MOL   H33146977   2.119   0.295   6.923 -3.4857 -0.4323  1.1123
   84MOL   H33246978   2.266   0.349   6.728 -1.0338  0.4248 -0.6846
   84MOL   H33346979   2.118   0.382   6.642  1.4098  1.1241 -0.9603
   84MOL   H33446980   1.992   0.667   6.889 -0.3636  0.6311  0.0532
   84MOL   H33546981   1.935   0.859   7.018  0.0124  2.8101  0.7526
   84MOL   H33646982   2.333   1.002   7.011  0.6624 -1.4647  2.8771
   84MOL   H33746983   2.408   0.796   6.908  0.5014  0.4051 -2.0296
   84MOL   O33846984   1.949   1.080   7.126 -0.2740 -0.3115 -0.0708
   84MOL   C33946985   1.892   1.203   7.171 -0.2340  0.1634 -0.5328
   84MOL   C34046986   1.894   1.202   7.325 -0.4792  0.0476  0.0315
   84MOL   C34146987   1.806   1.084   7.377 -0.6331 -0.4737  0.2874
   84MOL   C34246988   1.796   1.080   7.528 -0.6768 -0.9812 -0.0554
   84MOL   O34346989   1.756   0.954   7.572  0.3290  0.4536 -0.1607
   84MOL   C34446990   1.626   0.926   7.578 -0.0446 -0.2122  0.3028
   84MOL   O34546991   1.537   0.996   7.534  0.0396 -0.0113 -0.0985
   84MOL   C34646992   1.601   0.798   7.658 -0.5099 -0.0557 -0.1018
   84MOL   C34746993   1.469   0.766   7.693  0.6051  0.0279 -0.2048
   84MOL   C34846994   1.445   0.641   7.753 -0.2796  0.1413 -0.7904
   84MOL   C34946995   1.552   0.556   7.788 -0.0808  0.4114 -0.8578
   84MOL   C35046996   1.515   0.432   7.859  0.1270  0.2497  0.4308
   84MOL   O35146997   1.408   0.374   7.836 -0.0560 -0.5207 -0.2465
   84MOL   C35246998   1.682   0.592   7.763  0.2191 -0.3464  0.5840
   84MOL   C35346999   1.709   0.709   7.693  0.5948 -0.2342  0.2660
   84MOL   H35447000   1.944   1.288   7.126  0.4090 -0.7398 -1.5053
   84MOL   H35547001   1.797   1.210   7.118 -0.2947  2.0689 -0.2059
   84MOL   H35647002   1.860   1.300   7.361 -1.5638  0.1639 -1.2749
   84MOL   H35747003   1.997   1.185   7.357 -0.8100 -1.7783  0.1513
   84MOL   H35847004   1.703   1.074   7.342 -1.7073 -0.3079  3.3090
   84MOL   H35947005   1.853   0.995   7.335 -0.4181 -0.1914 -0.0755
   84MOL   H36047006   1.895   1.098   7.567 -0.4153 -0.2682 -1.0045
   84MOL   H36147007   1.726   1.157   7.563 -1.0362 -1.7400  0.8943
   84MOL   H36247008   1.383   0.821   7.655 -0.4095 -1.5441 -0.2066
   84MOL   H36347009   1.341   0.618   7.770  0.0127 -1.3769 -0.9832
   84MOL   H36447010   1.768   0.529   7.783 -0.7275 -1.6378  0.6430
   84MOL   H36547011   1.807   0.716   7.648 -0.6578  2.9569 -2.1672
   84MOL   O36647012   1.611   0.379   7.948 -0.5695  0.6276 -0.1626
   84MOL   C36747013   1.586   0.257   8.020 -0.6227 -0.4628 -0.2759
   84MOL   C36847014   1.663   0.269   0.061 -0.3479 -0.1287  0.0251
   84MOL   C36947015   1.595   0.367   0.155 -0.1140 -1.0616 -0.3167
   84MOL   C37047016   1.684   0.444   0.248 -0.5370 -0.6031 -0.5710
   84MOL   O37147017   1.737   0.562   0.189  0.7242 -0.3666  0.0202
   84MOL   C37247018   1.793   0.653   0.263 -1.0263 -0.0127  0.2096
   84MOL   O37347019   1.797   0.651   0.385 -0.6283 -0.0113  0.3419
   84MOL   C37447020   1.865   0.751   0.170 -0.8104  0.2747 -0.2659
   84MOL   C37547021   1.881   0.736   0.028  0.3967 -0.1609  0.7415
   84MOL   C37647022   1.953   0.827   8.045  0.4657 -0.3517 -0.2072
   84MOL   C37747023   2.011   0.941   0.006  0.0915 -0.4826 -0.7043
   84MOL   C37847024   2.078   1.051   8.025 -0.3455 -0.2030 -0.5403
   84MOL   O37947025   2.110   1.160   8.068 -0.2717  0.2624  0.0823
   84MOL   C38047026   2.008   0.949   0.152 -0.1381  0.1312  0.1294
   84MOL   C38147027   1.928   0.861   0.229 -0.1939 -0.8564  0.4262
   84MOL   H38247028   1.480   0.249   8.043 -0.3321 -0.8147  0.9922
   84MOL   H38347029   1.617   0.171   7.961  1.5384  0.6950 -0.8831
   84MOL   H38447030   1.761   0.307   0.033  0.7977  0.1644  4.1439
   84MOL   H38547031   1.670   0.171   0.108  2.6352  0.5968  1.2042
   84MOL   H38647032   1.532   0.443   0.108 -0.3207  1.3239  3.5730
   84MOL   H38747033   1.537   0.301   0.220 -2.6656  1.6042  0.2200
   84MOL   H38847034   1.648   0.461   0.349  0.3202 -0.7902 -0.2374
   84MOL   H38947035   1.759   0.367   0.266  1.0429  0.9077 -0.5701
   84MOL   H39047036   1.843   0.645   8.082 -0.0575 -0.7078  2.2172
   84MOL   H39147037   1.959   0.811   7.938  1.9067 -0.3420 -0.1362
   84MOL   H39247038   2.066   1.026   0.201  1.9946 -0.7731 -0.8740
   84MOL   H39347039   1.923   0.878   0.336 -0.8076 -1.0762  0.4338
   84MOL   O39447040   2.101   1.020   7.901 -0.2220  0.0417 -0.0277
   84MOL   C39547041   2.126   1.127   7.807 -0.2229  0.4726  0.5420
   84MOL   C39647042   2.270   1.152   7.773  0.8773  0.2148  0.1494
   84MOL   C39747043   2.295   1.200   7.635 -0.0652  0.4976 -0.4805
   84MOL   C39847044   2.436   1.198   7.578 -0.0549 -0.0787  0.1008
   84MOL   O39947045   2.437   1.257   7.449 -0.4294 -0.6848 -0.3495
   84MOL   C40047046   2.557   1.274   7.384 -0.9372  0.3773 -0.7036
   84MOL   O40147047   2.665   1.240   7.436 -0.1847 -0.3256 -0.2646
   84MOL   C40247048   2.541   1.342   7.251 -0.4009  0.5285 -0.1126
   84MOL   C40347049   2.658   1.395   7.191  0.2212 -0.1848 -0.7133
   84MOL   C40447050   2.639   1.463   7.065  0.7132  0.5790  0.4123
   84MOL   C40547051   2.515   1.460   7.000  0.7044 -0.6964  0.3860
   84MOL   C40647052   2.493   1.506   6.859 -0.4799 -0.1445  1.4550
   84MOL   O40747053   2.384   1.519   6.804 -0.1279  0.4897  0.8929
   84MOL   C40847054   2.400   1.410   7.062 -0.6344  0.2658 -0.2811
   84MOL   C40947055   2.413   1.354   7.192 -0.0791 -0.3012 -0.8841
   84MOL   H41047056   2.081   1.112   7.709  0.7892  0.9280  0.0017
   84MOL   H41147057   2.079   1.222   7.831  0.1993  1.1150 -1.1197
   84MOL   H41247058   2.324   1.058   7.785 -0.6582 -0.9209 -1.4818
   84MOL   H41347059   2.320   1.222   7.839  0.2380 -0.3595  1.2535
   84MOL   H41447060   2.227   1.141   7.573 -0.8569 -1.0088  1.7509
   84MOL   H41547061   2.255   1.300   7.623 -0.9861  0.1994 -0.0022
   84MOL   H41647062   2.500   1.259   7.642 -0.0590 -0.1231  0.1467
   84MOL   H41747063   2.491   1.104   7.573 -0.0967 -0.0874 -0.2311
   84MOL   H41847064   2.754   1.382   7.238 -0.9635 -0.3043  1.7907
   84MOL   H41947065   2.720   1.489   6.999  0.8979 -1.9308 -0.3899
   84MOL   H42047066   2.310   1.395   7.004 -0.1569 -0.6716 -0.7793
   84MOL   H42147067   2.337   1.296   7.242 -0.3245  0.9370  0.1957
   84MOL   O42247068   2.613   1.532   6.806 -0.4474 -0.2649 -0.0692
   84MOL   C42347069   2.615   1.571   6.675 -0.1844  0.6598  0.4564
   84MOL   C42447070   2.732   1.669   6.659  0.4135 -0.2806 -0.3358
   84MOL   C42547071   2.788   1.754   6.774  0.0794  0.1263  0.9383
   84MOL   C42647072   2.922   1.819   6.744  0.6619  0.7266 -0.5649
   84MOL   O42747073   2.896   1.913   6.644 -0.6886 -0.1725  0.3986
   84MOL   C42847074   2.990   2.013   6.626 -0.2398  0.1446 -0.4978
   84MOL   O42947075   3.088   2.019   6.702  1.1798 -0.3965  0.3827
   84MOL   C43047076   2.965   2.100   6.508 -0.4745 -0.3337 -0.6155
   84MOL   C43147077   2.866   2.077   6.411  0.2289 -0.6957  0.5741
   84MOL   C43247078   2.860   2.160   6.293 -0.1231  0.1591 -0.1007
   84MOL   C43347079   2.941   2.275   6.284  0.2555  0.1781  0.1127
   84MOL   C43447080   2.935   2.357   6.156  0.2956  0.4796  0.2876
   84MOL   O43547081   2.995   2.465   6.153 -0.9140 -0.0856  0.6123
   84MOL   C43647082   3.040   2.294   6.384  0.4160 -0.3345  0.1745
   84MOL   C43747083   3.054   2.208   6.491  0.1700  0.2102  0.0448
   84MOL   H43847084   2.624   1.481   6.615 -0.8763 -0.6302  2.2518
   84MOL   H43947085   2.523   1.613   6.635 -0.0366 -1.2189 -1.9841
   84MOL   H44047086   2.710   1.725   6.568 -1.6109  0.7048  0.7315
   84MOL   H44147087   2.811   1.605   6.619 -0.2644  0.0551 -2.2758
   84MOL   H44247088   2.720   1.834   6.805 -0.5841 -0.4088  0.8717
   84MOL   H44347089   2.792   1.688   6.860 -1.5059 -3.1503 -1.3811
   84MOL   H44447090   2.963   1.857   6.838  2.1579  0.9881 -1.3095
   84MOL   H44547091   2.996   1.751   6.703 -1.4050 -0.7073 -2.0637
   84MOL   H44647092   2.797   1.994   6.413 -1.7105  0.8701  5.2855
   84MOL   H44747093   2.803   2.137   6.204  0.2467  1.6962 -0.7490
   84MOL   H44847094   3.112   2.374   6.369  1.8264 -1.8793 -1.5069
   84MOL   H44947095   3.128   2.228   6.568 -0.6337 -0.9566  1.1503
   84MOL   O45047096   2.852   2.299   6.064 -0.2816 -0.1369  0.4216
   84MOL   C45147097   2.825   2.377   5.952  0.3598 -0.1024 -0.2500
   84MOL   C45247098   2.821   2.289   5.826  0.9461 -0.4377  0.4766
   84MOL   C45347099   2.808   2.363   5.698 -0.3485 -0.6624 -0.0594
   84MOL   C45447100   2.766   2.283   5.574  0.2044  0.1930 -0.3101
   84MOL   O45547101   2.634   2.241   5.606  0.0236  0.2392  0.1155
   84MOL   C45647102   2.550   2.194   5.511 -0.6541  0.2818 -0.6619
   84MOL   O45747103   2.577   2.164   5.397  0.4792  0.1700 -0.3930
   84MOL   C45847104   2.421   2.183   5.575 -0.4718 -0.1081 -0.2034
   84MOL   C45947105   2.406   2.191   5.714 -0.1851  0.5379 -0.4044
   84MOL   C46047106   2.278   2.196   5.766  0.8051  0.3639 -0.3377
   84MOL   C46147107   2.164   2.151   5.694  0.5222 -0.3208 -1.1329
   84MOL   C46247108   2.034   2.145   5.766  0.1519 -0.1137  0.5839
   84MOL   O46347109   1.929   2.190   5.720 -0.5160 -0.2268  0.2925
   84MOL   C46447110   2.179   2.143   5.553  0.6263  0.3445  0.1753
   84MOL   C46547111   2.307   2.151   5.492 -0.1790 -0.2273 -0.4006
   84MOL   H46647112   2.727   2.425   5.959  0.5082  0.1639  0.0165
   84MOL   H46747113   2.893   2.462   5.947 -0.4388  0.7166  1.8368
   84MOL   H46847114   2.730   2.232   5.843 -0.3899  1.3775 -0.4180
   84MOL   H46947115   2.911   2.227   5.828 -0.0594 -2.1464 -3.4596
   84MOL   H47047116   2.730   2.438   5.715  0.1682 -0.6908  2.7156
   84MOL   H47147117   2.907   2.403   5.678 -0.7443  1.8939  2.7225
   84MOL   H47247118   2.775   2.333   5.477  2.0357 -1.2502 -0.9008
   84MOL   H47347119   2.835   2.199   5.562 -0.4498 -0.3422 -0.3909
   84MOL   H47447120   2.485   2.203   5.787  1.5658 -0.5629 -2.0858
   84MOL   H47547121   2.261   2.211   5.871  1.3015 -0.6928 -0.1025
   84MOL   H47647122   2.094   2.115   5.492  0.7046  0.9045 -0.1956
   84MOL   H47747123   2.320   2.140   5.385  0.5112 -0.8138 -0.2550
   84MOL   O47847124   2.044   2.090   5.890 -0.1975 -0.1885 -0.4588
   84MOL   C47947125   1.946   2.089   5.989  0.2089  0.2783 -0.1141
   84MOL   C48047126   1.989   1.975   6.080 -0.4144 -0.1379  0.1516
   84MOL   C48147127   1.995   1.841   6.002  0.2856 -0.3294 -0.1186
   84MOL   C48247128   2.032   1.732   6.095  0.0663 -0.2360  0.3662
   84MOL   O48347129   1.940   1.701   6.193 -0.2623 -0.2638 -0.1232
   84MOL   C48447130   1.966   1.590   6.272 -0.6694 -0.3645 -0.7606
   84MOL   O48547131   2.072   1.525   6.269  0.2546 -0.2507 -0.3738
   84MOL   C48647132   1.864   1.558   6.372 -1.0254 -0.1577 -0.3298
   84MOL   C48747133   1.855   1.429   6.433  0.4446 -0.7793  0.2306
   84MOL   C48847134   1.757   1.396   6.525 -0.1468 -0.2256  0.0287
   84MOL   C48947135   1.661   1.490   6.552  0.2251  0.3619  0.3320
   84MOL   C49047136   1.555   1.453   6.655  0.4565 -0.7424  0.3266
   84MOL   O49147137   1.571   1.362   6.729  0.5305  0.2868 -0.2641
   84MOL   C49247138   1.665   1.614   6.490 -0.4474  0.2397 -1.0790
   84MOL   C49347139   1.768   1.654   6.406  0.2312  0.1412  0.5270
   84MOL   H49447140   1.957   2.183   6.043  0.9440 -0.9699  1.9910
   84MOL   H49547141   1.846   2.082   5.947 -0.0775  1.2643  0.3953
   84MOL   H49647142   1.920   1.954   6.161 -0.3588 -1.0650 -0.0262
   84MOL   H49747143   2.085   2.003   6.124  0.3054 -2.1274 -0.0720
   84MOL   H49847144   1.897   1.828   5.955 -0.6687  1.3330  1.3480
   84MOL   H49947145   2.066   1.855   5.920 -1.2690  0.3153 -1.3881
   84MOL   H50047146   2.036   1.647   6.028  1.0656  0.7403 -0.8290
   84MOL   H50147147   2.132   1.733   6.138 -0.2319  0.8693  1.0445
   84MOL   H50247148   1.932   1.357   6.408  0.6903 -0.0053 -1.3124
   84MOL   H50347149   1.756   1.296   6.567 -0.6155  0.2770  1.2152
   84MOL   H50447150   1.593   1.691   6.514 -0.1106  0.2941 -0.2065
   84MOL   H50547151   1.758   1.753   6.364 -1.0076  0.1094  0.7074
   84MOL   O50647152   1.447   1.520   6.637 -0.6965  0.1056  0.0083
   84MOL   C50747153   1.336   1.512   6.731  0.1557 -0.0688  0.0105
   84MOL   C50847154   1.246   1.384   6.702 -0.1836  0.0426  0.0029
   84MOL   C50947155   1.250   1.280   6.807  0.1674 -0.5777  0.0289
   84MOL   C51047156   1.203   1.145   6.747 -0.1537 -0.6505  0.5939
   84MOL   O51147157   1.307   1.086   6.671 -0.0131  0.2402 -0.4604
   84MOL   C51247158   1.313   0.946   6.653  0.3154  0.0615 -0.1550
   84MOL   O51347159   1.236   0.866   6.715  0.3410 -0.1835  0.2746
   84MOL   C51447160   1.414   0.893   6.559 -0.8379 -0.2741 -1.2644
   84MOL   C51547161   1.412   0.757   6.527 -0.1994  1.1238 -1.5401
   84MOL   C51647162   1.510   0.694   6.444  0.0100 -0.0136 -0.6936
   84MOL   C51747163   1.608   0.773   6.391  0.8003  0.4047  0.0003
   84MOL   C51847164   1.708   0.718   6.288 -0.2183 -0.7455 -0.2403
   84MOL   O51947165   1.712   0.599   6.248  0.1400 -0.1604 -0.3069
   84MOL   C52047166   1.616   0.911   6.429 -0.5726  0.0333 -0.2945
   84MOL   C52147167   1.522   0.977   6.512 -0.4903  0.4505  0.4998
   84MOL   H52247168   1.377   1.526   6.831  1.2713  1.1821 -0.5958
   84MOL   H52347169   1.268   1.593   6.704 -1.0011 -0.9510  0.2070
   84MOL   H52447170   1.261   1.347   6.600  1.7354 -0.1471  0.3510
   84MOL   H52547171   1.144   1.419   6.683 -0.1585 -0.7593 -1.7645
   84MOL   H52647172   1.346   1.276   6.858  0.4399 -0.1433 -0.4462
   84MOL   H52747173   1.183   1.308   6.888  1.7671  0.4324  1.0252
   84MOL   H52847174   1.174   1.068   6.819 -0.1619 -1.6191 -0.4294
   84MOL   H52947175   1.119   1.165   6.681 -2.7712  0.3180  4.0322
   84MOL   H53047176   1.330   0.695   6.561  0.9061  1.2459  1.5321
   84MOL   H53147177   1.498   0.595   6.402 -1.0809 -0.5814  0.9032
   84MOL   H53247178   1.704   0.967   6.403 -0.5784 -0.8970 -2.4802
   84MOL   H53347179   1.538   1.078   6.548  0.6752  0.8304 -1.0333
   84MOL   O53447180   1.796   0.820   6.251  0.2558 -0.6789 -0.0455
   84MOL   C53547181   1.889   0.802   6.153 -0.6434 -0.3305  0.3100
   84MOL   C53647182   1.906   0.941   6.080  0.1515 -0.0426  0.0000
   84MOL   C53747183   1.972   1.049   6.172 -0.2350 -0.1225 -0.2792
   84MOL   C53847184   2.022   1.172   6.097  0.1928 -0.1125 -0.3157
   84MOL   O53947185   1.954   1.179   5.974  0.1987 -0.0273  0.4774
   84MOL   C54047186   1.956   1.297   5.905  0.3734  0.2099  0.2341
   84MOL   O54147187   2.007   1.404   5.947  0.2071  0.4005 -0.2299
   84MOL   C54247188   1.883   1.292   5.776 -0.1448  0.1229 -0.1961
   84MOL   C54347189   1.875   1.412   5.702 -0.2797  0.0349  0.3296
   84MOL   C54447190   1.811   1.403   5.579  0.1150 -0.1633  0.1631
   84MOL   C54547191   1.763   1.282   5.524 -0.6891  0.4524 -0.2369
   84MOL   C54647192   1.729   1.285   5.381 -0.0489  0.2936  0.9774
   84MOL   O54747193   1.692   1.183   5.320 -0.2110 -0.3886 -0.5423
   84MOL   C54847194   1.788   1.157   5.597  0.5626  0.0082 -0.7605
   84MOL   C54947195   1.841   1.166   5.730  0.5420 -0.0410 -0.0083
   84MOL   H55047196   1.988   0.766   6.184 -1.1877  0.4452  3.0570
   84MOL   H55147197   1.855   0.723   6.086  1.2589 -1.0110  0.1118
   84MOL   H55247198   1.802   0.966   6.057 -0.1747 -0.9004  0.4921
   84MOL   H55347199   1.969   0.929   5.992 -0.3526  1.3402 -0.5711
   84MOL   H55447200   1.904   1.091   6.245 -0.2117 -1.1963  0.3637
   84MOL   H55547201   2.054   1.006   6.229 -2.2654 -1.3696  1.7897
   84MOL   H55647202   2.007   1.266   6.151  1.7578  0.5982 -1.0624
   84MOL   H55747203   2.130   1.164   6.084  0.4760  1.1907  1.0211
   84MOL   H55847204   1.913   1.505   5.740 -0.0865 -0.5457  1.5940
   84MOL   H55947205   1.812   1.486   5.510  0.9017  1.4789  2.0992
   84MOL   H56047206   1.772   1.062   5.547  0.0353 -0.1936 -0.2076
   84MOL   H56147207   1.856   1.072   5.781  0.2137 -1.8353 -3.0519
   84MOL   H56247208   1.728   1.381   5.329 -0.5015 -0.3797 -0.2803
   85MOL     O147209   4.742   1.486   6.546 -0.0643  0.2629 -0.2066
   85MOL     C247210   4.725   1.495   6.403  0.8747  0.0823 -0.1657
   85MOL     C347211   4.579   1.457   6.378  0.3966 -0.3034  0.0575
   85MOL     C447212   4.475   1.565   6.395  0.5302 -1.0820  0.3365
   85MOL     C547213   4.469   1.638   6.269 -0.2359  0.4628  0.1861
   85MOL     O647214   4.369   1.732   6.278 -0.2645 -0.5089  0.2050
   85MOL     C747215   4.338   1.804   6.173  0.0187  0.3768  0.5031
   85MOL     O847216   4.378   1.786   6.062  0.0493  0.6323  0.4520
   85MOL     C947217   4.232   1.911   6.197  0.2630  0.9862  0.2374
   85MOL    C1047218   4.177   1.987   6.092  0.2642  0.2274 -0.2800
   85MOL    C1147219   4.067   2.071   6.131  0.4766 -0.7901 -0.0913
   85MOL    C1247220   4.012   2.081   6.263 -1.0310  0.6736 -0.1449
   85MOL    C1347221   3.892   2.158   6.302  0.2379  0.2632  0.6570
   85MOL    O1447222   3.842   2.160   6.410 -0.1824 -0.3611  1.0723
   85MOL    C1547223   4.075   2.009   6.365 -0.1575 -0.2078 -0.3989
   85MOL    C1647224   4.184   1.933   6.324 -0.6167  0.1230  0.3446
   85MOL    H1747225   4.751   1.596   6.370  0.0581  0.7650  1.2314
   85MOL    H1847226   4.789   1.425   6.350  0.5779 -0.2118 -0.1316
   85MOL    H1947227   4.555   1.376   6.446 -0.9123 -0.1024 -0.1605
   85MOL    H2047228   4.568   1.410   6.281 -0.9321  0.8536 -0.3695
   85MOL    H2147229   4.385   1.515   6.430 -1.0457  0.9639 -0.6743
   85MOL    H2247230   4.491   1.634   6.477 -1.9803  0.6969 -0.6011
   85MOL    H2347231   4.563   1.685   6.241  0.0064  0.3807  0.8537
   85MOL    H2447232   4.436   1.575   6.186 -1.5665  3.0915 -1.3479
   85MOL    H2547233   4.208   1.971   5.990 -0.1617  1.1531 -0.5582
   85MOL    H2647234   4.017   2.127   6.053  0.7946 -0.2718  0.0730
   85MOL    H2747235   4.039   2.022   6.466  1.8162  0.4215  0.2473
   85MOL    H2847236   4.220   1.879   6.409  0.6190 -0.1892 -0.3733
   85MOL    H2947237   4.696   1.556   6.590  1.6226  0.5315  1.1878
   85MOL    O3047238   3.841   2.237   6.195 -0.6952 -0.1221 -0.1979
   85MOL    C3147239   3.720   2.309   6.213 -0.2628 -0.3654  0.5591
   85MOL    C3247240   3.666   2.315   6.067 -0.0343  0.4447  0.1059
   85MOL    C3347241   3.528   2.387   6.043 -0.4901 -0.0647 -0.0895
   85MOL    C3447242   3.445   2.312   5.934  0.0142 -0.5583  0.7690
   85MOL    O3547243   3.517   2.319   5.808  0.2546  0.2236 -0.3311
   85MOL    C3647244   3.531   2.207   5.731  0.0868  0.1503 -0.0518
   85MOL    O3747245   3.484   2.098   5.759 -0.7557  0.1247 -0.0107
   85MOL    C3847246   3.605   2.237   5.608  0.2391  0.4787  0.2255
   85MOL    C3947247   3.675   2.349   5.583 -0.0828 -0.2173 -0.7587
   85MOL    C4047248   3.743   2.366   5.463  0.0631  0.0482 -0.7528
   85MOL    C4147249   3.758   2.259   5.372  0.3994 -0.0819 -0.8013
   85MOL    C4247250   3.843   2.257   5.253  0.1568  0.8022  0.6391
   85MOL    O4347251   3.880   2.159   5.194  0.1620  0.0183 -0.4178
   85MOL    C4447252   3.689   2.139   5.394  0.4676 -0.1758 -0.0959
   85MOL    C4547253   3.613   2.131   5.513 -0.2391 -0.2718 -0.1311
   85MOL    H4647254   3.649   2.262   6.281  0.9283 -1.7678  0.8491
   85MOL    H4747255   3.733   2.411   6.250 -0.5450  0.2902 -1.0997
   85MOL    H4847256   3.650   2.213   6.032 -0.2656  0.4273  0.2628
   85MOL    H4947257   3.742   2.360   6.003 -1.6334  0.1161 -2.0849
   85MOL    H5047258   3.470   2.380   6.135  0.3865 -0.2670  0.4493
   85MOL    H5147259   3.550   2.490   6.016 -1.3456 -0.0706 -0.8271
   85MOL    H5247260   3.435   2.208   5.966 -2.9200 -0.2997  0.8824
   85MOL    H5347261   3.347   2.359   5.925 -0.0860 -0.4636  2.1337
   85MOL    H5447262   3.686   2.426   5.657  0.8101  0.3573 -1.4817
   85MOL    H5547263   3.805   2.450   5.435  2.5354 -1.7368 -0.8422
   85MOL    H5647264   3.693   2.060   5.322 -2.2391  0.6409 -1.1842
   85MOL    H5747265   3.550   2.047   5.538  0.1328  0.1232  2.3112
   85MOL    O5847266   3.862   2.379   5.213 -0.5383 -0.7891 -0.1592
   85MOL    C5947267   3.957   2.398   5.113 -0.0107 -0.4692  0.4839
   85MOL    C6047268   4.105   2.361   5.154 -0.5423 -0.3309 -0.4642
   85MOL    C6147269   4.212   2.406   5.055  0.4010  0.4640  0.2691
   85MOL    C6247270   4.231   2.561   5.049 -0.7039  0.4173  0.1110
   85MOL    O6347271   4.346   2.599   5.122 -0.6897 -0.7652 -0.4328
   85MOL    C6447272   4.423   2.689   5.058 -0.1424 -0.7069 -0.9308
   85MOL    O6547273   4.397   2.761   4.961  0.6320  0.2119 -0.7216
   85MOL    C6647274   4.541   2.730   5.139  0.1794 -0.1355 -0.8794
   85MOL    C6747275   4.594   2.636   5.226 -0.4365 -0.1083 -0.2172
   85MOL    C6847276   4.711   2.660   5.305 -0.2819 -0.0803 -0.6947
   85MOL    C6947277   4.781   2.779   5.279  0.0222 -0.0142 -0.0741
   85MOL    C7047278   4.911   2.797   5.350  0.3764  0.0891 -0.6920
   85MOL    O7147279   4.969   2.706   5.404  0.2752 -0.2161 -0.3543
   85MOL    C7247280   4.726   2.875   5.189  0.5526 -0.1349  0.1820
   85MOL    C7347281   4.604   2.854   5.118  0.0274  0.1451 -0.1423
   85MOL    H7447282   3.940   2.337   5.024  1.4908  2.4210 -1.8728
   85MOL    H7547283   3.948   2.494   5.063  0.2348  0.2633  1.8236
   85MOL    H7647284   4.099   2.253   5.169  0.2581 -0.3907 -0.5903
   85MOL    H7747285   4.126   2.393   5.256  3.1628  0.1515 -1.3146
   85MOL    H7847286   4.298   2.344   5.080  1.4665  1.6306 -0.4853
   85MOL    H7947287   4.187   2.373   4.954  0.1563  0.7181  0.2470
   85MOL    H8047288   4.229   2.593   4.945  0.6728  0.6236  0.1324
   85MOL    H8147289   4.148   2.606   5.104 -0.7871 -1.6561  1.7284
   85MOL    H8247290   4.554   2.536   5.237  0.4806 -0.6402 -1.5132
   85MOL    H8347291   4.743   2.589   5.380 -0.1368  0.3715 -0.3194
   85MOL    H8447292   4.775   2.969   5.169  2.4206 -0.9234  0.9844
   85MOL    H8547293   4.561   2.927   5.051  1.5032  1.0295 -0.1578
   85MOL    O8647294   4.952   2.925   5.354  0.0179  0.6081 -1.0542
   85MOL    C8747295   5.078   2.965   5.414  0.0465 -0.1405 -0.4087
   85MOL    C8847296   5.037   3.090   5.499  0.3361  0.2263 -0.2567
   85MOL    C8947297   5.018   3.213   5.422  0.4030 -0.5754  0.5602
   85MOL    C9047298   4.991   3.339   5.503 -0.8276  0.4299 -0.4369
   85MOL    O9147299   4.976   3.450   5.422 -0.1645  0.4616 -0.2465
   85MOL    C9247300   4.872   3.535   5.434  0.3870  0.4578  0.3419
   85MOL    O9347301   4.786   3.516   5.523 -0.0665 -0.2005 -0.3141
   85MOL    C9447302   4.858   3.633   5.319 -0.3930  0.5944 -0.2030
   85MOL    C9547303   4.969   3.679   5.247  0.1433  0.6524 -0.5741
   85MOL    C9647304   4.950   3.774   5.147 -0.8582 -0.8625  0.5495
   85MOL    C9747305   4.819   3.818   5.113 -0.1717 -0.1263  0.5652
   85MOL    C9847306   4.797   3.921   5.008 -0.0812  0.6428 -0.4635
   85MOL    O9947307   4.686   3.972   4.985 -0.6104 -0.3800  0.3397
   85MOL   C10047308   4.708   3.765   5.180 -1.0818  0.5262  1.0051
   85MOL   C10147309   4.728   3.677   5.286 -0.0396 -0.2998 -0.0561
   85MOL   H10247310   5.138   2.900   5.478 -0.2033 -1.0341 -1.0841
   85MOL   H10347311   5.143   2.999   5.333 -0.0265 -1.1239 -0.8896
   85MOL   H10447312   5.111   3.108   5.578 -0.0189 -1.8648  0.5863
   85MOL   H10547313   4.949   3.062   5.556  0.5029  0.3128  0.0464
   85MOL   H10647314   5.106   3.234   5.361  0.3797 -1.2015  0.3128
   85MOL   H10747315   4.940   3.191   5.349  1.2725  0.2920 -0.6573
   85MOL   H10847316   4.893   3.310   5.542 -1.5839  0.8337 -1.9837
   85MOL   H10947317   5.062   3.348   5.585 -0.6207 -2.2671 -0.2585
   85MOL   H11047318   5.064   3.629   5.252  0.3381  1.1232  0.5021
   85MOL   H11147319   5.035   3.811   5.093 -1.3490 -0.5613 -0.0227
   85MOL   H11247320   4.611   3.809   5.167 -0.2635  1.9099 -0.6356
   85MOL   H11347321   4.650   3.637   5.350  0.0361  1.5861  1.2567
   85MOL   O11447322   4.903   3.945   4.932 -0.1869 -0.0353  0.5237
   85MOL   C11547323   4.886   4.028   4.825 -0.6017  0.3936 -0.0660
   85MOL   C11647324   5.023   4.086   4.788  0.5661 -0.2725 -0.4759
   85MOL   C11747325   5.036   4.172   4.650  0.1685  0.5202  0.0208
   85MOL   C11847326   4.975   4.100   4.529  0.4062  0.3430  0.5066
   85MOL   O11947327   5.045   3.986   4.503  0.0601  0.4082  0.6643
   85MOL   C12047328   5.052   3.929   4.377  0.1739 -0.1569  1.0078
   85MOL   O12147329   4.991   3.980   4.284  0.2242  0.5225 -0.5090
   85MOL   C12247330   5.146   3.809   4.371  0.3577 -0.5516 -0.5095
   85MOL   C12347331   5.222   3.767   4.482  0.5335 -0.2024  0.1950
   85MOL   C12447332   5.300   3.656   4.470 -0.0678 -0.3662 -0.6947
   85MOL   C12547333   5.301   3.574   4.353 -0.5173 -0.6165 -0.7168
   85MOL   C12647334   5.388   3.458   4.337 -0.4407  0.2582 -0.6880
   85MOL   O12747335   5.356   3.360   4.262  0.2399  0.3834 -0.6841
   85MOL   C12847336   5.216   3.615   4.250 -0.4568 -0.0431 -0.3333
   85MOL   C12947337   5.139   3.730   4.256  0.6693 -0.1511 -0.3115
   85MOL   H13047338   4.837   3.970   4.747 -1.4948 -2.1635  2.3356
   85MOL   H13147339   4.811   4.107   4.837 -0.7346  0.3565 -0.6424
   85MOL   H13247340   5.103   4.012   4.777 -0.2636 -1.5921  1.8490
   85MOL   H13347341   5.055   4.156   4.865  0.9098  0.1089 -0.9663
   85MOL   H13447342   4.970   4.258   4.663 -0.0022  0.4700 -0.4914
   85MOL   H13547343   5.139   4.195   4.622  0.3911 -1.3854 -0.7661
   85MOL   H13647344   4.872   4.067   4.544  0.9124 -1.5624  0.0350
   85MOL   H13747345   4.971   4.173   4.449 -0.2977 -0.9853 -0.6966
   85MOL   H13847346   5.216   3.826   4.572 -0.0425  2.1427 -1.3337
   85MOL   H13947347   5.365   3.632   4.553 -0.6907 -1.5456 -0.5425
   85MOL   H14047348   5.205   3.551   4.163 -0.8798 -0.8137  0.2814
   85MOL   H14147349   5.072   3.750   4.173 -0.8157  1.5138  1.2481
   85MOL   O14247350   5.497   3.468   4.413  0.2425  0.2029 -0.9077
   85MOL   C14347351   5.601   3.383   4.398 -0.2966  0.1483 -0.0993
   85MOL   C14447352   5.734   3.461   4.416  0.1850 -1.0223  0.9846
   85MOL   C14547353   5.856   3.370   4.421  0.0912  0.1946 -0.3037
   85MOL   C14647354   5.981   3.445   4.450 -0.1551  0.2951 -0.5097
   85MOL   O14747355   5.978   3.525   4.570 -0.2548 -0.6781  0.0453
   85MOL   C14847356   6.036   3.481   4.686 -0.9643 -0.2638  1.3690
   85MOL   O14947357   6.117   3.393   4.686  0.9285 -0.2558 -0.3117
   85MOL   C15047358   5.988   3.561   4.801  0.0763 -0.4808  0.3801
   85MOL   C15147359   6.070   3.571   4.919  0.7009  0.1124  0.4858
   85MOL   C15247360   6.018   3.640   5.032 -0.2226 -0.3276  0.1830
   85MOL   C15347361   5.895   3.712   5.028 -0.2627  0.2539  1.2534
   85MOL   C15447362   5.846   3.771   5.158  0.5292  0.1606 -0.4944
   85MOL   O15547363   5.735   3.822   5.167  0.4019  0.4148 -0.0926
   85MOL   C15647364   5.821   3.705   4.910 -0.8390 -0.4086  0.2226
   85MOL   C15747365   5.860   3.625   4.803  0.4228  0.1205  0.0863
   85MOL   H15847366   5.593   3.313   4.482  0.0209 -0.8488 -0.8885
   85MOL   H15947367   5.594   3.336   4.300 -0.1545  0.0242 -0.0510
   85MOL   H16047368   5.733   3.506   4.515  3.0526  0.6119  0.2958
   85MOL   H16147369   5.745   3.541   4.343  1.7189  1.1934  3.5473
   85MOL   H16247370   5.853   3.287   4.492  0.2835 -1.2804 -2.0026
   85MOL   H16347371   5.861   3.332   4.320  0.0143 -2.4624  0.6528
   85MOL   H16447372   6.055   3.367   4.459 -2.1781 -1.8642 -2.0914
   85MOL   H16547373   6.007   3.496   4.357 -2.0844  0.3030 -1.0796
   85MOL   H16647374   6.167   3.524   4.921  1.5551  1.8796  0.5234
   85MOL   H16747375   6.079   3.643   5.121 -0.3977 -1.9054  0.3770
   85MOL   H16847376   5.723   3.750   4.910 -0.2983  0.7983  0.7463
   85MOL   H16947377   5.795   3.615   4.718 -0.0174 -0.5421  0.5023
   85MOL   O17047378   5.941   3.765   5.248 -0.0371  0.0319 -0.7062
   85MOL   C17147379   5.911   3.801   5.378  1.2919 -0.3663  0.5266
   85MOL   C17247380   6.028   3.785   5.467 -0.2100  0.6119  0.0195
   85MOL   C17347381   6.001   3.800   5.615  0.1688 -0.2811  0.0860
   85MOL   C17447382   6.121   3.764   5.705 -0.4539  0.5639  0.0077
   85MOL   O17547383   6.089   3.758   5.840  0.4690  0.3342 -0.0029
   85MOL   C17647384   6.168   3.809   5.943  0.4563 -0.2696 -0.5475
   85MOL   O17747385   6.272   3.869   5.918 -0.0888 -0.2877  0.5220
   85MOL   C17847386   6.108   3.770   6.078  0.2766 -0.4275 -0.3869
   85MOL   C17947387   5.980   3.704   6.086 -0.3297 -0.2009  0.1842
   85MOL   C18047388   5.918   3.693   6.216  0.3263  0.0288 -0.6748
   85MOL   C18147389   5.986   3.738   6.331 -0.0652 -0.0314  0.6016
   85MOL   C18247390   5.917   3.712   6.463  0.2326 -0.5090 -0.6679
   85MOL   O18347391   5.838   3.622   6.484  0.2321 -0.1883  0.6242
   85MOL   C18447392   6.115   3.792   6.325 -0.2876 -0.5093 -0.1419
   85MOL   C18547393   6.179   3.811   6.199  1.3122 -0.5422  0.2705
   85MOL   H18647394   5.894   3.908   5.376  1.5713 -0.3326 -0.2972
   85MOL   H18747395   5.821   3.748   5.411 -0.4941  1.5882 -1.1050
   85MOL   H18847396   6.102   3.861   5.441 -1.5121  1.4595 -1.3281
   85MOL   H18947397   6.085   3.695   5.444 -1.2964 -0.4441  1.3908
   85MOL   H19047398   5.967   3.903   5.623 -1.8853 -0.9289  0.1629
   85MOL   H19147399   5.915   3.743   5.652  0.2944  0.2869  1.3019
   85MOL   H19247400   6.164   3.671   5.669  0.2978  0.4331  1.2286
   85MOL   H19347401   6.188   3.850   5.698  0.7814 -0.1467  2.5042
   85MOL   H19447402   5.927   3.679   5.996 -0.3742  2.7076 -0.6496
   85MOL   H19547403   5.821   3.644   6.215 -1.4068  3.3556 -2.2924
   85MOL   H19647404   6.167   3.820   6.416  0.0297 -2.4548  0.3043
   85MOL   H19747405   6.273   3.862   6.196  1.0193 -0.0896 -1.6327
   85MOL   O19847406   5.944   3.811   6.553  0.8960  0.5926  0.4942
   85MOL   C19947407   5.912   3.790   6.696 -0.6169  0.0364  0.7588
   85MOL   C20047408   5.857   3.922   6.751  0.1698 -0.6517 -0.2299
   85MOL   C20147409   5.734   3.975   6.683 -0.0626 -0.4116  0.9342
   85MOL   C20247410   5.602   3.923   6.749 -1.1379  0.6980  0.7379
   85MOL   O20347411   5.581   3.783   6.728 -0.2152  0.5542 -0.6453
   85MOL   C20447412   5.507   3.715   6.813  0.8181  0.0236  0.0649
   85MOL   O20547413   5.459   3.764   6.914  0.7889 -0.0778  0.0692
   85MOL   C20647414   5.476   3.578   6.767  0.1099 -0.0044  0.3908
   85MOL   C20747415   5.349   3.517   6.791 -0.0846 -0.1474 -0.6919
   85MOL   C20847416   5.328   3.379   6.751 -0.4929 -0.2190 -0.7313
   85MOL   C20947417   5.441   3.311   6.693  1.0815  0.9974  0.2428
   85MOL   C21047418   5.422   3.166   6.647  0.8658  0.5796  0.6354
   85MOL   O21147419   5.313   3.114   6.660  0.3132  0.3449  0.0893
   85MOL   C21247420   5.565   3.373   6.686 -0.3199 -0.1896 -0.1960
   85MOL   C21347421   5.581   3.502   6.727 -0.4309  0.8791 -0.5435
   85MOL   H21447422   5.824   3.727   6.712 -0.5412 -0.2603  0.0506
   85MOL   H21547423   6.003   3.757   6.745  0.1066  0.5027 -0.2719
   85MOL   H21647424   5.922   4.009   6.740 -1.2010  0.2671 -1.1346
   85MOL   H21747425   5.853   3.917   6.860 -2.7750 -2.6002 -0.3738
   85MOL   H21847426   5.738   4.084   6.675  0.5333 -0.3457  2.0727
   85MOL   H21947427   5.743   3.958   6.576 -1.3937 -1.0774  0.9170
   85MOL   H22047428   5.593   3.953   6.853 -1.1383  1.8514  0.4090
   85MOL   H22147429   5.518   3.965   6.693 -1.4947 -0.2690  0.5306
   85MOL   H22247430   5.268   3.581   6.823 -0.1472 -0.2124 -0.7212
   85MOL   H22347431   5.237   3.321   6.760 -1.3740  0.9386 -2.0361
   85MOL   H22447432   5.650   3.315   6.652 -0.9167 -0.2900 -1.5410
   85MOL   H22547433   5.678   3.548   6.731  0.0878 -0.2559  0.1631
   85MOL   O22647434   5.520   3.119   6.591  0.0377 -0.3271  0.0286
   85MOL   C22747435   5.515   2.995   6.532 -0.8573  0.4766 -0.4302
   85MOL   C22847436   5.658   2.940   6.524 -0.2734 -0.3293  0.5240
   85MOL   C22947437   5.730   2.976   6.393 -0.3504  0.5511 -0.4629
   85MOL   C23047438   5.877   2.928   6.388 -0.5722  0.3359 -0.2067
   85MOL   O23147439   5.946   2.953   6.257  0.2417  0.0181 -0.4990
   85MOL   C23247440   6.021   2.855   6.200  0.9628 -0.2099 -0.3389
   85MOL   O23347441   6.044   2.745   6.251 -0.1022 -0.0145  0.2072
   85MOL   C23447442   6.076   2.892   6.063 -0.1250  0.3965 -0.0746
   85MOL   C23547443   6.212   2.857   6.040 -0.3894 -0.3060  0.2963
   85MOL   C23647444   6.267   2.886   5.915 -0.0327 -0.4605 -0.0519
   85MOL   C23747445   6.196   2.958   5.817  0.0572  0.2001 -0.0026
   85MOL   C23847446   6.247   2.999   5.688  0.5933 -0.2021 -0.3635
   85MOL   O23947447   6.171   3.028   5.597 -0.2803 -0.4111  0.4048
   85MOL   C24047448   6.060   2.994   5.842  0.2889  0.1054  0.6669
   85MOL   C24147449   6.003   2.964   5.967 -0.8688  0.1429 -0.3998
   85MOL   H24247450   5.451   2.932   6.594  1.4875 -2.5183 -0.9591
   85MOL   H24347451   5.471   3.013   6.434 -1.6046 -0.5354 -0.2884
   85MOL   H24447452   5.639   2.833   6.532  0.3473 -0.3089  2.3261
   85MOL   H24547453   5.721   2.980   6.603 -0.0629  1.3566 -0.4514
   85MOL   H24647454   5.671   2.936   6.311  0.8806 -1.6782 -0.3242
   85MOL   H24747455   5.735   3.085   6.391 -2.0446  0.7255  1.7714
   85MOL   H24847456   5.944   2.969   6.464 -1.1260 -0.9979  1.0354
   85MOL   H24947457   5.879   2.820   6.407  3.0376  0.3663  0.0076
   85MOL   H25047458   6.255   2.792   6.114  2.7468  1.6924  0.3099
   85MOL   H25147459   6.368   2.852   5.896  1.2114  1.3913  2.9476
   85MOL   H25247460   6.004   3.048   5.768 -1.3038 -1.8349  0.4159
   85MOL   H25347461   5.905   3.004   5.986  0.6265  3.5801  0.4202
   85MOL   O25447462   6.387   3.013   5.687  0.1747  0.0919  0.1862
   85MOL   C25547463   6.460   3.088   5.594 -0.2304 -0.1850 -0.2646
   85MOL   C25647464   6.532   3.007   5.486  0.6137  0.8566  0.9333
   85MOL   C25747465   6.652   2.921   5.530  0.2087 -0.1151  0.6233
   85MOL   C25847466   6.606   2.809   5.618 -0.3359  0.5473 -0.8674
   85MOL   O25947467   6.705   2.711   5.653  0.0930  0.0001  0.3547
   85MOL   C26047468   6.664   2.599   5.709  0.7844  0.3785 -0.7041
   85MOL   O26147469   6.548   2.575   5.755 -0.5139 -0.1180 -0.1729
   85MOL   C26247470   6.778   2.508   5.714  0.6889  0.2158 -0.3506
   85MOL   C26347471   6.753   2.376   5.768 -0.9238 -0.5574  0.5548
   85MOL   C26447472   6.867   2.292   5.794  0.3191  0.1004 -0.4305
   85MOL   C26547473   6.996   2.331   5.754 -0.0552 -0.5470 -0.2214
   85MOL   C26647474   7.120   2.251   5.779 -0.1097 -0.2828 -0.1936
   85MOL   O26747475   7.227   2.262   5.714 -0.8937 -0.1638  0.1750
   85MOL   C26847476   7.021   2.450   5.685  0.6768  0.2777 -0.4906
   85MOL   C26947477   6.914   2.538   5.673  0.0784  0.1579  0.0585
   85MOL   H27047478   6.388   3.156   5.549 -1.1546 -0.2362  1.1214
   85MOL   H27147479   6.538   3.148   5.642 -0.5373  0.1681 -0.2063
   85MOL   H27247480   6.587   3.085   5.434  1.3784 -0.1119  0.2683
   85MOL   H27347481   6.479   2.956   5.405  2.2945 -0.5825  0.6956
   85MOL   H27447482   6.708   2.880   5.445 -1.6510 -1.1736 -0.1365
   85MOL   H27547483   6.723   2.979   5.587 -0.0663  0.1493  0.7005
   85MOL   H27647484   6.562   2.839   5.713 -1.2235  0.2722 -1.1839
   85MOL   H27747485   6.520   2.763   5.567 -0.9634  1.8847 -1.0366
   85MOL   H27847486   6.654   2.343   5.796 -0.4001 -3.1441 -0.4911
   85MOL   H27947487   6.858   2.196   5.842  0.8122  0.2994  0.0715
   85MOL   H28047488   7.119   2.483   5.652  0.9787  0.6795  0.8064
   85MOL   H28147489   6.941   2.638   5.642  1.4177 -0.0582  0.4824
   85MOL   O28247490   7.106   2.162   5.875 -0.5373  0.0749 -0.9476
   85MOL   C28347491   7.223   2.089   5.908 -0.0073 -0.1849 -0.0462
   85MOL   C28447492   7.218   1.988   6.023  0.2785  0.6257  0.0350
   85MOL   C28547493   7.117   1.871   6.001  0.3433 -0.8361 -0.4872
   85MOL   C28647494   6.971   1.907   6.015 -0.2158  0.0770  0.0544
   85MOL   O28747495   6.900   1.789   6.048 -0.7616  0.0432  0.1878
   85MOL   C28847496   6.762   1.789   6.054 -0.4318  0.7353 -0.5076
   85MOL   O28947497   6.691   1.871   5.999 -0.5905 -0.2240 -0.4744
   85MOL   C29047498   6.710   1.675   6.141 -0.6911  0.2572 -0.0662
   85MOL   C29147499   6.795   1.586   6.205 -0.4348 -0.1219 -0.7363
   85MOL   C29247500   6.757   1.483   6.296 -0.2252 -0.0449 -0.2492
   85MOL   C29347501   6.616   1.470   6.303  0.7886  0.1870  0.8199
   85MOL   C29447502   6.572   1.349   6.383  0.6000 -0.9687  0.5835
   85MOL   O29547503   6.644   1.260   6.415 -0.3899 -0.8523  0.1682
   85MOL   C29647504   6.527   1.554   6.234  0.0695 -0.9521 -0.1610
   85MOL   C29747505   6.575   1.653   6.151 -0.3689 -0.9373 -0.2849
   85MOL   H29847506   7.276   2.045   5.823  0.5466  0.0978  0.1555
   85MOL   H29947507   7.297   2.160   5.943 -0.7417  1.8204 -2.4179
   85MOL   H30047508   7.197   2.041   6.116 -1.9552 -0.0709 -0.0341
   85MOL   H30147509   7.321   1.954   6.031  0.2631  0.0292 -1.9279
   85MOL   H30247510   7.134   1.817   5.908  0.4516  0.5008 -1.2478
   85MOL   H30347511   7.159   1.794   6.067  1.4586  0.4205  0.3084
   85MOL   H30447512   6.956   1.974   6.100 -1.2411 -1.5755  1.2013
   85MOL   H30547513   6.942   1.952   5.920  1.7392 -1.2148 -1.2056
   85MOL   H30647514   6.900   1.600   6.185 -0.7884  3.9747 -0.1159
   85MOL   H30747515   6.828   1.417   6.345  1.5303  0.7984 -1.5829
   85MOL   H30847516   6.420   1.545   6.234 -0.1781  1.6244 -1.9624
   85MOL   H30947517   6.502   1.710   6.094  0.7199 -1.5830 -2.3917
   85MOL   O31047518   6.438   1.351   6.418 -0.5845 -0.6178 -0.3528
   85MOL   C31147519   6.378   1.246   6.484  0.2686 -0.1735 -0.1730
   85MOL   C31247520   6.234   1.223   6.422 -0.5305 -0.0039  0.3592
   85MOL   C31347521   6.247   1.175   6.274  0.4061  0.5070 -1.0538
   85MOL   C31447522   6.107   1.192   6.209  0.3435 -0.7070 -0.4376
   85MOL   O31547523   6.001   1.120   6.280 -0.0238 -0.0024  0.2245
   85MOL   C31647524   5.878   1.113   6.226 -0.2497  0.5409  0.2083
   85MOL   O31747525   5.853   1.157   6.110  0.0943  0.0559 -0.0478
   85MOL   C31847526   5.770   1.057   6.310  0.3595 -0.1790  0.9334
   85MOL   C31947527   5.789   1.021   6.446 -0.5847  0.2748 -0.0905
   85MOL   C32047528   5.684   0.973   6.528  0.0031  0.1193 -0.0568
   85MOL   C32147529   5.552   0.952   6.477  0.6014  0.3190 -0.0127
   85MOL   C32247530   5.434   0.910   6.558 -0.5655 -0.6851 -0.4914
   85MOL   O32347531   5.327   0.892   6.508  0.5792  0.6170  0.3369
   85MOL   C32447532   5.529   0.983   6.337  0.6563  0.7708  1.1026
   85MOL   C32547533   5.642   1.027   6.252  0.2040 -0.1194  0.2199
   85MOL   H32647534   6.442   1.160   6.500 -0.8993 -1.1908 -0.9086
   85MOL   H32747535   6.355   1.284   6.583 -0.7097  1.9703 -1.1824
   85MOL   H32847536   6.172   1.312   6.432 -1.4505 -0.3120 -2.2984
   85MOL   H32947537   6.183   1.140   6.471 -2.2191 -1.3028 -3.3710
   85MOL   H33047538   6.322   1.229   6.216  0.2781  2.1728  0.2758
   85MOL   H33147539   6.278   1.071   6.269  0.4031  0.2511  2.5516
   85MOL   H33247540   6.088   1.298   6.200  3.7826 -0.0334 -0.5041
   85MOL   H33347541   6.110   1.157   6.105  0.5722 -0.1599 -0.6142
   85MOL   H33447542   5.885   1.019   6.497 -0.8642 -0.2092  0.4222
   85MOL   H33547543   5.696   0.947   6.632  0.1989 -2.2113 -0.6156
   85MOL   H33647544   5.434   0.967   6.288  0.8506 -1.0882  1.3207
   85MOL   H33747545   5.623   1.045   6.147  3.6880  1.3018 -0.2199
   85MOL   O33847546   5.451   0.897   6.689 -0.0110  0.1697 -0.4508
   85MOL   C33947547   5.344   0.849   6.773 -0.0038 -0.2582  0.1620
   85MOL   C34047548   5.410   0.752   6.876  0.2415 -0.0177  0.0178
   85MOL   C34147549   5.412   0.605   6.820  0.1868  0.7601  0.1693
   85MOL   C34247550   5.489   0.507   6.905 -0.0198  0.2933 -0.1834
   85MOL   O34347551   5.623   0.543   6.895 -0.5408 -0.9428  0.5307
   85MOL   C34447552   5.701   0.477   6.807  0.5972  0.2664  0.1081
   85MOL   O34547553   5.663   0.392   6.730  0.2520  0.2850  0.3359
   85MOL   C34647554   5.842   0.514   6.818 -0.2001 -0.0873 -0.6627
   85MOL   C34747555   5.891   0.611   6.915  0.5330  0.1941  0.0227
   85MOL   C34847556   6.024   0.646   6.910 -0.1909  0.7948 -1.1752
   85MOL   C34947557   6.109   0.581   6.822 -0.0336  0.4522 -0.0178
   85MOL   C35047558   6.253   0.616   6.818  0.6537 -0.4453 -0.0168
   85MOL   O35147559   6.320   0.581   6.723  0.1456  0.3808 -0.4044
   85MOL   C35247560   6.066   0.486   6.731  0.3522  0.6187  0.2633
   85MOL   C35347561   5.929   0.461   6.721 -0.2917 -0.0067  0.0585
   85MOL   H35447562   5.312   0.937   6.830  0.9348  0.1214  0.1145
   85MOL   H35547563   5.254   0.817   6.722 -0.0602  0.6340 -0.3074
   85MOL   H35647564   5.353   0.749   6.969 -0.6329  0.2405 -0.5057
   85MOL   H35747565   5.512   0.785   6.894 -0.0119  1.1054 -0.5352
   85MOL   H35847566   5.307   0.577   6.826  0.8918 -2.1484 -0.3684
   85MOL   H35947567   5.451   0.591   6.719  0.3337  2.7176 -0.0622
   85MOL   H36047568   5.460   0.511   7.010 -0.3718 -1.1081 -0.2080
   85MOL   H36147569   5.472   0.399   6.896  1.8014 -0.0722  0.6680
   85MOL   H36247570   5.823   0.657   6.984 -0.0756  0.4755 -0.7491
   85MOL   H36347571   6.057   0.722   6.979 -0.7038  1.8015 -2.0179
   85MOL   H36447572   6.127   0.444   6.652 -1.0054  1.6236 -1.3440
   85MOL   H36547573   5.897   0.388   6.648  0.1257 -0.2300  0.0925
   85MOL   O36647574   6.283   0.700   6.910  0.0616 -0.5470 -0.2923
   85MOL   C36747575   6.404   0.770   6.901 -0.4578 -0.2158 -0.4016
   85MOL   C36847576   6.385   0.892   6.993 -0.6167  0.0344 -0.0143
   85MOL   C36947577   6.492   0.987   6.953  0.2371 -0.1351  0.3742
   85MOL   C37047578   6.497   1.110   7.044 -0.6202 -0.2942 -0.8085
   85MOL   O37147579   6.377   1.182   7.043 -0.2714 -0.0320  0.2486
   85MOL   C37247580   6.326   1.238   7.152 -0.2684  0.2613 -0.0351
   85MOL   O37347581   6.358   1.207   7.265 -0.3161 -0.1136  0.4121
   85MOL   C37447582   6.223   1.347   7.122 -0.3019  0.0836  0.4269
   85MOL   C37547583   6.147   1.410   7.216  0.0048 -0.2553 -0.1779
   85MOL   C37647584   6.062   1.521   7.188 -0.4472 -0.1847  0.4032
   85MOL   C37747585   6.046   1.568   7.051  0.1526 -0.3054  0.3358
   85MOL   C37847586   5.964   1.687   7.024 -0.0813  0.7144  0.3657
   85MOL   O37947587   5.982   1.741   6.920  0.1209 -0.3864  0.2239
   85MOL   C38047588   6.121   1.498   6.957  0.0632  0.9271  0.3648
   85MOL   C38147589   6.213   1.393   6.988  0.8898  0.4522  0.2900
   85MOL   H38247590   6.488   0.703   6.915 -2.2120 -2.8438 -2.0716
   85MOL   H38347591   6.421   0.813   6.802  0.4386  0.7341  0.1486
   85MOL   H38447592   6.399   0.872   7.100  1.9811  3.2449  0.3249
   85MOL   H38547593   6.284   0.930   6.981 -0.2389  1.8107  2.1200
   85MOL   H38647594   6.586   0.931   6.957 -0.6866 -1.6046  2.5641
   85MOL   H38747595   6.483   1.020   6.849  3.2806  3.2378  1.0761
   85MOL   H38847596   6.531   1.071   7.140 -0.6597 -0.8087 -1.0012
   85MOL   H38947597   6.583   1.172   7.019  0.4977 -0.7447  1.7154
   85MOL   H39047598   6.139   1.375   7.318 -1.4261  3.8651  1.2362
   85MOL   H39147599   6.008   1.560   7.273 -0.5718 -1.9724  1.1560
   85MOL   H39247600   6.111   1.533   6.855  2.2362  3.6412  1.0332
   85MOL   H39347601   6.272   1.347   6.911 -1.1429 -0.1193 -0.9584
   85MOL   O39447602   5.870   1.723   7.116 -0.4783  0.6004  0.0845
   85MOL   C39547603   5.811   1.856   7.098 -0.1124 -0.5263 -0.1024
   85MOL   C39647604   5.816   1.923   7.236 -0.2424  0.0524 -0.6364
   85MOL   C39747605   5.724   1.854   7.333  0.2734  0.2190 -0.6149
   85MOL   C39847606   5.774   1.850   7.480  0.7825 -0.0223  0.8324
   85MOL   O39947607   5.664   1.827   7.563 -0.0994  1.0829 -0.7575
   85MOL   C40047608   5.678   1.772   7.682 -0.3710  0.4635  0.2000
   85MOL   O40147609   5.786   1.756   7.744 -0.0094  0.6002 -0.4223
   85MOL   C40247610   5.544   1.731   7.742  0.2740  0.2586  0.3138
   85MOL   C40347611   5.528   1.653   7.864  0.5037  0.3065  0.9102
   85MOL   C40447612   5.405   1.622   7.919 -0.6523 -0.5430  0.1303
   85MOL   C40547613   5.289   1.669   7.850 -0.7398  0.3805  0.0359
   85MOL   C40647614   5.160   1.632   7.905  0.0724  0.5926  0.9171
   85MOL   O40747615   5.142   1.557   7.998  0.1021 -0.3745  0.6830
   85MOL   C40847616   5.299   1.737   7.728 -0.1204  0.3398 -0.0054
   85MOL   C40947617   5.423   1.771   7.675  0.4251 -0.3034 -0.6034
   85MOL   H41047618   5.863   1.920   7.027 -0.6716  0.4993  0.4099
   85MOL   H41147619   5.712   1.845   7.053  0.8010 -0.5728 -2.1673
   85MOL   H41247620   5.801   2.030   7.219 -0.0070 -0.2505 -2.9314
   85MOL   H41347621   5.916   1.926   7.281  0.2146 -2.5077 -1.4167
   85MOL   H41447622   5.623   1.893   7.319 -0.4331 -1.5489 -0.5939
   85MOL   H41547623   5.707   1.748   7.312 -0.1978  0.1617  0.0409
   85MOL   H41647624   5.853   1.777   7.497  0.6607 -0.2736  0.3189
   85MOL   H41747625   5.811   1.949   7.507 -0.6388  0.6117  0.4886
   85MOL   H41847626   5.619   1.635   7.918  0.4096 -1.0628  0.6232
   85MOL   H41947627   5.412   1.566   8.011  0.0943  0.0267  0.4268
   85MOL   H42047628   5.208   1.769   7.679  0.8679  1.2350 -1.3018
   85MOL   H42147629   5.427   1.818   7.578 -0.7938  1.5759  0.2200
   85MOL   O42247630   5.063   1.685   7.832  0.2297 -0.2705 -0.2636
   85MOL   C42347631   4.935   1.680   7.875 -0.0565  0.2764  1.1567
   85MOL   C42447632   4.854   1.798   7.819 -0.1587 -0.1662  0.3632
   85MOL   C42547633   4.859   1.931   7.906 -0.1566 -0.3089 -0.0069
   85MOL   C42647634   4.779   2.045   7.848  0.0161 -0.1510 -0.7530
   85MOL   O42747635   4.838   2.093   7.727 -0.0716 -0.3805 -0.2604
   85MOL   C42847636   4.931   2.193   7.737  0.0650 -0.4804 -0.3478
   85MOL   O42947637   4.974   2.235   7.844  0.1990 -0.3987 -0.0025
   85MOL   C43047638   4.980   2.241   7.605  0.4906  0.3487 -0.2396
   85MOL   C43147639   4.936   2.183   7.487 -1.2467 -0.2282 -0.5975
   85MOL   C43247640   4.981   2.224   7.358 -0.7111  0.2983  0.2046
   85MOL   C43347641   5.076   2.329   7.341 -0.6632  0.4812 -0.1570
   85MOL   C43447642   5.126   2.365   7.211 -0.1306  0.0540  0.1339
   85MOL   O43547643   5.189   2.464   7.180 -0.2519 -0.2766  0.2973
   85MOL   C43647644   5.114   2.391   7.461  0.4444  0.5135  1.2554
   85MOL   C43747645   5.061   2.356   7.587  0.1454 -0.1274  0.0896
   85MOL   H43847646   4.888   1.586   7.843  2.5245 -0.6060 -0.1521
   85MOL   H43947647   4.926   1.673   7.983  1.0285 -2.2695  1.1194
   85MOL   H44047648   4.751   1.765   7.814 -0.8174  1.8809 -0.2037
   85MOL   H44147649   4.892   1.816   7.719  0.3696  4.4510  1.2699
   85MOL   H44247650   4.825   1.900   8.005  0.9343  0.4022  0.6004
   85MOL   H44347651   4.966   1.953   7.904 -0.6181  2.1648  0.7267
   85MOL   H44447652   4.681   2.005   7.824 -0.1574 -0.3703  0.2674
   85MOL   H44547653   4.770   2.123   7.924 -1.8076  1.4832 -2.5671
   85MOL   H44647654   4.870   2.098   7.479 -1.6788  0.0358  0.1040
   85MOL   H44747655   4.935   2.180   7.271  1.9993 -0.5915 -0.8361
   85MOL   H44847656   5.179   2.476   7.447 -1.1099  1.4427 -0.4691
   85MOL   H44947657   5.088   2.410   7.677  1.2863 -1.2345  0.4276
   85MOL   O45047658   5.106   2.264   7.129 -0.1540  0.5442  0.0243
   85MOL   C45147659   5.163   2.254   7.004 -0.3438  0.3268  0.1717
   85MOL   C45247660   5.082   2.323   6.894  0.1996 -0.1327  0.1640
   85MOL   C45347661   5.166   2.333   6.765  0.1819 -0.0485 -0.2910
   85MOL   C45447662   5.105   2.423   6.658 -0.2346 -0.7852  0.2753
   85MOL   O45547663   5.095   2.558   6.692  0.0173  1.2027 -0.4362
   85MOL   C45647664   5.028   2.646   6.618  0.2292  0.0360  0.5948
   85MOL   O45747665   4.982   2.616   6.507  0.7249  0.7545  0.5876
   85MOL   C45847666   5.031   2.777   6.678  0.6780  0.9518 -0.1767
   85MOL   C45947667   4.966   2.880   6.604 -0.7803  0.0842 -0.0158
   85MOL   C46047668   4.960   3.012   6.655 -0.8140 -0.3024  0.1446
   85MOL   C46147669   5.015   3.035   6.780  0.2273  0.4256  0.3816
   85MOL   C46247670   5.007   3.172   6.847 -0.8517 -0.5235  0.0156
   85MOL   O46347671   5.057   3.205   6.958  0.0957 -0.0901  0.2462
   85MOL   C46447672   5.075   2.937   6.855  0.1287 -0.3847  0.2439
   85MOL   C46547673   5.097   2.809   6.799  0.2539 -0.1333 -0.1424
   85MOL   H46647674   5.261   2.301   6.998 -0.8690  1.1801 -2.1855
   85MOL   H46747675   5.171   2.147   6.982  0.0645  0.4309 -0.2103
   85MOL   H46847676   5.049   2.423   6.920  3.0354  1.0427 -0.5600
   85MOL   H46947677   4.991   2.266   6.876 -0.8561  1.9784 -1.3208
   85MOL   H47047678   5.262   2.375   6.796  0.5629  0.5441 -2.2118
   85MOL   H47147679   5.173   2.229   6.733  0.1729 -0.7890  2.0368
   85MOL   H47247680   5.159   2.415   6.564 -3.6616  3.6670 -2.2907
   85MOL   H47347681   5.007   2.396   6.619 -0.1819  0.9588 -1.1818
   85MOL   H47447682   4.928   2.861   6.505 -0.5619 -1.4598  0.1908
   85MOL   H47547683   4.913   3.093   6.600  2.6326  1.4363 -0.3724
   85MOL   H47647684   5.122   2.957   6.950  2.9683  0.6537 -1.3187
   85MOL   H47747685   5.145   2.729   6.853 -0.1171  0.8751  1.7388
   85MOL   O47847686   4.945   3.266   6.767 -0.4571  0.6936 -0.4271
   85MOL   C47947687   4.930   3.398   6.818  0.3711 -0.0189  0.4261
   85MOL   C48047688   4.969   3.499   6.712  0.9005 -0.4974 -0.7327
   85MOL   C48147689   4.874   3.500   6.587  0.6239 -0.1062  0.3233
   85MOL   C48247690   4.913   3.601   6.473  0.0442  0.1503  0.2395
   85MOL   O48347691   5.024   3.541   6.404 -0.0379  0.2547  0.0650
   85MOL   C48447692   5.150   3.585   6.449  0.7953 -0.6224  0.3315
   85MOL   O48547693   5.168   3.670   6.532 -0.2077  0.0438 -0.0509
   85MOL   C48647694   5.261   3.520   6.377 -0.1613  0.2820  0.8600
   85MOL   C48747695   5.398   3.552   6.417 -0.3147 -0.0748  0.4728
   85MOL   C48847696   5.514   3.478   6.366  0.1772  0.3398 -0.5436
   85MOL   C48947697   5.487   3.388   6.264 -0.1331 -0.3307 -0.3186
   85MOL   C49047698   5.597   3.325   6.191 -0.2987 -0.7387  0.7871
   85MOL   O49147699   5.710   3.327   6.229 -0.2840  0.2898  0.1677
   85MOL   C49247700   5.355   3.358   6.222  0.4194 -0.2508  0.1513
   85MOL   C49347701   5.246   3.424   6.277  0.2655 -0.0105 -0.2637
   85MOL   H49447702   4.822   3.396   6.829  0.4708 -1.2683  1.3602
   85MOL   H49547703   4.988   3.424   6.906 -0.2084  0.0833  0.7800
   85MOL   H49647704   5.073   3.480   6.684  1.1209 -1.2220  0.5239
   85MOL   H49747705   4.962   3.593   6.768  0.2425 -1.4897  0.8785
   85MOL   H49847706   4.875   3.398   6.549 -0.5550  0.3189 -0.9264
   85MOL   H49947707   4.770   3.518   6.616  0.9278  2.7845 -0.1706
   85MOL   H50047708   4.825   3.604   6.410 -0.2706 -2.8654  0.4710
   85MOL   H50147709   4.928   3.703   6.509  1.2945 -0.3949  1.2924
   85MOL   H50247710   5.416   3.632   6.488 -1.6622  0.8677 -0.2251
   85MOL   H50347711   5.614   3.505   6.399 -0.4242  1.0749  0.7077
   85MOL   H50447712   5.333   3.274   6.157 -1.5518 -0.5866  1.2175
   85MOL   H50547713   5.150   3.387   6.243  0.4287  0.9712 -1.8387
   85MOL   O50647714   5.562   3.278   6.078 -0.6326  0.3884 -0.5491
   85MOL   C50747715   5.666   3.216   6.001  0.1791  0.1839 -0.2757
   85MOL   C50847716   5.606   3.108   5.910  0.0969  0.0227 -0.8393
   85MOL   C50947717   5.545   3.165   5.788  1.0864  0.0610 -1.1055
   85MOL   C51047718   5.395   3.206   5.795  0.2019 -0.5219 -0.5116
   85MOL   O51147719   5.368   3.322   5.723 -0.0290 -0.0385 -0.4700
   85MOL   C51247720   5.348   3.322   5.593 -0.2849 -0.0715 -0.0245
   85MOL   O51347721   5.366   3.219   5.521 -0.2253  0.4163 -0.0052
   85MOL   C51447722   5.327   3.459   5.540  0.7505 -0.3952  0.0516
   85MOL   C51547723   5.293   3.562   5.629  0.2801  0.5316  0.1596
   85MOL   C51647724   5.280   3.695   5.586  0.7632  0.3231  0.2983
   85MOL   C51747725   5.294   3.721   5.442 -0.2462  0.6364 -0.7350
   85MOL   C51847726   5.274   3.865   5.389  0.0577  0.1571 -0.4580
   85MOL   O51947727   5.250   3.955   5.469 -0.7030  0.0774  0.1797
   85MOL   C52047728   5.318   3.617   5.353 -0.1832 -0.6023  0.3602
   85MOL   C52147729   5.345   3.481   5.400 -0.3751  0.1009  0.0636
   85MOL   H52247730   5.710   3.297   5.942  1.8834 -0.0186  0.6815
   85MOL   H52347731   5.741   3.168   6.064 -0.1975  1.4101  1.1533
   85MOL   H52447732   5.530   3.055   5.968  1.0057  0.3608  0.6744
   85MOL   H52547733   5.679   3.033   5.879 -0.7448 -0.5887 -1.3723
   85MOL   H52647734   5.616   3.236   5.747  1.6419  0.5966  0.7437
   85MOL   H52747735   5.547   3.079   5.720  4.2153 -0.9917  0.2731
   85MOL   H52847736   5.333   3.118   5.779 -0.4587 -0.2979  0.7459
   85MOL   H52947737   5.371   3.223   5.900 -0.6736 -0.1762 -0.7677
   85MOL   H53047738   5.278   3.566   5.735  2.3212  2.6888  0.4119
   85MOL   H53147739   5.260   3.776   5.655  0.6323  1.7879 -1.4113
   85MOL   H53247740   5.329   3.635   5.247  0.0332 -1.9889  0.1314
   85MOL   H53347741   5.375   3.400   5.335 -1.2017 -2.5990  2.8759
   85MOL   O53447742   5.280   3.880   5.259 -0.1280  0.0723  0.6649
   85MOL   C53547743   5.247   4.002   5.200  0.0052 -0.0286 -0.1605
   85MOL   C53647744   5.305   3.990   5.062 -0.7765  0.1420  0.5725
   85MOL   C53747745   5.453   3.948   5.054 -0.1376 -0.4042 -0.5589
   85MOL   C53847746   5.530   4.002   4.933 -0.0517 -0.0223  0.1641
   85MOL   O53947747   5.546   4.150   4.937 -0.1153  0.2758 -0.0613
   85MOL   C54047748   5.467   4.235   4.863 -0.4994  0.5563  1.1171
   85MOL   O54147749   5.395   4.194   4.771 -0.4993  0.3134  0.4981
   85MOL   C54247750   5.488   4.383   4.896  0.4420 -0.1549 -0.7033
   85MOL   C54347751   5.566   4.432   5.004 -0.0919 -0.4733 -0.0172
   85MOL   C54447752   5.596   4.572   5.022  0.1210  0.3512 -0.4479
   85MOL   C54547753   5.531   4.662   4.937 -0.4992  0.0626  0.0024
   85MOL   C54647754   5.544   4.809   4.957  0.1478 -0.4782 -0.6434
   85MOL   O54747755   5.489   4.905   4.893 -0.0794  0.2552 -0.6070
   85MOL   C54847756   5.450   4.614   4.835 -0.5269  0.1481  0.3857
   85MOL   C54947757   5.431   4.478   4.812 -0.7404 -0.0182 -0.0808
   85MOL   H55047758   5.141   4.025   5.198  0.2516  1.1201 -2.0585
   85MOL   H55147759   5.296   4.086   5.250  1.9918 -1.9703  1.2352
   85MOL   H55247760   5.282   4.085   5.014  0.7671 -1.3633 -3.2816
   85MOL   H55347761   5.243   3.926   4.999 -2.0985  1.6886  0.2716
   85MOL   H55447762   5.502   3.978   5.146  0.5648 -1.1355 -0.6962
   85MOL   H55547763   5.455   3.839   5.055 -1.5222 -0.4368  0.5653
   85MOL   H55647764   5.630   3.959   4.928 -0.1378 -0.2489  0.3966
   85MOL   H55747765   5.467   3.980   4.846 -0.5533  1.6822  0.0700
   85MOL   H55847766   5.601   4.371   5.086 -0.5575  0.9830  1.3160
   85MOL   H55947767   5.667   4.603   5.098  1.2166 -2.5401 -0.2379
   85MOL   H56047768   5.399   4.682   4.768 -0.2884  0.2176  0.2716
   85MOL   H56147769   5.362   4.454   4.732  2.2053  1.7910 -3.2993
   85MOL   H56247770   5.597   4.825   5.051  0.2214 -0.2738 -0.7189
   86MOL     O147771   3.193   3.539   7.337 -0.3196  0.0410 -0.2988
   86MOL     C247772   3.065   3.544   7.403 -0.1691  0.3657  0.4391
   86MOL     C347773   2.943   3.613   7.326  0.2093  0.1514  0.4313
   86MOL     C447774   2.820   3.631   7.409 -0.3731  0.8075 -0.3106
   86MOL     C547775   2.702   3.673   7.322  0.1641 -0.4954 -0.1613
   86MOL     O647776   2.712   3.809   7.294 -0.0320  0.2761 -0.3083
   86MOL     C747777   2.626   3.875   7.209  0.4039  0.3310 -0.8582
   86MOL     O847778   2.527   3.822   7.154  0.1213 -0.3763 -0.1745
   86MOL     C947779   2.674   4.014   7.192  0.4355 -0.8134 -0.0187
   86MOL    C1047780   2.755   4.082   7.289  0.1632 -0.4947  0.3212
   86MOL    C1147781   2.790   4.220   7.282 -0.0261 -0.5032  0.4702
   86MOL    C1247782   2.730   4.302   7.178  0.0790 -0.0119 -0.5708
   86MOL    C1347783   2.740   4.453   7.173 -0.2405 -0.0964 -0.2688
   86MOL    O1447784   2.711   4.522   7.075 -0.1702  0.4750  0.2958
   86MOL    C1547785   2.642   4.234   7.086 -0.2290  0.1963  0.3730
   86MOL    C1647786   2.625   4.095   7.083 -0.0680  1.3130 -0.0025
   86MOL    H1747787   3.036   3.443   7.432 -1.4175  0.3031 -0.9558
   86MOL    H1847788   3.081   3.592   7.500  0.5955  0.4012  0.2972
   86MOL    H1947789   2.915   3.549   7.242  2.0257 -0.9178  0.6010
   86MOL    H2047790   2.975   3.711   7.291 -0.7331 -0.4316 -2.1265
   86MOL    H2147791   2.799   3.541   7.467  2.6079 -1.3733 -2.4411
   86MOL    H2247792   2.829   3.711   7.482  2.5136  0.2844 -0.0183
   86MOL    H2347793   2.709   3.617   7.229  1.6850 -0.7098  0.0769
   86MOL    H2447794   2.609   3.651   7.375 -0.6905 -2.0988 -2.2609
   86MOL    H2547795   2.800   4.024   7.369 -0.1091 -0.8072  0.2510
   86MOL    H2647796   2.841   4.264   7.366  0.8889  0.6919 -0.6993
   86MOL    H2747797   2.592   4.290   7.007 -0.3889 -0.4437  0.0171
   86MOL    H2847798   2.556   4.050   7.013 -0.0346  0.6658  0.3816
   86MOL    H2947799   3.242   3.484   7.397 -0.0935  0.9630  0.3750
   86MOL    O3047800   2.794   4.498   7.291 -0.0150 -0.0640 -0.0274
   86MOL    C3147801   2.822   4.634   7.315 -0.1866  0.3739  0.3598
   86MOL    C3247802   2.936   4.649   7.421 -0.1721 -0.1898 -0.0298
   86MOL    C3347803   3.079   4.611   7.369  0.4584  0.1541 -0.1091
   86MOL    C3447804   3.177   4.637   7.480  0.3895 -0.4029 -0.3201
   86MOL    O3547805   3.156   4.552   7.586  0.0358 -0.2630  0.2179
   86MOL    C3647806   3.258   4.520   7.663 -0.0098  0.6427 -0.0291
   86MOL    O3747807   3.373   4.564   7.645 -0.1885 -0.0527 -0.5976
   86MOL    C3847808   3.223   4.432   7.781 -0.0408  0.0316  0.3498
   86MOL    C3947809   3.321   4.421   7.882 -0.6241 -0.8786 -0.0270
   86MOL    C4047810   3.294   4.340   7.992  0.8084  0.4680 -0.0612
   86MOL    C4147811   3.174   4.273   8.004 -0.3097  0.6750  0.2883
   86MOL    C4247812   3.136   4.193   0.034 -0.8662  1.0196 -0.5153
   86MOL    O4347813   3.020   4.153   0.055 -0.2672 -0.0547 -0.4938
   86MOL    C4447814   3.073   4.287   7.907  0.0923 -0.4056  0.8606
   86MOL    C4547815   3.097   4.368   7.795  1.0462 -0.0828  0.4588
   86MOL    H4647816   2.844   4.686   7.222  0.0102  1.2237  0.8796
   86MOL    H4747817   2.730   4.675   7.357 -0.2233  1.1165 -0.4280
   86MOL    H4847818   2.906   4.604   7.515  0.8081 -0.0858  0.3352
   86MOL    H4947819   2.929   4.756   7.442 -2.7287 -0.4614  0.6316
   86MOL    H5047820   3.075   4.504   7.345  1.1359  0.4065 -1.3980
   86MOL    H5147821   3.095   4.656   7.271  1.8280 -1.0123 -0.4447
   86MOL    H5247822   3.267   4.592   7.437  1.0019 -1.7755  2.2530
   86MOL    H5347823   3.194   4.741   7.506 -2.1916  0.2470 -1.1438
   86MOL    H5447824   3.418   4.466   7.868  0.2891 -2.4164  1.1696
   86MOL    H5547825   3.369   4.330   8.069 -0.2919 -0.9569  0.8590
   86MOL    H5647826   2.982   4.230   7.922  0.1218 -1.0683 -1.2442
   86MOL    H5747827   3.023   4.361   7.717 -0.5775  0.3359  1.9283
   86MOL    O5847828   3.234   4.190   0.124 -0.3769  0.3638 -0.3893
   86MOL    C5947829   3.227   4.117   0.249 -0.3240  0.5842  0.0771
   86MOL    C6047830   3.330   4.181   0.341 -0.0237 -0.2111 -0.4555
   86MOL    C6147831   3.473   4.170   0.291  1.7234  0.5335  0.4588
   86MOL    C6247832   3.577   4.212   0.396  0.5034  0.6567 -0.2522
   86MOL    O6347833   3.558   4.160   0.525  0.0843  0.5351 -0.0556
   86MOL    C6447834   3.651   4.168   0.614 -0.2507 -0.9021 -0.3373
   86MOL    O6547835   3.750   4.240   0.596  0.2467  0.4202 -0.1663
   86MOL    C6647836   3.603   4.109   0.744 -0.5827  0.2007 -0.3093
   86MOL    C6747837   3.662   4.157   0.864 -0.8322 -1.0036  0.3720
   86MOL    C6847838   3.624   4.112   0.987 -0.7300 -0.4245  0.5549
   86MOL    C6947839   3.525   4.015   1.000  0.3388  0.6449 -0.1697
   86MOL    C7047840   3.472   3.952   1.123 -0.3774  0.3468 -0.1487
   86MOL    O7147841   3.425   3.839   1.139  0.1721 -0.3394 -0.1629
   86MOL    C7247842   3.451   3.977   0.881 -0.5076  0.6942  0.8431
   86MOL    C7347843   3.497   4.020   0.754  0.2366  0.1993  0.0982
   86MOL    H7447844   3.129   4.132   0.293  0.3219  0.9047  1.4305
   86MOL    H7547845   3.235   4.012   0.222 -0.0566  0.9899 -1.4665
   86MOL    H7647846   3.325   4.110   0.424 -1.4149  0.7524  0.2992
   86MOL    H7747847   3.305   4.283   0.370  0.8347 -0.5982  1.7381
   86MOL    H7847848   3.494   4.066   0.265  2.3620  0.7298  0.1963
   86MOL    H7947849   3.488   4.226   0.199  2.0516 -0.3705 -0.0533
   86MOL    H8047850   3.671   4.178   0.352  0.6010 -0.1890  0.5860
   86MOL    H8147851   3.582   4.321   0.407  0.9863  0.4849  1.4788
   86MOL    H8247852   3.749   4.221   0.861 -1.1034 -0.6691 -0.9342
   86MOL    H8347853   3.665   4.141   1.083 -0.4730 -3.3333  1.3771
   86MOL    H8447854   3.370   3.907   0.894  0.7398 -0.4818  2.4623
   86MOL    H8547855   3.442   3.980   0.670 -0.8384 -0.2410  1.0144
   86MOL    O8647856   3.506   4.030   1.227 -1.1735  0.4849  0.4015
   86MOL    C8747857   3.471   3.981   1.359  0.2820 -0.2606  1.0386
   86MOL    C8847858   3.555   4.058   1.461  0.0732  0.0990 -0.5621
   86MOL    C8947859   3.705   4.017   1.449 -0.8207 -0.5244 -0.1187
   86MOL    C9047860   3.806   4.094   1.536 -0.0117  0.6157  0.4034
   86MOL    O9147861   3.939   4.040   1.540  0.1680 -0.1093  0.5871
   86MOL    C9247862   3.958   3.940   1.623 -0.0371 -0.0330  0.0400
   86MOL    O9347863   3.864   3.867   1.665 -0.2046  0.1097 -0.6816
   86MOL    C9447864   4.094   3.903   1.660  0.3737  0.3641 -0.6749
   86MOL    C9547865   4.119   3.783   1.723 -0.1449  0.1548  0.2844
   86MOL    C9647866   4.247   3.755   1.770  0.3289 -0.9400  0.0857
   86MOL    C9747867   4.349   3.852   1.761 -0.0067 -0.7288 -0.1564
   86MOL    C9847868   4.489   3.828   1.806 -0.4083 -0.2056  0.2241
   86MOL    O9947869   4.584   3.903   1.808  0.7126  0.0368  0.2778
   86MOL   C10047870   4.328   3.974   1.694  0.2997 -0.1737  0.2573
   86MOL   C10147871   4.196   3.998   1.649  0.0615 -0.0355 -0.3654
   86MOL   H10247872   3.364   4.003   1.367  0.2190  0.6304 -1.8008
   86MOL   H10347873   3.490   3.874   1.357 -1.9776 -0.7230  2.1568
   86MOL   H10447874   3.524   4.050   1.565  0.6368 -3.4368 -0.5814
   86MOL   H10547875   3.550   4.165   1.443  2.8838  0.1174 -1.4187
   86MOL   H10647876   3.705   3.910   1.472 -1.8460 -0.3605  0.6627
   86MOL   H10747877   3.734   4.029   1.345  1.7089 -0.5679  0.5576
   86MOL   H10847878   3.830   4.195   1.502 -1.3400  0.5386 -0.8131
   86MOL   H10947879   3.774   4.112   1.639 -2.0137 -1.4257  0.1730
   86MOL   H11047880   4.044   3.706   1.721  1.1292 -1.0851 -0.2977
   86MOL   H11147881   4.258   3.659   1.817 -0.5378 -3.7278 -5.0438
   86MOL   H11247882   4.408   4.046   1.681  1.7752 -1.4963  1.8078
   86MOL   H11347883   4.159   4.094   1.617  0.6520 -0.4432 -2.3432
   86MOL   O11447884   4.508   3.698   1.832  0.2843  0.1087  0.7115
   86MOL   C11547885   4.639   3.639   1.828  0.0436  0.4240  0.3630
   86MOL   C11647886   4.674   3.601   1.680 -0.6758 -1.2032 -0.4966
   86MOL   C11747887   4.621   3.473   1.625  0.2579 -0.2058  0.3314
   86MOL   C11847888   4.468   3.470   1.609 -0.5217 -1.0279  0.3596
   86MOL   O11947889   4.419   3.575   1.524 -0.5580 -0.1414  0.1781
   86MOL   C12047890   4.287   3.557   1.482 -0.3669 -0.3974  0.1640
   86MOL   O12147891   4.222   3.461   1.517  0.2222 -0.2309 -0.0373
   86MOL   C12247892   4.238   3.668   1.390 -0.2041  0.3207 -0.5830
   86MOL   C12347893   4.102   3.672   1.353 -0.1350 -0.2934 -0.1931
   86MOL   C12447894   4.053   3.790   1.295  0.1015  0.0209  0.3866
   86MOL   C12547895   4.145   3.885   1.245 -0.2357 -0.3494  0.0244
   86MOL   C12647896   4.083   4.007   1.177  0.5644 -1.0290 -0.0176
   86MOL   O12747897   3.965   4.037   1.188 -0.0410 -0.3357  0.2360
   86MOL   C12847898   4.279   3.856   1.255  0.1774  0.1451 -0.0309
   86MOL   C12947899   4.332   3.750   1.325 -0.0457  0.2282  0.2501
   86MOL   H13047900   4.719   3.706   1.860  1.0291 -1.0721  1.0785
   86MOL   H13147901   4.637   3.548   1.888  2.2559 -0.3200 -0.6439
   86MOL   H13247902   4.782   3.611   1.663 -0.9249  1.0446 -0.9086
   86MOL   H13347903   4.640   3.675   1.608  0.8770 -1.2237 -1.2927
   86MOL   H13447904   4.684   3.465   1.537  0.0843 -0.3577  0.2205
   86MOL   H13547905   4.651   3.387   1.686  1.4317 -1.4516 -1.9206
   86MOL   H13647906   4.425   3.375   1.576 -0.9975 -1.1184  1.2448
   86MOL   H13747907   4.430   3.486   1.709  2.5571 -0.2421  1.4733
   86MOL   H13847908   4.035   3.594   1.386  0.3933 -0.6939 -0.0507
   86MOL   H13947909   3.949   3.802   1.267  0.0413 -0.2123  0.5107
   86MOL   H14047910   4.351   3.929   1.221  0.7843  0.7946  2.6111
   86MOL   H14147911   4.438   3.743   1.345 -0.1783 -0.1994  0.8082
   86MOL   O14247912   4.170   4.075   1.100 -0.4534  0.5085 -0.1067
   86MOL   C14347913   4.122   4.190   1.024 -0.2694  0.2124  1.0260
   86MOL   C14447914   4.078   4.139   0.886  0.0127 -0.1033 -0.3274
   86MOL   C14547915   4.036   4.256   0.803 -0.4920 -0.0566  0.4562
   86MOL   C14647916   4.132   4.371   0.789 -0.3191  0.4323 -0.0664
   86MOL   O14747917   4.243   4.322   0.713 -0.2246 -0.7385  0.0816
   86MOL   C14847918   4.366   4.315   0.751  0.0937 -0.5146 -0.8556
   86MOL   O14947919   4.406   4.363   0.860 -0.3663 -0.9121  0.0482
   86MOL   C15047920   4.449   4.227   0.670 -0.1751 -0.0538 -0.0443
   86MOL   C15147921   4.568   4.178   0.732  0.4032  0.0366 -0.6786
   86MOL   C15247922   4.652   4.090   0.670 -0.4067  0.3627 -0.0576
   86MOL   C15347923   4.619   4.031   0.547 -0.1079 -0.5746  0.5872
   86MOL   C15447924   4.700   3.936   0.470 -0.9047 -0.1196 -0.2988
   86MOL   O15547925   4.688   3.904   0.352 -0.2399  1.1192  0.1079
   86MOL   C15647926   4.503   4.081   0.481 -0.1860 -0.1012  0.3013
   86MOL   C15747927   4.418   4.180   0.537  0.3480  0.4361  0.5379
   86MOL   H15847928   4.046   4.254   1.067 -1.0308 -1.9075  2.9340
   86MOL   H15947929   4.220   4.238   1.018  0.7752 -1.9932 -0.3788
   86MOL   H16047930   3.997   4.067   0.898 -0.2948  0.0544 -1.4111
   86MOL   H16147931   4.153   4.077   0.837  1.6334  1.5090  0.0731
   86MOL   H16247932   4.032   4.215   0.702 -0.6247 -1.0528  0.8620
   86MOL   H16347933   3.939   4.299   0.825 -0.5388  0.6865 -1.0728
   86MOL   H16447934   4.088   4.447   0.726 -0.3349  2.6254  2.4804
   86MOL   H16547935   4.158   4.417   0.885  0.4871  0.5271 -0.3259
   86MOL   H16647936   4.579   4.205   0.836 -0.8605  0.3844 -0.6259
   86MOL   H16747937   4.748   4.058   0.707 -0.0817 -1.1816 -2.1113
   86MOL   H16847938   4.483   4.051   0.379 -1.1756  1.3541  0.0537
   86MOL   H16947939   4.327   4.196   0.482 -0.1512  0.0218  1.2286
   86MOL   O17047940   4.802   3.887   0.550  0.5124 -0.0808  0.1710
   86MOL   C17147941   4.883   3.786   0.506 -0.4758 -0.3654  0.2401
   86MOL   C17247942   4.952   3.718   0.627  0.7800 -0.2208 -0.1552
   86MOL   C17347943   5.048   3.821   0.687 -0.7646  0.5557  0.1322
   86MOL   C17447944   5.096   3.773   0.826  0.0002  0.0225  0.9287
   86MOL   O17547945   4.998   3.810   0.928 -0.4490  0.4657  0.0730
   86MOL   C17647946   4.974   3.743   1.041  0.0011  0.2756  0.3037
   86MOL   O17747947   5.033   3.643   1.073 -0.0497 -0.0885  0.5458
   86MOL   C17847948   4.884   3.824   1.136  0.2682 -0.2154  0.0308
   86MOL   C17947949   4.819   3.937   1.083  0.4560  0.2161  0.3060
   86MOL   C18047950   4.717   4.009   1.151 -1.0333  0.5040 -0.3268
   86MOL   C18147951   4.698   3.986   1.286 -0.4616 -0.3288  0.4104
   86MOL   C18247952   4.602   4.054   1.372  0.2162  0.3595 -0.7891
   86MOL   O18347953   4.533   3.999   1.458  0.1236 -0.2091 -0.2261
   86MOL   C18447954   4.773   3.877   1.345  0.2455  0.2627 -0.0612
   86MOL   C18547955   4.855   3.793   1.270  0.4186  0.2119  0.2028
   86MOL   H18647956   4.810   3.723   0.454 -2.3204  2.2860 -0.5219
   86MOL   H18747957   4.956   3.812   0.429 -0.7861 -0.5243 -0.1107
   86MOL   H18847958   4.991   3.620   0.601 -1.5088 -1.1442 -0.2369
   86MOL   H18947959   4.871   3.698   0.697  2.4557  1.9330  2.5051
   86MOL   H19047960   5.132   3.830   0.618 -1.8306 -0.9220 -1.4082
   86MOL   H19147961   5.010   3.923   0.688 -0.3222  0.7750 -2.0823
   86MOL   H19247962   5.135   3.671   0.827  0.2566  0.0968 -0.7645
   86MOL   H19347963   5.191   3.820   0.853  1.1180 -0.8861 -1.2822
   86MOL   H19447964   4.840   3.983   0.987 -1.2780  1.3605  0.4485
   86MOL   H19547965   4.659   4.082   1.096  3.1505  2.6958 -2.0675
   86MOL   H19647966   4.763   3.850   1.449 -1.3727 -2.2323 -0.8216
   86MOL   H19747967   4.911   3.714   1.320  1.8886  0.9337 -0.2674
   86MOL   O19847968   4.591   4.188   1.345 -0.0520 -0.4782 -0.4034
   86MOL   C19947969   4.504   4.279   1.414  0.2137  0.3722 -0.6236
   86MOL   C20047970   4.357   4.269   1.372  0.2104 -0.5801 -0.0127
   86MOL   C20147971   4.266   4.355   1.468 -0.3071 -0.5178  0.3390
   86MOL   C20247972   4.115   4.344   1.441  0.8043  0.1038 -0.1638
   86MOL   O20347973   4.063   4.405   1.328 -0.4520 -0.0529  0.5600
   86MOL   C20447974   3.934   4.432   1.322 -0.3382  0.0450  0.2878
   86MOL   O20547975   3.858   4.409   1.411 -1.0621 -0.3382  0.2098
   86MOL   C20647976   3.886   4.468   1.191 -0.0231  0.1343 -0.4611
   86MOL   C20747977   3.756   4.444   1.153  0.2757  0.4315  0.9249
   86MOL   C20847978   3.709   4.476   1.023  0.7775  0.4950 -0.8760
   86MOL   C20947979   3.800   4.518   0.926  0.3364  1.0128  0.5016
   86MOL   C21047980   3.756   4.541   0.785  0.0296  0.3749 -0.0047
   86MOL   O21147981   3.837   4.560   0.695 -0.2813 -0.6368 -0.2090
   86MOL   C21247982   3.935   4.542   0.961  0.7790  0.1226  0.4331
   86MOL   C21347983   3.976   4.523   1.092 -0.3467  0.2709 -0.3476
   86MOL   H21447984   4.511   4.244   1.517 -0.1598  0.1408 -0.6723
   86MOL   H21547985   4.540   4.381   1.402  0.0698  0.4485 -0.4132
   86MOL   H21647986   4.323   4.165   1.372 -0.3475 -0.4060 -1.8742
   86MOL   H21747987   4.348   4.305   1.270  1.1492 -0.8601 -0.1981
   86MOL   H21847988   4.288   4.322   1.570  0.0776 -1.5134 -0.0496
   86MOL   H21947989   4.293   4.459   1.451  2.5738 -1.1835  0.4881
   86MOL   H22047990   4.080   4.241   1.455  3.6155 -0.8017  0.4382
   86MOL   H22147991   4.071   4.398   1.525 -1.2697 -0.4475 -0.8544
   86MOL   H22247992   3.686   4.400   1.222 -1.7359 -2.5873 -2.8298
   86MOL   H22347993   3.604   4.462   0.999 -0.3316  1.1669  3.0966
   86MOL   H22447994   4.001   4.579   0.883 -0.5840 -1.2935 -1.4510
   86MOL   H22547995   4.076   4.557   1.114 -1.0303  2.2479 -0.2289
   86MOL   O22647996   3.624   4.539   0.774 -0.2460  0.0031 -0.2960
   86MOL   C22747997   3.566   4.562   0.648 -0.2367  0.1088 -0.8690
   86MOL   C22847998   3.420   4.516   0.674 -0.1761 -0.3226 -0.3625
   86MOL   C22947999   3.322   4.533   0.557  0.0003  0.5045  0.1419
   86MOL   C23048000   3.179   4.514   0.597  0.5213 -0.4754 -0.2745
   86MOL   O23148001   3.125   4.637   0.649 -0.2437 -0.1073  0.1823
   86MOL   C23248002   2.994   4.654   0.650  0.2966  1.3772 -0.3828
   86MOL   O23348003   2.914   4.574   0.607  0.3033  0.6851  0.0052
   86MOL   C23448004   2.951   4.794   0.700 -0.1237  0.0778 -0.1596
   86MOL   C23548005   3.042   4.894   0.725 -1.3279  0.4314  0.0902
   86MOL   C23648006   2.993   5.025   0.758 -0.2986 -0.0372  0.1061
   86MOL   C23748007   2.852   5.051   0.759 -0.4054 -0.2319  0.0382
   86MOL   C23848008   2.800   5.183   0.800  0.7453  0.3857 -0.2205
   86MOL   O23948009   2.684   5.214   0.794  0.6758  0.4685  0.1882
   86MOL   C24048010   2.762   4.951   0.738 -0.6431 -0.2779 -0.1815
   86MOL   C24148011   2.816   4.823   0.709  0.0076 -0.8698  0.5284
   86MOL   H24248012   3.556   4.666   0.616  0.1743  0.5414  0.4010
   86MOL   H24348013   3.610   4.491   0.577  0.9509  0.9617 -1.0058
   86MOL   H24448014   3.377   4.568   0.760 -1.9117  2.1624 -2.6345
   86MOL   H24548015   3.431   4.411   0.700  0.8222  0.3793  2.2398
   86MOL   H24648016   3.328   4.629   0.506 -0.7864 -0.5047 -1.9422
   86MOL   H24748017   3.353   4.463   0.479 -2.6250  1.7867 -2.1434
   86MOL   H24848018   3.123   4.501   0.504 -0.3773  1.8379 -0.0929
   86MOL   H24948019   3.155   4.419   0.644 -0.9556  1.2942  2.6339
   86MOL   H25048020   3.147   4.882   0.703 -1.5724 -0.2359 -0.7762
   86MOL   H25148021   3.065   5.104   0.775 -1.0327  0.6773 -0.0754
   86MOL   H25248022   2.655   4.966   0.737 -0.5650  0.3426  0.5113
   86MOL   H25348023   2.754   4.736   0.696 -0.5872 -0.1342 -1.8047
   86MOL   O25448024   2.896   5.268   0.853  0.1048 -0.2262 -0.6127
   86MOL   C25548025   2.862   5.405   0.889  0.4512 -0.1101 -0.1851
   86MOL   C25648026   2.834   5.490   0.763 -0.4991  0.0928  0.5466
   86MOL   C25748027   2.952   5.540   0.680 -0.1368  0.3545 -0.5848
   86MOL   C25848028   3.051   5.436   0.615 -0.6871  0.1850 -0.1581
   86MOL   O25948029   2.984   5.345   0.533 -0.2081  0.3552 -0.3401
   86MOL   C26048030   2.985   5.361   0.405  0.5984 -0.0239 -0.0667
   86MOL   O26148031   3.033   5.459   0.350  0.3113  0.2897 -0.0469
   86MOL   C26248032   2.948   5.238   0.332  0.4418 -0.1472  0.6249
   86MOL   C26348033   2.872   5.138   0.400  0.4845  0.7012 -0.3002
   86MOL   C26448034   2.847   5.019   0.333 -0.2159  0.3090 -0.0614
   86MOL   C26548035   2.896   4.998   0.199  0.2852  0.5930  0.7033
   86MOL   C26648036   2.880   4.865   0.119 -1.0852 -0.3178  0.9316
   86MOL   O26748037   2.797   4.777   0.151 -0.6629  0.0137 -0.7586
   86MOL   C26848038   2.964   5.103   0.135 -0.2599 -1.0436  0.1504
   86MOL   C26948039   2.984   5.230   0.196 -0.7088 -0.5795 -0.1001
   86MOL   H27048040   2.771   5.395   0.948 -0.7873  0.4763 -1.9551
   86MOL   H27148041   2.941   5.443   0.954  0.3093 -0.2881  0.0927
   86MOL   H27248042   2.777   5.573   0.806  0.2011  0.6556  0.3948
   86MOL   H27348043   2.773   5.434   0.692 -0.2425 -0.9382  1.1373
   86MOL   H27448044   2.913   5.611   0.607  0.1092 -1.2627 -2.3024
   86MOL   H27548045   3.003   5.604   0.753 -0.8965  0.4351 -0.1135
   86MOL   H27648046   3.140   5.492   0.585 -0.6599  0.4256  0.3774
   86MOL   H27748047   3.083   5.370   0.695  1.4302 -0.6357 -1.6195
   86MOL   H27848048   2.843   5.159   0.502  0.7277  0.0666 -0.0943
   86MOL   H27948049   2.789   4.942   0.382 -1.6930  0.4343 -1.5648
   86MOL   H28048050   2.982   5.095   0.029 -1.9480  0.0402 -0.2306
   86MOL   H28148051   3.035   5.311   0.147 -0.5573  0.3943  1.6525
   86MOL   O28248052   2.963   4.855   0.013 -0.0146 -0.1290 -0.4178
   86MOL   C28348053   2.971   4.738   8.036  0.6195  0.4349 -0.9975
   86MOL   C28448054   3.088   4.661   8.093  0.1059 -0.0361  0.3613
   86MOL   C28548055   3.063   4.583   0.120 -0.6880 -0.4069  0.2043
   86MOL   C28648056   3.195   4.535   0.182  0.1536  0.0045  0.3409
   86MOL   O28748057   3.283   4.636   0.218 -0.4759  0.1041  0.4545
   86MOL   C28848058   3.414   4.611   0.244  0.1427 -0.2481 -0.2856
   86MOL   O28948059   3.462   4.496   0.247  0.1019 -0.7159  0.7522
   86MOL   C29048060   3.496   4.734   0.266 -0.6711  0.3904  0.4625
   86MOL   C29148061   3.622   4.724   0.327 -0.5245  0.0022  0.0477
   86MOL   C29248062   3.703   4.841   0.345 -0.1515  0.3393  0.6778
   86MOL   C29348063   3.655   4.968   0.302 -0.5114  1.0710  0.5978
   86MOL   C29448064   3.732   5.090   0.325  0.7555 -0.0592  0.1510
   86MOL   O29548065   3.683   5.200   0.312 -0.0903 -0.0574 -0.6458
   86MOL   C29648066   3.531   4.975   0.229 -0.6357  0.3134  0.0864
   86MOL   C29748067   3.453   4.861   0.216  0.1378 -0.7676  0.3875
   86MOL   H29848068   2.882   4.675   8.037  1.7526 -1.2051 -0.3803
   86MOL   H29948069   2.979   4.760   7.930 -0.0608 -1.0553 -1.3652
   86MOL   H30048070   3.163   4.739   0.010  0.4520  0.2625 -2.5039
   86MOL   H30148071   3.132   4.596   8.018 -1.0276  0.6411 -0.9082
   86MOL   H30248072   3.024   4.649   0.198  2.3659 -0.8956  2.2038
   86MOL   H30348073   3.002   4.495   0.098 -0.0694 -1.0394  1.0044
   86MOL   H30448074   3.168   4.489   0.277  0.5546  0.7188  0.8034
   86MOL   H30548075   3.242   4.460   0.117  1.9127  0.4989  1.0274
   86MOL   H30648076   3.648   4.626   0.366  0.5600  0.9736  1.8263
   86MOL   H30748077   3.794   4.819   0.398  1.4138 -1.7395 -2.7022
   86MOL   H30848078   3.484   5.063   0.189 -2.5948 -0.6481  0.2121
   86MOL   H30948079   3.364   4.871   0.156 -1.5208 -0.7016  2.8123
   86MOL   O31048080   3.859   5.061   0.346  0.3304 -0.4585  0.4809
   86MOL   C31148081   3.951   5.167   0.370 -0.3226 -0.0244  0.1353
   86MOL   C31248082   4.085   5.103   0.412  0.2605  0.0169  0.0545
   86MOL   C31348083   4.153   5.021   0.295 -0.2956 -0.6609 -0.1628
   86MOL   C31448084   4.199   5.115   0.172 -0.1748 -0.0538  0.5158
   86MOL   O31548085   4.078   5.142   0.103  0.1970 -0.0589 -0.0950
   86MOL   C31648086   4.052   5.058   0.000 -0.7540  0.3283  0.1287
   86MOL   O31748087   4.110   4.948   8.078 -0.1228 -0.0868  0.1378
   86MOL   C31848088   3.969   5.130   7.997  0.7562  0.4879  0.2587
   86MOL   C31948089   3.950   5.069   7.873  0.2154 -0.7768 -0.0656
   86MOL   C32048090   3.880   5.137   7.772 -0.0233 -0.1546 -0.3118
   86MOL   C32148091   3.824   5.266   7.798 -0.4065 -0.1334  0.1037
   86MOL   C32248092   3.742   5.339   7.702  0.3064 -0.0042  1.2706
   86MOL   O32348093   3.665   5.429   7.729 -0.1655 -0.7402 -0.1297
   86MOL   C32448094   3.832   5.323   7.928  0.1024  0.4286 -0.0686
   86MOL   C32548095   3.895   5.244   8.025 -0.9741 -0.2010  0.1980
   86MOL   H32648096   3.967   5.239   0.290 -2.8369  0.3709 -0.0718
   86MOL   H32748097   3.908   5.226   0.451  0.6754  1.9868 -0.7718
   86MOL   H32848098   4.063   5.047   0.503  0.6607  1.6505  1.1677
   86MOL   H32948099   4.148   5.183   0.448 -0.0103 -0.1451  0.8907
   86MOL   H33048100   4.241   4.963   0.325 -0.4814 -0.4949  0.7208
   86MOL   H33148101   4.081   4.951   0.255 -0.7493 -0.2513 -0.0594
   86MOL   H33248102   4.244   5.209   0.205  0.2611 -0.1755  0.2566
   86MOL   H33348103   4.275   5.079   0.103 -0.8658  2.3457 -1.5596
   86MOL   H33448104   3.995   4.973   7.849  0.7732 -1.0454  1.9519
   86MOL   H33548105   3.866   5.093   7.674 -3.1681  0.4177 -0.1754
   86MOL   H33648106   3.771   5.406   7.961 -2.1221  0.0029 -2.9400
   86MOL   H33748107   3.894   5.283   0.027 -3.0621  1.6475 -0.4879
   86MOL   O33848108   3.767   5.303   7.581 -0.2468 -0.0405 -0.1527
   86MOL   C33948109   3.730   5.387   7.469  0.7040  0.3201 -0.3533
   86MOL   C34048110   3.840   5.489   7.428  0.4326  0.3995  0.0351
   86MOL   C34148111   3.962   5.420   7.353  0.3592  0.0014 -0.6865
   86MOL   C34248112   4.061   5.517   7.295 -0.0845 -0.0515 -0.1087
   86MOL   O34348113   4.151   5.445   7.219  0.2780 -0.5400  0.2523
   86MOL   C34448114   4.233   5.515   7.129 -0.7803 -0.0980  0.6185
   86MOL   O34548115   4.220   5.637   7.112  0.2804 -0.6216  0.0450
   86MOL   C34648116   4.347   5.433   7.071  0.0565  0.2244  0.6285
   86MOL   C34748117   4.373   5.296   7.102  0.3484 -0.6212  0.0790
   86MOL   C34848118   4.494   5.229   7.067 -0.2487 -0.2807  0.0317
   86MOL   C34948119   4.593   5.303   6.997 -0.1356  0.0313 -0.2535
   86MOL   C35048120   4.730   5.248   6.962 -0.8267 -0.1654  0.2064
   86MOL   O35148121   4.812   5.314   6.903 -0.4072  0.2840 -0.3723
   86MOL   C35248122   4.563   5.441   6.967 -0.1043 -0.5618 -0.0835
   86MOL   C35348123   4.440   5.493   6.994 -0.0275  0.1472 -0.1841
   86MOL   H35448124   3.711   5.332   7.377  0.7441  0.7914 -0.6421
   86MOL   H35548125   3.628   5.425   7.480 -0.1315 -1.4738 -1.7539
   86MOL   H35648126   3.867   5.547   7.517 -0.6494  0.9310  0.0114
   86MOL   H35748127   3.803   5.553   7.349 -2.5717 -0.7174  0.4871
   86MOL   H35848128   4.022   5.360   7.421  0.3017 -0.6347 -1.2003
   86MOL   H35948129   3.932   5.355   7.272 -2.1019  0.4744 -0.2044
   86MOL   H36048130   3.999   5.584   7.235 -1.3507 -1.0321  0.0873
   86MOL   H36148131   4.113   5.583   7.365 -0.1503  0.9425 -0.9858
   86MOL   H36248132   4.302   5.241   7.162 -0.6378  1.2063  0.6333
   86MOL   H36348133   4.507   5.125   7.096  2.2346 -0.8347 -2.7640
   86MOL   H36448134   4.632   5.496   6.905 -0.7853 -1.8887 -2.0683
   86MOL   H36548135   4.414   5.595   6.970 -2.0604 -0.8955 -2.6407
   86MOL   O36648136   4.750   5.119   7.004  0.6051  0.6319 -0.2761
   86MOL   C36748137   4.865   5.039   6.963  1.1175  0.6897  0.0555
   86MOL   C36848138   4.867   4.916   7.052 -0.4066 -0.1442  0.5777
   86MOL   C36948139   4.941   4.943   7.181 -0.2955  0.2354  0.3155
   86MOL   C37048140   4.915   4.829   7.280  0.0697 -0.3450  1.2767
   86MOL   O37148141   4.781   4.832   7.309 -0.3170 -0.2919  0.4361
   86MOL   C37248142   4.732   4.722   7.376  0.0093  0.0916 -0.1438
   86MOL   O37348143   4.804   4.636   7.425  0.7096  0.1866  0.1128
   86MOL   C37448144   4.588   4.728   7.405 -0.2343 -0.1674 -0.0772
   86MOL   C37548145   4.515   4.845   7.380  0.1087 -0.0878 -0.3000
   86MOL   C37648146   4.381   4.852   7.410  0.0966 -0.5736 -0.6035
   86MOL   C37748147   4.318   4.739   7.479  0.3692 -0.2306  0.3734
   86MOL   C37848148   4.175   4.750   7.524 -0.6190 -0.8486  0.7091
   86MOL   O37948149   4.142   4.698   7.628  0.1961  0.1893  0.3659
   86MOL   C38048150   4.395   4.625   7.505  0.6892 -0.0524  0.7318
   86MOL   C38148151   4.526   4.617   7.465  0.1268  0.3087  0.1575
   86MOL   H38248152   4.850   5.006   6.860  2.5288  1.2643 -0.3368
   86MOL   H38348153   4.956   5.096   6.975  0.2790  2.2773 -0.9399
   86MOL   H38448154   4.900   4.819   7.013  0.2569  0.7507 -1.1256
   86MOL   H38548155   4.764   4.882   7.064 -0.2768 -1.1484 -0.9587
   86MOL   H38648156   5.050   4.951   7.177 -0.4649  1.7620 -3.1413
   86MOL   H38748157   4.905   5.035   7.226 -0.9692 -0.3662  1.0063
   86MOL   H38848158   4.939   4.731   7.239 -3.6330  0.1975 -2.5512
   86MOL   H38948159   4.975   4.855   7.367  1.0999  2.7330 -0.2843
   86MOL   H39048160   4.557   4.931   7.329 -0.3338  0.4588  0.2501
   86MOL   H39148161   4.327   4.944   7.391  0.9839 -0.0921 -0.8101
   86MOL   H39248162   4.354   4.544   7.564  2.4113 -1.3186  0.2087
   86MOL   H39348163   4.584   4.527   7.482  0.2193  0.3112 -0.1300
   86MOL   O39448164   4.098   4.832   7.446 -0.3770 -0.4045 -0.2153
   86MOL   C39548165   3.964   4.862   7.487 -0.9104 -0.7345  0.5773
   86MOL   C39648166   3.887   4.914   7.369  0.5398  0.1298 -0.3390
   86MOL   C39748167   3.968   5.013   7.275  0.4833  0.5559  0.5344
   86MOL   C39848168   3.889   5.070   7.159  0.8659 -0.6090 -0.6013
   86MOL   O39948169   3.770   5.143   7.181  0.2145  0.2301 -0.7019
   86MOL   C40048170   3.651   5.107   7.125 -0.0834 -0.3252  0.3352
   86MOL   O40148171   3.630   5.007   7.058 -0.3190  0.2409 -0.1886
   86MOL   C40248172   3.552   5.215   7.165 -0.2186 -0.0170 -0.1672
   86MOL   C40348173   3.601   5.352   7.164  0.7506 -0.0929 -0.4614
   86MOL   C40448174   3.514   5.456   7.205  0.5808 -0.0791 -0.0063
   86MOL   C40548175   3.384   5.426   7.251 -0.2657 -0.3259 -0.7114
   86MOL   C40648176   3.300   5.548   7.288  0.0722  0.3172 -0.2849
   86MOL   O40748177   3.331   5.666   7.263 -0.1787  0.6035  0.3816
   86MOL   C40848178   3.334   5.292   7.252  0.5167 -0.1128 -0.1594
   86MOL   C40948179   3.416   5.192   7.200 -0.1094  1.0163 -0.0933
   86MOL   H41048180   3.912   4.776   7.528 -0.2141 -1.7166 -0.5935
   86MOL   H41148181   3.978   4.933   7.569 -1.9743 -1.2167  1.1913
   86MOL   H41248182   3.796   4.965   7.402  1.6777  0.8056  1.8348
   86MOL   H41348183   3.864   4.816   7.327  1.9902 -0.7226  0.8266
   86MOL   H41448184   4.010   5.095   7.333 -0.7490  1.1816  0.5427
   86MOL   H41548185   4.055   4.956   7.239 -0.8031 -0.8704 -0.3778
   86MOL   H41648186   3.943   5.135   7.090 -1.4249  1.2085 -0.7061
   86MOL   H41748187   3.861   4.988   7.093 -1.6203  0.1219 -0.5004
   86MOL   H41848188   3.700   5.370   7.124  1.3944  0.5201  1.3873
   86MOL   H41948189   3.551   5.557   7.190  0.5884 -0.3519 -1.9012
   86MOL   H42048190   3.231   5.276   7.280  0.6047  3.3931  2.4947
   86MOL   H42148191   3.377   5.091   7.190 -1.1833  1.5137 -1.0334
   86MOL   O42248192   3.184   5.513   7.353 -0.1235  0.5778 -0.1564
   86MOL   C42348193   3.098   5.602   7.410 -0.5914  0.2353  0.0483
   86MOL   C42448194   2.983   5.636   7.318  0.2833  0.1290 -0.7003
   86MOL   C42548195   2.891   5.524   7.280 -0.4459 -0.7339 -1.0846
   86MOL   C42648196   2.804   5.574   7.176  0.4419 -0.5394  0.0627
   86MOL   O42748197   2.690   5.653   7.222  0.2465 -0.1474 -0.0208
   86MOL   C42848198   2.591   5.692   7.133 -0.2619  0.0342  0.9733
   86MOL   O42948199   2.586   5.658   7.016  0.3031 -0.5231  0.5870
   86MOL   C43048200   2.484   5.777   7.193  0.5875  0.2445 -0.8989
   86MOL   C43148201   2.358   5.780   7.130  0.3079 -0.2965 -0.1594
   86MOL   C43248202   2.257   5.864   7.176 -0.4846  0.2862  0.9493
   86MOL   C43348203   2.274   5.945   7.287 -0.3150  0.2600 -0.4503
   86MOL   C43448204   2.162   6.031   7.337 -0.2123 -0.0011  0.0952
   86MOL   O43548205   2.056   6.042   7.273  0.3233 -0.2618  0.0211
   86MOL   C43648206   2.395   5.931   7.355  0.1104 -0.3773  0.1118
   86MOL   C43748207   2.503   5.855   7.309  0.2446  0.4124  0.1389
   86MOL   H43848208   3.046   5.561   7.496  0.1113  0.3726  0.5419
   86MOL   H43948209   3.147   5.688   7.456  0.9349 -0.5609 -0.0468
   86MOL   H44048210   3.018   5.688   7.229 -1.7707  2.0427 -0.4221
   86MOL   H44148211   2.920   5.712   7.363 -0.0772 -0.0699 -0.8725
   86MOL   H44248212   2.948   5.435   7.256  1.5395 -0.5490  2.5696
   86MOL   H44348213   2.828   5.487   7.362  1.6053 -2.8434 -0.4201
   86MOL   H44448214   2.858   5.626   7.096 -0.4211  1.8087  0.9839
   86MOL   H44548215   2.762   5.489   7.121  0.5541 -0.2373 -0.5002
   86MOL   H44648216   2.337   5.725   7.039  1.9493 -2.9994  1.0240
   86MOL   H44748217   2.165   5.872   7.119 -1.2914 -1.9109  1.9274
   86MOL   H44848218   2.400   5.995   7.442  2.2238 -2.2897  1.4649
   86MOL   H44948219   2.598   5.848   7.360  0.8890 -0.8528 -1.1675
   86MOL   O45048220   2.184   6.083   7.464  0.4661  0.2613 -0.5025
   86MOL   C45148221   2.094   6.168   7.525 -0.3785 -0.4507 -0.3310
   86MOL   C45248222   2.063   6.119   7.663 -0.5042  0.0203 -0.7176
   86MOL   C45348223   2.175   6.112   7.764 -0.4176  0.3360 -0.0593
   86MOL   C45448224   2.133   6.095   7.914  0.0500  0.2071 -0.0842
   86MOL   O45548225   2.251   6.073   7.979 -0.2275 -0.0607 -0.3540
   86MOL   C45648226   2.269   6.082   0.008  0.4350  0.4091 -0.3620
   86MOL   O45748227   2.175   6.070   0.093 -0.3653 -0.3516  0.5572
   86MOL   C45848228   2.409   6.097   0.047  0.7407  0.4843  0.5942
   86MOL   C45948229   2.435   6.142   0.178 -0.5004  0.1741 -0.2562
   86MOL   C46048230   2.568   6.142   0.229  0.3339  0.2472  0.1849
   86MOL   C46148231   2.672   6.090   0.149  0.1142 -0.7148  0.7496
   86MOL   C46248232   2.808   6.094   0.198 -0.0719  0.2315  0.0318
   86MOL   O46348233   2.906   6.079   0.128 -0.4783  0.0208  0.2504
   86MOL   C46448234   2.643   6.038   0.021 -0.3224 -0.2242  0.0649
   86MOL   C46548235   2.515   6.050   8.070 -0.7036 -0.4491  0.2110
   86MOL   H46648236   2.152   6.260   7.533  0.2592 -0.9015  0.2637
   86MOL   H46748237   2.008   6.187   7.461  0.4996  1.3177 -1.0108
   86MOL   H46848238   2.018   6.020   7.655  0.0159 -0.1711 -1.2845
   86MOL   H46948239   1.989   6.184   7.709  0.7678  2.4756 -2.0305
   86MOL   H47048240   2.248   6.037   7.733  1.9191  1.8036  1.7554
   86MOL   H47148241   2.233   6.203   7.778 -2.0855  1.1114  2.0728
   86MOL   H47248242   2.099   6.191   7.953  1.0085  0.5801 -0.1445
   86MOL   H47348243   2.060   6.018   7.938  0.0611  0.4844  0.8662
   86MOL   H47448244   2.359   6.175   0.247  0.7442  1.8715  0.3402
   86MOL   H47548245   2.592   6.175   0.329  1.1200  0.3642 -0.0409
   86MOL   H47648246   2.717   6.009   8.046 -0.0351  0.9935 -0.1332
   86MOL   H47748247   2.504   6.007   7.971  2.5798 -1.4076  0.2163
   86MOL   O47848248   2.817   6.111   0.332 -0.2044  0.1163 -0.3643
   86MOL   C47948249   2.939   6.121   0.407  0.1002  0.5350  0.2136
   86MOL   C48048250   2.916   6.164   0.548  0.1548  0.6831 -0.5722
   86MOL   C48148251   3.010   6.102   0.649  0.2912 -0.3830  0.0620
   86MOL   C48248252   2.971   5.962   0.685  0.0542  0.0883 -0.1693
   86MOL   O48348253   2.844   5.965   0.748  0.5867 -0.7432 -0.0408
   86MOL   C48448254   2.816   5.879   0.856  0.5999  0.1047 -0.1440
   86MOL   O48548255   2.896   5.793   0.902  0.3188  0.0031 -0.6211
   86MOL   C48648256   2.672   5.893   0.906 -0.5798  0.0610 -0.2245
   86MOL   C48748257   2.638   5.808   1.010 -0.1901 -1.0905 -0.7075
   86MOL   C48848258   2.511   5.820   1.070 -0.0040  0.8066  0.0328
   86MOL   C48948259   2.415   5.912   1.013  0.0026  0.4384 -1.1009
   86MOL   C49048260   2.281   5.920   1.073 -0.2129 -0.6202 -0.0838
   86MOL   O49148261   2.240   5.851   1.167  0.7921 -0.4745  0.0046
   86MOL   C49248262   2.447   5.992   0.903 -0.3664 -0.5130  0.0988
   86MOL   C49348263   2.581   5.984   0.854 -0.0606 -0.0720  0.9110
   86MOL   H49448264   2.982   6.020   0.411 -1.5364 -0.1285  1.3649
   86MOL   H49548265   3.011   6.186   0.358 -0.4721  1.5853  0.7716
   86MOL   H49648266   2.815   6.144   0.584  1.3942 -1.8761  1.6649
   86MOL   H49748267   2.905   6.272   0.555 -0.5598  0.5307  0.9559
   86MOL   H49848268   3.108   6.111   0.603  1.8570 -0.6618  3.2189
   86MOL   H49948269   3.016   6.170   0.733  0.1053 -1.1928  0.7373
   86MOL   H50048270   2.981   5.897   0.599 -0.7055 -0.4344  0.1292
   86MOL   H50148271   3.044   5.930   0.760  0.9988  1.4311 -0.4899
   86MOL   H50248272   2.708   5.751   1.070 -2.2442  0.3827  3.2380
   86MOL   H50348273   2.497   5.755   1.155  1.5997  0.9941  0.4690
   86MOL   H50448274   2.387   6.074   0.867 -2.1925 -2.7689 -2.2573
   86MOL   H50548275   2.609   6.052   0.775 -2.7354  2.1014  1.7414
   86MOL   O50648276   2.208   6.025   1.026  0.1521  0.4727  0.3548
   86MOL   C50748277   2.085   6.050   1.080  0.4733  0.0211  0.7639
   86MOL   C50848278   1.971   5.980   1.006  0.2536  0.1471 -0.5890
   86MOL   C50948279   1.835   6.044   1.034  0.4957 -1.0618  0.5525
   86MOL   C51048280   1.718   5.963   0.980  0.3342  0.0042  0.1681
   86MOL   O51148281   1.686   5.990   0.845 -0.0368 -0.9227 -0.5504
   86MOL   C51248282   1.576   5.939   0.791 -0.3568 -0.1784  1.2212
   86MOL   O51348283   1.500   5.855   0.845  0.2808 -0.1373 -0.3933
   86MOL   C51448284   1.539   6.010   0.664 -0.1387 -0.5310  0.4133
   86MOL   C51548285   1.403   5.991   0.617  0.0673  0.2821  0.3132
   86MOL   C51648286   1.369   6.045   0.491 -0.1422 -0.0052  0.1923
   86MOL   C51748287   1.460   6.118   0.411  0.1564 -0.2125 -0.1711
   86MOL   C51848288   1.418   6.166   0.276  0.1805  0.9462 -0.0044
   86MOL   O51948289   1.299   6.160   0.234  0.4093  0.3812  0.0740
   86MOL   C52048290   1.590   6.146   0.465  0.0572  0.3987  0.9244
   86MOL   C52148291   1.629   6.086   0.587 -0.2512  0.2111 -0.1696
   86MOL   H52248292   2.077   6.019   1.184  0.8698 -1.0041  0.4893
   86MOL   H52348293   2.075   6.158   1.070  1.4104  0.1611  1.2623
   86MOL   H52448294   1.979   5.876   1.036 -1.1347 -0.4127 -2.0954
   86MOL   H52548295   1.976   5.976   0.897  0.4016  1.3908 -0.6325
   86MOL   H52648296   1.820   6.055   1.141 -0.0409  1.5329  0.2529
   86MOL   H52748297   1.829   6.144   0.990  2.5838 -1.6709 -1.1822
   86MOL   H52848298   1.738   5.856   0.972 -1.7466 -0.2902 -1.2999
   86MOL   H52948299   1.634   5.960   1.049 -0.0515  2.0580 -0.1701
   86MOL   H53048300   1.329   5.938   0.675  0.4416 -1.1106 -0.4363
   86MOL   H53148301   1.268   6.048   0.452 -0.4859 -0.4755  1.0457
   86MOL   H53248302   1.655   6.217   0.416  0.0590  1.2641  2.1739
   86MOL   H53348303   1.727   6.101   0.628 -0.9174  0.6086  1.3179
   86MOL   O53448304   1.516   6.203   0.202  0.2056 -0.4018 -0.2042
   86MOL   C53548305   1.501   6.251   0.063 -0.5046 -0.3451  0.1298
   86MOL   C53648306   1.437   6.392   0.054  0.2611  0.1152  0.5735
   86MOL   C53748307   1.505   6.496   0.138  0.3981  0.4493 -0.0129
   86MOL   C53848308   1.472   6.636   0.104 -0.5139  0.0048  0.5995
   86MOL   O53948309   1.554   6.685   0.002  0.3845 -0.3915 -0.0826
   86MOL   C54048310   1.663   6.769   0.040  0.0470  0.0539  0.1381
   86MOL   O54148311   1.690   6.808   0.151  0.1805  0.0542  0.3439
   86MOL   C54248312   1.720   6.827   8.017  0.5125 -0.2774 -0.4405
   86MOL   C54348313   1.656   6.810   7.892 -0.1660  0.1748 -0.5417
   86MOL   C54448314   1.716   6.872   7.783  0.5372  0.4159 -0.1388
   86MOL   C54548315   1.841   6.936   7.793 -0.3942 -0.8350  0.3005
   86MOL   C54648316   1.888   6.999   7.664 -0.2794  0.3506  0.0267
   86MOL   O54748317   1.998   7.052   7.648  0.1193 -0.0105 -0.4520
   86MOL   C54848318   1.909   6.951   7.918 -0.0643  0.3745 -0.1788
   86MOL   C54948319   1.836   6.900   8.031  0.1493  0.2270 -0.1709
   86MOL   H55048320   1.599   6.235   0.019  0.4870  0.6914  1.8927
   86MOL   H55148321   1.431   6.188   0.007  1.9147 -1.2993 -1.9142
   86MOL   H55248322   1.333   6.381   0.084  0.3183 -1.1952  0.3180
   86MOL   H55348323   1.433   6.434   8.052  0.5268 -1.5637 -0.1538
   86MOL   H55448324   1.475   6.470   0.240 -0.3110 -0.3382 -0.4171
   86MOL   H55548325   1.612   6.476   0.141  0.4453  0.6244 -0.5497
   86MOL   H55648326   1.366   6.661   0.091 -0.5485  0.3930  1.6096
   86MOL   H55748327   1.496   6.698   0.191 -2.1320  1.4741  0.0396
   86MOL   H55848328   1.571   6.745   7.882 -0.4787  0.4499  0.2687
   86MOL   H55948329   1.655   6.860   7.695  1.6401 -0.9756 -0.7259
   86MOL   H56048330   2.002   6.995   7.950 -0.3193 -0.4767  1.8348
   86MOL   H56148331   1.867   6.908   0.036  1.5693  1.5812 -0.6859
   86MOL   H56248332   1.811   7.000   7.587 -0.4748  0.3304  0.2234
   87MOL     O148333   3.835   1.367   5.896  0.6287  0.8914  0.0214
   87MOL     C248334   3.708   1.430   5.883  0.5499 -0.2632 -0.1995
   87MOL     C348335   3.719   1.543   5.777  0.0268 -0.0757 -0.1687
   87MOL     C448336   3.603   1.633   5.792  0.2831 -0.2208  0.4398
   87MOL     C548337   3.579   1.726   5.680 -0.0926 -0.0770 -0.2066
   87MOL     O648338   3.560   1.649   5.565 -0.0573 -0.2264 -0.2298
   87MOL     C748339   3.594   1.693   5.442 -0.9217 -0.2299 -0.4068
   87MOL     O848340   3.678   1.783   5.424 -0.3492  0.0354 -0.5896
   87MOL     C948341   3.519   1.617   5.338  0.0383 -0.7524 -0.5595
   87MOL    C1048342   3.557   1.642   5.204 -0.8465 -0.0007 -0.7471
   87MOL    C1148343   3.481   1.591   5.102  0.2619  0.4726 -0.1660
   87MOL    C1248344   3.371   1.506   5.122 -0.0257 -0.6124  0.6096
   87MOL    C1348345   3.305   1.427   5.019  0.9237 -0.3200 -1.0814
   87MOL    O1448346   3.226   1.336   5.038  0.0624 -0.1880 -0.3549
   87MOL    C1548347   3.335   1.481   5.257  0.7442  0.1253 -0.8112
   87MOL    C1648348   3.408   1.532   5.363 -0.4535  0.6807  0.4324
   87MOL    H1748349   3.641   1.351   5.847 -0.5186 -0.4691  2.1090
   87MOL    H1848350   3.675   1.467   5.980 -0.9770 -0.6764 -0.5518
   87MOL    H1948351   3.711   1.493   5.681 -0.0254  0.1294 -0.2715
   87MOL    H2048352   3.807   1.607   5.780 -0.7590  1.1419 -1.9076
   87MOL    H2148353   3.510   1.576   5.794 -1.5588  2.6028 -0.9973
   87MOL    H2248354   3.606   1.701   5.878 -0.6803  0.3631  0.0285
   87MOL    H2348355   3.490   1.786   5.696  0.6014  0.4111  2.1403
   87MOL    H2448356   3.644   1.813   5.675  2.5222 -1.8532  1.2013
   87MOL    H2548357   3.638   1.711   5.185 -0.4865  0.0616  0.9463
   87MOL    H2648358   3.514   1.606   5.001  0.4679 -1.0133 -0.3348
   87MOL    H2748359   3.245   1.425   5.279 -0.5420  2.2941 -0.4704
   87MOL    H2848360   3.384   1.506   5.466 -1.0214  1.1823  0.4268
   87MOL    H2948361   3.901   1.419   5.939 -0.1607  2.3673 -0.5020
   87MOL    O3048362   3.327   1.472   4.893 -0.1291  1.0926 -0.0860
   87MOL    C3148363   3.262   1.409   4.787 -0.2240  0.4687 -0.4708
   87MOL    C3248364   3.263   1.499   4.665  0.5043 -0.1295  0.9808
   87MOL    C3348365   3.163   1.617   4.688 -0.7349  0.6381 -0.1096
   87MOL    C3448366   3.099   1.655   4.557 -0.0936  0.5763  0.1327
   87MOL    O3548367   3.010   1.762   4.585  0.0650  0.0383  0.4564
   87MOL    C3648368   2.944   1.815   4.475  0.4886  0.6821 -0.6606
   87MOL    O3748369   2.952   1.762   4.361  0.2065 -0.5105  0.1540
   87MOL    C3848370   2.853   1.934   4.506 -0.3036  1.0606  0.0593
   87MOL    C3948371   2.835   1.983   4.637 -0.7259 -0.0927  0.0809
   87MOL    C4048372   2.767   2.107   4.670 -0.1677 -0.0541 -0.3801
   87MOL    C4148373   2.696   2.169   4.561 -0.7444  1.1003  0.1959
   87MOL    C4248374   2.622   2.295   4.584 -0.0626  0.1791 -0.2811
   87MOL    O4348375   2.564   2.355   4.493 -0.4284  0.0858  0.2387
   87MOL    C4448376   2.707   2.112   4.429  0.0648  0.5047  0.1534
   87MOL    C4548377   2.780   1.990   4.398  0.8281  0.2757 -0.3164
   87MOL    H4648378   3.295   1.306   4.779  0.9960  0.8910 -0.9477
   87MOL    H4748379   3.156   1.396   4.813  0.1570 -1.6930  0.0641
   87MOL    H4848380   3.228   1.445   4.577  0.1639 -1.7961  2.1081
   87MOL    H4948381   3.364   1.530   4.636 -0.2682 -0.5916 -2.4042
   87MOL    H5048382   3.085   1.575   4.752 -0.1825  0.6258  0.5522
   87MOL    H5148383   3.199   1.708   4.734  0.0184 -0.0133  0.5926
   87MOL    H5248384   3.175   1.689   4.487  0.2549  1.0340  0.7258
   87MOL    H5348385   3.044   1.568   4.521  0.9881 -0.1252  0.1360
   87MOL    H5448386   2.887   1.928   4.715 -1.6126 -0.4996  0.3873
   87MOL    H5548387   2.766   2.145   4.770 -0.4812 -0.1149 -0.3585
   87MOL    H5648388   2.650   2.171   4.359  2.1225  2.3443 -0.0289
   87MOL    H5748389   2.786   1.954   4.296  1.1458 -1.8771  0.4396
   87MOL    O5848390   2.618   2.334   4.713 -0.2163  0.0873 -0.6418
   87MOL    C5948391   2.540   2.440   4.758 -0.2512 -0.1024  0.7284
   87MOL    C6048392   2.597   2.500   4.890 -0.0824  0.2787  0.4290
   87MOL    C6148393   2.490   2.582   4.963  0.7313 -0.3387 -0.5674
   87MOL    C6248394   2.524   2.605   5.110 -0.6225 -0.2989  0.4292
   87MOL    O6348395   2.441   2.706   5.161  0.1764 -0.0489  0.2717
   87MOL    C6448396   2.481   2.838   5.157 -0.6902  0.2323 -1.1501
   87MOL    O6548397   2.595   2.870   5.121  0.2356  0.1450  0.1543
   87MOL    C6648398   2.379   2.934   5.210  0.6616  0.1699 -0.0846
   87MOL    C6748399   2.261   2.890   5.272  0.2913 -0.7786 -0.1035
   87MOL    C6848400   2.173   2.985   5.328  0.0215 -0.0991 -0.0046
   87MOL    C6948401   2.195   3.121   5.312 -0.3448 -0.7023 -0.7698
   87MOL    C7048402   2.099   3.221   5.371  0.6272  0.0521  0.2425
   87MOL    O7148403   2.033   3.196   5.474 -0.1077 -0.0180  0.8796
   87MOL    C7248404   2.311   3.162   5.241  0.0428 -0.3623 -1.0773
   87MOL    C7348405   2.400   3.069   5.188  0.2981  0.0150 -0.2302
   87MOL    H7448406   2.535   2.515   4.679 -2.1617 -1.3237 -0.3255
   87MOL    H7548407   2.441   2.396   4.766 -1.0441  1.8633  2.0908
   87MOL    H7648408   2.694   2.549   4.881 -0.7815  1.7490  0.7604
   87MOL    H7748409   2.623   2.412   4.949  1.9157 -0.6390 -1.7579
   87MOL    H7848410   2.477   2.685   4.928  1.4292  0.1657  0.6264
   87MOL    H7948411   2.393   2.534   4.952  0.2479  0.4342  0.2199
   87MOL    H8048412   2.504   2.510   5.160 -0.7690 -1.0655 -1.0474
   87MOL    H8148413   2.630   2.630   5.116 -0.5125 -0.4640 -0.6951
   87MOL    H8248414   2.231   2.788   5.288  0.8027 -0.7612  1.0336
   87MOL    H8348415   2.084   2.950   5.378 -0.0594  0.0585 -0.0363
   87MOL    H8448416   2.341   3.265   5.227 -1.8446  0.2700 -0.6226
   87MOL    H8548417   2.490   3.098   5.136  1.0611  0.4488  1.3108
   87MOL    O8648418   2.084   3.321   5.294  0.0165 -0.4551  0.2539
   87MOL    C8748419   2.007   3.427   5.339  0.1009  0.0161  0.5716
   87MOL    C8848420   2.087   3.536   5.404 -0.1194  0.1023 -0.1007
   87MOL    C8948421   2.003   3.651   5.461 -0.1136 -0.1923  0.0659
   87MOL    C9048422   1.962   3.729   5.341 -0.8162 -0.4538 -0.3181
   87MOL    O9148423   1.853   3.812   5.375  0.5013 -0.8925 -0.0030
   87MOL    C9248424   1.730   3.762   5.364 -0.0749  0.1594  0.0176
   87MOL    O9348425   1.715   3.642   5.332 -0.2936  0.1241 -0.1039
   87MOL    C9448426   1.624   3.856   5.394  0.3913  0.1729  0.4087
   87MOL    C9548427   1.640   3.983   5.447  0.1159  0.3628 -0.4206
   87MOL    C9648428   1.532   4.070   5.467 -0.0098 -0.0313 -0.4125
   87MOL    C9748429   1.400   4.024   5.434  0.6191 -1.1400  0.0679
   87MOL    C9848430   1.290   4.114   5.464 -0.3839  0.2970 -0.3338
   87MOL    O9948431   1.304   4.205   5.544 -0.1169  0.5581  0.3400
   87MOL   C10048432   1.390   3.903   5.367  0.3617  0.7029 -0.1905
   87MOL   C10148433   1.497   3.810   5.357  1.0212  0.4483  0.4982
   87MOL   H10248434   1.933   3.467   5.269  0.3971  1.3087  0.9791
   87MOL   H10348435   1.933   3.389   5.410 -2.0950 -0.3252 -1.8106
   87MOL   H10448436   2.152   3.564   5.321 -0.4340 -0.5445 -0.5696
   87MOL   H10548437   2.148   3.495   5.485  0.3365 -0.0140 -0.5010
   87MOL   H10648438   1.916   3.602   5.505 -2.0044  1.2967 -1.9224
   87MOL   H10748439   2.049   3.709   5.541 -1.9399  0.7571  0.4490
   87MOL   H10848440   2.038   3.799   5.307 -1.1659  0.8638  1.5560
   87MOL   H10948441   1.941   3.663   5.257 -2.1501 -1.1781  0.5599
   87MOL   H11048442   1.739   4.019   5.468  0.2676  0.0418 -0.5788
   87MOL   H11148443   1.545   4.163   5.520  0.6756  0.6195 -1.7125
   87MOL   H11248444   1.295   3.880   5.321  0.9160 -1.2166 -0.4378
   87MOL   H11348445   1.478   3.710   5.320  0.2136  0.3486  1.1751
   87MOL   O11448446   1.184   4.101   5.382 -0.0627  1.0292  0.2324
   87MOL   C11548447   1.080   4.203   5.378  0.0190  0.5016 -0.1058
   87MOL   C11648448   0.979   4.174   5.487 -0.4358  0.4150 -0.6640
   87MOL   C11748449   0.870   4.284   5.504 -0.2819 -0.1924 -0.2865
   87MOL   C11848450   0.759   4.240   5.602 -0.6336 -0.0648 -0.5418
   87MOL   O11948451   0.695   4.121   5.571  0.0960  0.7212  0.0597
   87MOL   C12048452   0.571   4.084   5.606  0.2014  0.1575  0.3835
   87MOL   O12148453   0.494   4.158   5.675  0.4803  0.1040  0.5449
   87MOL   C12248454   0.531   3.945   5.567 -0.2066  0.5542  0.0543
   87MOL   C12348455   0.400   3.904   5.552 -0.0176 -0.0479 -0.1540
   87MOL   C12448456   0.376   3.771   5.525 -0.3306 -0.3647 -0.0061
   87MOL   C12548457   0.478   3.674   5.514  0.8178  0.5721  0.0840
   87MOL   C12648458   0.449   3.527   5.485 -0.0085  0.8369 -0.0495
   87MOL   O12748459   0.340   3.474   5.460  0.3833 -0.3534 -0.3405
   87MOL   C12848460   0.611   3.716   5.535  0.6669 -0.1033  0.0155
   87MOL   C12948461   0.636   3.855   5.553 -0.0116  0.7202  0.2879
   87MOL   H13048462   1.119   4.301   5.405  0.3034  0.6118 -0.9219
   87MOL   H13148463   1.036   4.196   5.279  0.2711 -1.6316 -0.0966
   87MOL   H13248464   1.032   4.153   5.580  2.8635 -1.4774 -2.8787
   87MOL   H13348465   0.932   4.077   5.471  1.0635 -0.6365  1.0902
   87MOL   H13448466   0.918   4.379   5.526  0.3245 -0.7936  1.0298
   87MOL   H13548467   0.827   4.309   5.407 -0.5371 -1.0043 -0.3927
   87MOL   H13648468   0.796   4.235   5.704  1.8739 -0.1496 -1.4095
   87MOL   H13748469   0.684   4.319   5.602  0.7318  1.2972  1.2641
   87MOL   H13848470   0.328   3.982   5.574  0.1464  0.0170  0.1542
   87MOL   H13948471   0.271   3.754   5.504 -0.8713  1.9540  0.6798
   87MOL   H14048472   0.698   3.657   5.509  1.2554  1.2828 -1.2019
   87MOL   H14148473   0.739   3.886   5.561 -0.0576  0.3983  2.2773
   87MOL   O14248474   0.567   3.471   5.480 -0.7283 -0.0200  0.3401
   87MOL   C14348475   0.589   3.340   5.422  0.2452  0.0449  0.3833
   87MOL   C14448476   0.654   3.336   5.289  0.7401 -0.2157  0.4598
   87MOL   C14548477   0.564   3.367   5.166  0.4338 -0.2178 -0.4268
   87MOL   C14648478   0.451   3.263   5.163  0.8817 -0.9810  1.0475
   87MOL   O14748479   0.422   3.233   5.025  0.5769  0.4084 -0.1585
   87MOL   C14848480   0.318   3.286   4.966 -0.9746  0.8896 -0.4602
   87MOL   O14948481   0.260   3.383   5.007 -0.3421  0.3835 -0.1990
   87MOL   C15048482   0.286   3.225   4.830 -0.3864 -0.2714 -0.7763
   87MOL   C15148483   0.218   3.304   4.740  0.1109  0.7576 -0.0837
   87MOL   C15248484   0.208   3.257   4.607  0.7284  0.3880  0.1241
   87MOL   C15348485   0.235   3.122   4.575  0.4024 -0.2217  0.4513
   87MOL   C15448486   0.205   3.064   4.439  0.1115  0.2454  0.3915
   87MOL   O15548487   0.171   3.139   4.349  0.5736 -0.4318  0.2439
   87MOL   C15648488   0.297   3.041   4.672  0.4473  0.2830  0.3759
   87MOL   C15748489   0.326   3.091   4.801 -0.3720 -0.9238  0.4423
   87MOL   H15848490   0.654   3.291   5.494  1.0643 -1.2692 -1.2239
   87MOL   H15948491   0.492   3.293   5.428 -0.2396  1.0820  0.8809
   87MOL   H16048492   0.699   3.238   5.274  0.3263 -0.1701 -1.1534
   87MOL   H16148493   0.735   3.408   5.284 -0.0833  0.5970 -1.5068
   87MOL   H16248494   0.517   3.465   5.171  0.1115 -0.4447  1.7519
   87MOL   H16348495   0.621   3.348   5.075  1.1376  1.9760 -0.4671
   87MOL   H16448496   0.473   3.168   5.213 -0.4295 -2.2442 -0.6943
   87MOL   H16548497   0.358   3.301   5.206  0.6865  0.6775 -0.7948
   87MOL   H16648498   0.200   3.406   4.770 -0.4413  0.4478  0.6709
   87MOL   H16748499   0.162   3.325   4.537  1.0254 -0.8472 -1.2967
   87MOL   H16848500   0.325   2.940   4.645  0.8295  0.3867  0.3856
   87MOL   H16948501   0.384   3.037   4.874  0.4326  1.0518  1.3222
   87MOL   O17048502   0.221   2.926   4.431  0.1313  0.3147  0.3807
   87MOL   C17148503   0.198   2.854   4.311 -0.0828 -0.0841 -0.4087
   87MOL   C17248504   0.328   2.817   4.239  0.2776 -0.2320  0.2614
   87MOL   C17348505   0.398   2.683   4.286  0.2198 -0.5223 -0.3606
   87MOL   C17448506   0.411   2.658   4.439  0.1123 -0.0437  0.1989
   87MOL   O17548507   0.287   2.639   4.511  0.5990  0.4249 -0.7282
   87MOL   C17648508   0.277   2.663   4.644 -0.1310  0.2692  0.0005
   87MOL   O17748509   0.372   2.699   4.716  0.3383 -0.3817  0.1420
   87MOL   C17848510   0.140   2.628   4.691 -0.2368 -0.9463  0.2067
   87MOL   C17948511   0.102   2.652   4.825 -0.0231  0.0972 -0.3777
   87MOL   C18048512   8.084   2.600   4.882  0.6643  0.1876 -0.5879
   87MOL   C18148513   7.992   2.536   4.797  0.5617  0.8940 -0.3306
   87MOL   C18248514   7.857   2.497   4.847  0.5070  0.7221 -0.5324
   87MOL   O18348515   7.789   2.415   4.785 -0.1499  0.2478 -0.1194
   87MOL   C18448516   8.032   2.503   4.661 -0.2123 -0.8309  0.2994
   87MOL   C18548517   0.056   2.551   4.607  1.1026  0.3150 -0.3359
   87MOL   H18648518   0.148   2.760   4.333 -1.0012  0.6923  0.8931
   87MOL   H18748519   0.132   2.914   4.247  1.7449 -0.9540 -3.2073
   87MOL   H18848520   0.386   2.909   4.241 -0.8627  0.4964 -0.0592
   87MOL   H18948521   0.296   2.807   4.135 -1.1391 -3.2896  0.9103
   87MOL   H19048522   0.342   2.601   4.241  1.3048  0.0613 -2.8557
   87MOL   H19148523   0.494   2.689   4.236  0.5301  2.7344  0.4611
   87MOL   H19248524   0.477   2.577   4.469 -2.6267 -3.8420 -3.4176
   87MOL   H19348525   0.462   2.744   4.481  1.3933  0.9743 -3.2854
   87MOL   H19448526   0.162   2.716   4.888 -2.0467  1.2743  0.4085
   87MOL   H19548527   8.060   2.616   4.986 -0.7012 -0.5171 -0.7827
   87MOL   H19648528   7.962   2.442   4.606  1.1297 -1.3534 -0.8511
   87MOL   H19748529   0.076   2.519   4.506  1.7801  1.2348 -0.5017
   87MOL   O19848530   7.818   2.556   4.964  0.3862  0.3446 -0.4331
   87MOL   C19948531   7.687   2.528   5.011  1.1637 -0.1584  0.0363
   87MOL   C20048532   7.704   2.532   5.166  0.2972  0.0825 -0.1400
   87MOL   C20148533   7.650   2.663   5.231  0.1461 -0.9429  0.0616
   87MOL   C20248534   7.739   2.782   5.191  0.2006  0.3515 -0.4865
   87MOL   O20348535   7.695   2.903   5.258 -0.2425  0.3315  0.0037
   87MOL   C20448536   7.749   3.024   5.241 -0.0947 -0.4608 -0.8221
   87MOL   O20548537   7.845   3.044   5.168 -0.7550 -0.9124  0.5724
   87MOL   C20648538   7.698   3.127   5.326 -0.0988 -0.3094  0.4732
   87MOL   C20748539   7.586   3.108   5.409 -0.0237 -0.2352  0.1854
   87MOL   C20848540   7.529   3.209   5.481 -0.1713  0.3668 -0.0989
   87MOL   C20948541   7.588   3.336   5.473 -0.1823  0.3291 -0.1847
   87MOL   C21048542   7.538   3.440   5.565  0.1396  0.2993  0.3818
   87MOL   O21148543   7.426   3.440   5.622 -0.3793  0.3916  0.5300
   87MOL   C21248544   7.698   3.364   5.390  0.0413  0.6059  0.8864
   87MOL   C21348545   7.754   3.257   5.319 -0.1120  0.2328 -0.2649
   87MOL   H21448546   7.609   2.597   4.981  4.5242  2.4461 -3.2366
   87MOL   H21548547   7.655   2.428   4.982  2.6475 -1.0870  1.5002
   87MOL   H21648548   7.805   2.505   5.196  0.6021 -1.3154 -2.3093
   87MOL   H21748549   7.639   2.455   5.207  2.2617  0.0160  2.9804
   87MOL   H21848550   7.547   2.674   5.196  1.0286  0.8513 -2.1405
   87MOL   H21948551   7.649   2.657   5.340  1.6135  2.0041  0.2821
   87MOL   H22048552   7.840   2.782   5.232 -0.6763 -0.3199  1.7650
   87MOL   H22148553   7.743   2.798   5.083  2.5399  0.5280 -0.3999
   87MOL   H22248554   7.537   3.011   5.409  0.8437 -0.7057 -2.0542
   87MOL   H22348555   7.455   3.182   5.555  1.6078 -0.7680  1.3023
   87MOL   H22448556   7.732   3.466   5.384  0.5154  0.3208 -1.6965
   87MOL   H22548557   7.849   3.258   5.267 -0.5485 -0.8270 -1.1105
   87MOL   O22648558   7.631   3.531   5.588  0.6570  0.0562  0.1932
   87MOL   C22748559   7.620   3.631   5.677 -0.9253  0.3496 -0.0782
   87MOL   C22848560   7.754   3.705   5.685 -0.0913 -0.2173  0.7032
   87MOL   C22948561   7.804   3.748   5.544  0.6048 -0.3857  0.7001
   87MOL   C23048562   7.931   3.830   5.542  0.0204 -0.2294  0.4456
   87MOL   O23148563   7.900   3.959   5.595  0.0886 -0.0178  0.2620
   87MOL   C23248564   7.991   4.023   5.672  0.4757  0.0507  0.8522
   87MOL   O23348565   0.010   3.993   5.668 -0.4087 -0.2060  0.2580
   87MOL   C23448566   7.932   4.147   5.739 -0.4958  0.3054  0.4505
   87MOL   C23548567   7.798   4.182   5.747  0.1946  0.3224  0.1699
   87MOL   C23648568   7.744   4.287   5.834  0.0802 -0.4564 -0.2521
   87MOL   C23748569   7.829   4.350   5.928 -0.4290 -0.4840 -0.4173
   87MOL   C23848570   7.779   4.455   6.022  0.8027  0.0634  0.3021
   87MOL   O23948571   7.856   4.527   6.087  0.2436  0.4746 -0.3887
   87MOL   C24048572   7.967   4.319   5.919 -0.3213 -0.4888 -0.5113
   87MOL   C24148573   8.013   4.217   5.829 -0.4727 -0.6806 -0.4729
   87MOL   H24248574   7.537   3.692   5.643 -0.8999  1.3545  1.6150
   87MOL   H24348575   7.617   3.590   5.778  3.6999 -0.2528 -0.0412
   87MOL   H24448576   7.829   3.636   5.724  0.6795  0.2480  0.0616
   87MOL   H24548577   7.747   3.791   5.751  0.5868  1.7295 -1.6837
   87MOL   H24648578   7.830   3.656   5.492  1.3434 -0.4666  1.2140
   87MOL   H24748579   7.725   3.800   5.489  2.0367 -1.2699 -2.2748
   87MOL   H24848580   8.006   3.773   5.597  0.4608  0.9813  1.1309
   87MOL   H24948581   7.963   3.846   5.439 -0.0036  0.6612  0.5726
   87MOL   H25048582   7.724   4.135   5.684 -1.3846 -0.3554  2.4575
   87MOL   H25148583   7.637   4.304   5.830 -0.0299 -1.2300 -0.6151
   87MOL   H25248584   8.028   4.363   5.997 -0.3607 -0.0839 -0.7028
   87MOL   H25348585   0.015   4.179   5.830 -0.1081  0.1922  2.7161
   87MOL   O25448586   7.643   4.456   6.029  0.6574  1.2596 -0.5116
   87MOL   C25548587   7.582   4.536   6.131  0.4874  0.1133 -0.6832
   87MOL   C25648588   7.476   4.454   6.200  0.1963  0.4987 -0.6589
   87MOL   C25748589   7.424   4.527   6.322  0.7235  0.1681  0.2385
   87MOL   C25848590   7.315   4.445   6.397  0.3385  0.3783 -0.4470
   87MOL   O25948591   7.209   4.399   6.324  0.3200  0.0772  0.0851
   87MOL   C26048592   7.113   4.324   6.387  0.5201  0.3844  0.8571
   87MOL   O26148593   7.110   4.307   6.509 -0.3866  0.4250 -0.1922
   87MOL   C26248594   7.026   4.251   6.288  0.0066  0.2926  0.4014
   87MOL   C26348595   7.028   4.279   6.150 -1.1465 -0.1966  0.0596
   87MOL   C26448596   6.928   4.230   6.067 -0.2607  0.6080  0.2400
   87MOL   C26548597   6.843   4.125   6.113  0.4935 -0.7997  0.9085
   87MOL   C26648598   6.745   4.061   6.026  0.2617  0.2840 -0.6992
   87MOL   O26748599   6.683   3.962   6.067  0.0704 -0.1993 -0.2016
   87MOL   C26848600   6.840   4.092   6.247 -0.2486 -0.5336 -0.4542
   87MOL   C26948601   6.931   4.155   6.336  0.4479  0.1594  0.2320
   87MOL   H27048602   7.643   4.570   6.215 -0.3766 -0.0945  0.0298
   87MOL   H27148603   7.528   4.617   6.083  1.4528  2.0640  1.4144
   87MOL   H27248604   7.513   4.357   6.232 -1.5134 -0.4369 -1.4194
   87MOL   H27348605   7.395   4.435   6.129  1.1979 -0.3827 -1.5982
   87MOL   H27448606   7.498   4.551   6.398 -0.3496 -0.3524  1.4666
   87MOL   H27548607   7.385   4.620   6.279  0.8902 -0.2412 -0.8074
   87MOL   H27648608   7.368   4.368   6.452  2.1670  0.9897 -1.3099
   87MOL   H27748609   7.272   4.499   6.482  0.2352  1.1440 -0.9736
   87MOL   H27848610   7.097   4.351   6.108  1.7786 -2.8598  0.1868
   87MOL   H27948611   6.928   4.262   5.964 -0.2233  1.6255  0.5518
   87MOL   H28048612   6.772   4.018   6.287 -2.3440  1.1192 -0.8731
   87MOL   H28148613   6.920   4.139   6.443  1.2509  0.9555  0.4426
   87MOL   O28248614   6.732   4.117   5.905  0.1594  0.7259 -0.1123
   87MOL   C28348615   6.654   4.046   5.815  0.1787 -0.1114  0.4879
   87MOL   C28448616   6.667   4.110   5.671 -0.1527 -0.6079 -0.3383
   87MOL   C28548617   6.809   4.133   5.616  0.2294 -0.1479 -0.6237
   87MOL   C28648618   6.791   4.182   5.471  0.2034 -0.4620  1.3484
   87MOL   O28748619   6.911   4.228   5.398  0.4230  0.2220  0.0306
   87MOL   C28848620   6.907   4.230   5.263 -0.0837  0.8699 -0.0060
   87MOL   O28948621   6.815   4.193   5.192  0.7447 -0.1683 -0.0265
   87MOL   C29048622   7.035   4.292   5.217  0.7221  0.4291  0.0810
   87MOL   C29148623   7.068   4.271   5.078 -0.8109  0.5101 -0.7716
   87MOL   C29248624   7.186   4.333   5.021 -0.7265  0.2386  0.6881
   87MOL   C29348625   7.255   4.424   5.099 -0.5728 -0.3325  0.3976
   87MOL   C29448626   7.374   4.483   5.044  0.2131 -0.0829  0.2556
   87MOL   O29548627   7.424   4.581   5.105  0.1991 -0.5354  0.2491
   87MOL   C29648628   7.222   4.443   5.233  0.2790 -0.0368 -0.8862
   87MOL   C29748629   7.115   4.375   5.295  0.8694  0.0301 -0.4881
   87MOL   H29848630   6.682   3.941   5.813  0.1795 -0.0919 -0.6240
   87MOL   H29948631   6.553   4.046   5.855 -0.4651  0.2948 -1.1071
   87MOL   H30048632   6.603   4.195   5.651 -0.8307 -1.5939 -2.4898
   87MOL   H30148633   6.621   4.040   5.601 -1.9832 -0.3165  0.5521
   87MOL   H30248634   6.861   4.198   5.685 -1.2323 -1.7046  2.0416
   87MOL   H30348635   6.844   4.030   5.624 -0.7667 -0.5815 -1.6590
   87MOL   H30448636   6.762   4.089   5.421 -0.2825 -0.0473  0.8477
   87MOL   H30548637   6.708   4.252   5.457 -0.0660 -1.2822 -1.4961
   87MOL   H30648638   7.001   4.216   5.013 -0.6636 -1.6284  0.8622
   87MOL   H30748639   7.198   4.321   4.914  1.0554 -3.2635  1.2035
   87MOL   H30848640   7.272   4.514   5.297  0.8664 -0.2567 -1.0963
   87MOL   H30948641   7.074   4.412   5.388 -1.7380  1.1760 -2.0464
   87MOL   O31048642   7.411   4.436   4.927 -0.0979  0.3061 -0.6762
   87MOL   C31148643   7.500   4.508   4.845  0.1647  0.4095  0.2500
   87MOL   C31248644   7.640   4.457   4.871 -0.1743 -0.2380 -0.4825
   87MOL   C31348645   7.737   4.496   4.760  0.3481 -0.6290 -0.0102
   87MOL   C31448646   7.877   4.430   4.776  0.2522 -0.2137 -0.3260
   87MOL   O31548647   7.960   4.448   4.663 -0.4575  0.0741 -0.0367
   87MOL   C31648648   7.947   4.368   4.551  0.8419  0.6751  0.1977
   87MOL   O31748649   7.878   4.266   4.545  0.4791 -0.4136  0.7053
   87MOL   C31848650   8.020   4.411   4.425  0.2957 -0.2667  0.8050
   87MOL   C31948651   8.085   4.535   4.421  0.9932  1.0522  0.6846
   87MOL   C32048652   0.058   4.579   4.306 -0.1496  0.1796  0.2881
   87MOL   C32148653   0.050   4.514   4.184  0.0090  0.0453 -0.1737
   87MOL   C32248654   0.117   4.564   4.062  0.3085 -0.3022  0.4685
   87MOL   O32348655   0.172   4.677   4.060 -0.6444  0.0113 -0.0900
   87MOL   C32448656   8.070   4.395   4.178 -0.8557  1.3021  0.8369
   87MOL   C32548657   8.014   4.340   4.298  0.0809 -0.1794 -0.0203
   87MOL   H32648658   7.477   4.480   4.742 -0.3883 -0.5929  0.6379
   87MOL   H32748659   7.488   4.616   4.859  0.5407  0.4340  0.3809
   87MOL   H32848660   7.643   4.348   4.867  0.7866 -0.1578 -2.1988
   87MOL   H32948661   7.681   4.489   4.967 -0.5121  0.3875 -0.5399
   87MOL   H33048662   7.687   4.467   4.668  1.3356 -0.1257 -0.7171
   87MOL   H33148663   7.738   4.605   4.761  2.3157 -0.6294  0.1403
   87MOL   H33248664   7.920   4.489   4.858 -2.0057 -0.6389  1.2298
   87MOL   H33348665   7.878   4.323   4.794 -0.8985 -0.5427 -2.1011
   87MOL   H33448666   8.098   4.591   4.513 -1.0378  3.0132 -0.1618
   87MOL   H33548667   0.108   4.674   4.308  0.9165 -0.3670  0.2670
   87MOL   H33648668   8.080   4.332   4.090  0.5273 -1.2477  2.7454
   87MOL   H33748669   7.965   4.243   4.294 -0.0446 -0.1229  0.1289
   87MOL   O33848670   0.112   4.475   3.961  0.0260 -0.2888  0.4004
   87MOL   C33948671   0.179   4.492   3.843  0.1113  0.3092  0.6560
   87MOL   C34048672   0.223   4.360   3.779 -0.4462  0.1927 -0.3581
   87MOL   C34148673   0.276   4.388   3.647  0.4830 -0.3055  0.2515
   87MOL   C34248674   0.296   4.266   3.561  0.0139  0.2630  0.0680
   87MOL   O34348675   0.386   4.166   3.612 -0.2597 -0.1983 -0.6183
   87MOL   C34448676   0.389   4.043   3.562 -0.0691  0.1278  0.0079
   87MOL   O34548677   0.331   4.004   3.466 -0.0924 -0.4263  0.0092
   87MOL   C34648678   0.497   3.965   3.629 -0.0122 -0.0760  0.7926
   87MOL   C34748679   0.546   4.000   3.759  0.9985 -0.2631 -0.3360
   87MOL   C34848680   0.640   3.914   3.820 -0.4232  1.0293  0.6096
   87MOL   C34948681   0.695   3.805   3.750 -0.0377 -0.3059 -0.5778
   87MOL   C35048682   0.784   3.707   3.817 -0.0850 -0.7538  0.0753
   87MOL   O35148683   0.834   3.735   3.926 -0.4039  0.2824  0.4574
   87MOL   C35248684   0.654   3.780   3.620 -0.4089 -0.4839  0.0400
   87MOL   C35348685   0.554   3.858   3.561 -0.3906  0.7443  0.8145
   87MOL   H35448686   0.120   4.559   3.781 -0.2387  0.7519  1.4488
   87MOL   H35548687   0.273   4.545   3.854  0.3594  0.0420 -0.1285
   87MOL   H35648688   0.136   4.296   3.768  0.6204 -0.9905 -2.2371
   87MOL   H35748689   0.302   4.313   3.838  0.6186 -1.6214 -3.1567
   87MOL   H35848690   0.211   4.452   3.587 -0.2350  0.1434  1.4914
   87MOL   H35948691   0.369   4.446   3.655  0.8061 -0.5397 -1.5345
   87MOL   H36048692   0.203   4.210   3.548  0.6612 -1.5199  2.8980
   87MOL   H36148693   0.337   4.309   3.470  1.2309  2.5185  1.6396
   87MOL   H36248694   0.517   4.085   3.818  1.9631  0.1674 -0.4717
   87MOL   H36348695   0.657   3.930   3.925 -0.9606  1.2978  0.6562
   87MOL   H36448696   0.698   3.697   3.566  2.5555 -0.4734  2.3649
   87MOL   H36548697   0.517   3.845   3.461  0.9867 -0.9233  0.4855
   87MOL   O36648698   0.786   3.591   3.756  0.3777 -0.3537 -0.3944
   87MOL   C36748699   0.869   3.481   3.793 -0.7153 -0.3125  0.4020
   87MOL   C36848700   0.968   3.457   3.679  0.4273  0.3031 -0.2831
   87MOL   C36948701   1.090   3.541   3.709 -0.3675 -1.4649 -0.4281
   87MOL   C37048702   1.198   3.534   3.601 -0.6881  0.3199  0.1115
   87MOL   O37148703   1.140   3.594   3.491  0.4857  0.0195 -0.1650
   87MOL   C37248704   1.214   3.626   3.382  0.6221  0.2833  0.2820
   87MOL   O37348705   1.326   3.590   3.369  0.1369 -0.1055 -0.1502
   87MOL   C37448706   1.154   3.708   3.274 -0.2734 -0.5585 -0.4366
   87MOL   C37548707   1.036   3.778   3.292  0.2177  0.3955  0.4570
   87MOL   C37648708   0.978   3.853   3.185  0.6124  0.1354  0.4802
   87MOL   C37748709   1.046   3.862   3.061 -0.4350  0.1057  0.2281
   87MOL   C37848710   0.992   3.947   2.945 -0.1118 -0.8623 -0.1829
   87MOL   O37948711   1.031   3.947   2.828  0.6167  0.9409 -0.7349
   87MOL   C38048712   1.166   3.788   3.046 -0.0404  0.4090 -0.6137
   87MOL   C38148713   1.217   3.715   3.152  0.2277  0.0775  0.3811
   87MOL   H38248714   0.923   3.501   3.885  0.0066  1.1522 -0.3142
   87MOL   H38348715   0.801   3.396   3.792 -2.6287  1.1909 -0.2702
   87MOL   H38448716   0.919   3.475   3.583 -1.0841 -0.7095  0.2866
   87MOL   H38548717   1.002   3.354   3.669  1.6729  0.5869  0.8093
   87MOL   H38648718   1.067   3.646   3.726 -0.2625 -1.1007 -2.4340
   87MOL   H38748719   1.136   3.511   3.803 -1.2287 -1.2017  0.0805
   87MOL   H38848720   1.296   3.567   3.635 -1.0166  0.3552  1.0477
   87MOL   H38948721   1.219   3.430   3.576  1.2364  0.8926 -0.7244
   87MOL   H39048722   0.982   3.767   3.385  1.2360  0.0405  1.0093
   87MOL   H39148723   0.891   3.912   3.208 -0.8527 -2.6066  2.2491
   87MOL   H39248724   1.228   3.792   2.957 -0.3641 -1.2607 -0.9231
   87MOL   H39348725   1.306   3.657   3.136  1.9300  1.8513  3.0445
   87MOL   O39448726   0.894   4.023   2.991 -0.3039  0.1521  0.4269
   87MOL   C39548727   0.819   4.112   2.906  0.3274  0.4990 -1.2121
   87MOL   C39648728   0.703   4.025   2.854 -0.2810  0.4219  0.3455
   87MOL   C39748729   0.727   3.907   2.763 -0.9731  0.0924 -0.1242
   87MOL   C39848730   0.779   3.951   2.626 -0.6128 -0.0565 -0.4089
   87MOL   O39948731   0.751   3.857   2.519  0.3780 -0.0971 -0.3328
   87MOL   C40048732   0.848   3.800   2.447  0.1815 -0.4642 -0.3963
   87MOL   O40148733   0.964   3.811   2.485 -0.5575  0.1983 -0.4384
   87MOL   C40248734   0.801   3.711   2.340 -0.1804  0.2346  0.4814
   87MOL   C40348735   0.668   3.657   2.348 -0.1931 -0.5854 -0.0720
   87MOL   C40448736   0.625   3.571   2.245  0.1013  0.1720  0.3335
   87MOL   C40548737   0.693   3.536   2.134 -0.0113  0.3722 -0.8210
   87MOL   C40648738   0.636   3.436   2.039  1.1484  0.8676 -0.1007
   87MOL   O40748739   0.544   3.366   2.071 -0.0381 -0.0116 -0.2036
   87MOL   C40848740   0.825   3.589   2.124 -0.0445 -0.6911  0.3702
   87MOL   C40948741   0.877   3.675   2.226  0.6083 -0.5210  0.0601
   87MOL   H41048742   0.797   4.192   2.977  3.6141 -0.3656  0.8900
   87MOL   H41148743   0.887   4.153   2.832 -1.7755  2.9848 -1.8248
   87MOL   H41248744   0.628   4.086   2.802  0.4663  1.6420  0.6778
   87MOL   H41348745   0.645   3.983   2.936  0.1171  0.2421  0.5364
   87MOL   H41448746   0.782   3.822   2.803 -4.3401 -1.8918  0.4915
   87MOL   H41548747   0.629   3.866   2.738 -1.5543 -0.2533  2.6247
   87MOL   H41648748   0.734   4.047   2.603 -0.4148 -0.1022 -1.0250
   87MOL   H41748749   0.883   3.985   2.626 -0.7317  0.3468 -2.1051
   87MOL   H41848750   0.611   3.677   2.437  0.5375  3.7385 -0.4853
   87MOL   H41948751   0.530   3.522   2.259 -0.1201  0.0201 -1.5398
   87MOL   H42048752   0.895   3.567   2.044  1.5718 -0.9896  1.8183
   87MOL   H42148753   0.980   3.707   2.225 -0.1424  2.0156 -1.3776
   87MOL   O42248754   0.712   3.419   1.930  0.5639 -0.2010 -0.4084
   87MOL   C42348755   0.674   3.328   1.837 -0.2563 -0.2027 -0.1222
   87MOL   C42448756   0.738   3.341   1.702 -0.4196  0.7811 -0.0816
   87MOL   C42548757   0.649   3.262   1.601  0.3619 -0.0838  0.0899
   87MOL   C42648758   0.698   3.283   1.459  0.5136 -0.3882 -0.4207
   87MOL   O42748759   0.658   3.181   1.373  0.7681  0.0519 -0.4913
   87MOL   C42848760   0.526   3.177   1.339 -0.2786 -0.4993 -0.2398
   87MOL   O42948761   0.439   3.254   1.375  0.3402  0.4950  0.3729
   87MOL   C43048762   0.503   3.061   1.254  0.3191  0.2794  0.2404
   87MOL   C43148763   0.601   3.015   1.160  0.3573 -0.5881  0.4846
   87MOL   C43248764   0.570   2.906   1.079  0.3751  0.1377 -0.6644
   87MOL   C43348765   0.448   2.840   1.094 -0.0920 -0.2495  0.9514
   87MOL   C43448766   0.432   2.713   1.018  0.7479  0.3510 -0.0525
   87MOL   O43548767   0.517   2.664   0.945  0.0828 -0.1037 -0.3523
   87MOL   C43648768   0.350   2.888   1.180  0.2084 -0.7366  0.0975
   87MOL   C43748769   0.376   3.008   1.251  0.4100  0.3155  0.0794
   87MOL   H43848770   0.691   3.226   1.870 -0.4942 -0.2219 -0.0631
   87MOL   H43948771   0.566   3.342   1.835 -0.1840  0.5161  0.8223
   87MOL   H44048772   0.838   3.297   1.708  0.1111  2.0868  0.7339
   87MOL   H44148773   0.752   3.446   1.678  1.5356  0.6776  0.5133
   87MOL   H44248774   0.651   3.159   1.636 -0.1707 -0.5788 -1.3154
   87MOL   H44348775   0.547   3.296   1.619  0.4528  0.8632 -1.1112
   87MOL   H44448776   0.657   3.378   1.424 -1.0535 -0.0399  2.2624
   87MOL   H44548777   0.806   3.285   1.454  0.4987 -0.9108 -0.9687
   87MOL   H44648778   0.695   3.067   1.151 -0.8287  1.3076 -1.6870
   87MOL   H44748779   0.648   2.884   1.008 -0.2082 -0.1448 -1.2125
   87MOL   H44848780   0.252   2.842   1.183 -0.2299  0.1978  0.3227
   87MOL   H44948781   0.292   3.041   1.309  0.0188 -1.2334  0.4201
   87MOL   O45048782   0.313   2.651   1.038  0.0257 -0.4933  0.1866
   87MOL   C45148783   0.293   2.524   0.981  0.1807 -0.9397 -0.2168
   87MOL   C45248784   0.354   2.408   1.068 -0.0491 -0.3158 -0.2415
   87MOL   C45348785   0.324   2.273   1.006  0.2296  0.1506 -0.2957
   87MOL   C45448786   0.380   2.153   1.086  0.1080 -0.1293  0.6036
   87MOL   O45548787   0.301   2.153   1.206  0.1956 -0.0637 -0.5380
   87MOL   C45648788   0.279   2.037   1.275 -0.6341  1.1318 -0.5909
   87MOL   O45748789   0.317   1.923   1.249 -0.2005 -0.5620 -0.2650
   87MOL   C45848790   0.200   2.062   1.400  0.0176  0.4681  0.1469
   87MOL   C45948791   0.181   2.189   1.457  0.0498 -0.1241 -0.1282
   87MOL   C46048792   0.103   2.207   1.574 -0.6514 -0.3608  0.1327
   87MOL   C46148793   0.046   2.097   1.637  0.1577  0.3697 -0.3772
   87MOL   C46248794   8.069   2.108   1.767  0.3467  0.1493  0.2580
   87MOL   O46348795   7.993   2.017   1.807  0.4400 -0.0657 -1.1819
   87MOL   C46448796   0.074   1.967   1.587  0.6349 -0.2647  0.1457
   87MOL   C46548797   0.148   1.953   1.465  0.3642  0.4234 -0.1714
   87MOL   H46648798   0.184   2.517   0.988 -0.1173  2.1926 -1.2984
   87MOL   H46748799   0.344   2.519   0.884  0.5150 -1.4370 -0.0210
   87MOL   H46848800   0.303   2.412   1.165  0.3093 -0.6812 -0.0374
   87MOL   H46948801   0.458   2.430   1.089 -0.1382 -0.8641  0.8383
   87MOL   H47048802   0.216   2.259   1.009 -0.2633  3.6931  0.4273
   87MOL   H47148803   0.367   2.274   0.906 -0.6971 -1.7973 -0.7363
   87MOL   H47248804   0.377   2.058   1.032  1.2683  1.9568 -3.3218
   87MOL   H47348805   0.485   2.175   1.107  0.2109 -0.3622  0.3453
   87MOL   H47448806   0.221   2.279   1.413  2.1633 -0.2968  1.3412
   87MOL   H47548807   0.084   2.309   1.601 -0.1688  0.1303 -1.3515
   87MOL   H47648808   0.031   1.880   1.635  4.4430 -3.0297 -1.1588
   87MOL   H47748809   0.146   1.854   1.422  1.5949 -1.0969  3.1039
   87MOL   O47848810   8.087   2.233   1.826 -0.2517  0.9177 -0.1243
   87MOL   C47948811   7.999   2.271   1.929 -0.2529 -0.1695  0.2187
   87MOL   C48048812   7.862   2.321   1.876 -0.2278 -0.6787  0.6464
   87MOL   C48148813   7.865   2.462   1.821 -0.3492  0.8566 -0.1222
   87MOL   C48248814   7.738   2.504   1.755 -0.5893  0.7254  0.8960
   87MOL   O48348815   7.752   2.619   1.676 -0.1091 -0.3191 -0.7364
   87MOL   C48448816   7.656   2.720   1.688  0.1140 -0.4523  0.2122
   87MOL   O48548817   7.559   2.713   1.758 -0.8936  0.0393 -0.5767
   87MOL   C48648818   7.678   2.832   1.590 -0.2307  0.3646 -0.0331
   87MOL   C48748819   7.806   2.878   1.557  0.5065 -0.6043  0.1537
   87MOL   C48848820   7.821   3.004   1.487 -0.1047  0.6823 -0.5197
   87MOL   C48948821   7.710   3.077   1.449 -0.0620  0.2138  0.7458
   87MOL   C49048822   7.735   3.208   1.379  0.0762 -0.0757  0.5663
   87MOL   O49148823   7.846   3.255   1.369 -0.4447 -0.2279  0.0562
   87MOL   C49248824   7.578   3.027   1.476 -0.0451 -0.3075  0.8700
   87MOL   C49348825   7.562   2.910   1.547  0.1939  0.1808  0.1118
   87MOL   H49448826   7.981   2.178   1.983  1.5453  0.0362  1.2056
   87MOL   H49548827   8.039   2.342   2.001  0.9364  0.1028 -0.6895
   87MOL   H49648828   7.793   2.313   1.960 -0.9355 -4.3504 -0.1770
   87MOL   H49748829   7.825   2.259   1.794 -0.4803  0.1342  0.1454
   87MOL   H49848830   7.893   2.520   1.908 -0.0950 -1.0126  1.0648
   87MOL   H49948831   7.947   2.459   1.749 -0.2705  2.9985 -0.1357
   87MOL   H50048832   7.690   2.429   1.692  1.7560 -0.3842  0.3616
   87MOL   H50148833   7.674   2.526   1.841 -0.6274  1.1302  0.7668
   87MOL   H50248834   7.888   2.817   1.594 -0.1408 -0.6983  1.4369
   87MOL   H50348835   7.923   3.030   1.463  0.1287  0.4134  0.1772
   87MOL   H50448836   7.495   3.093   1.455  0.7696  0.5997  0.4635
   87MOL   H50548837   7.464   2.879   1.577  0.4961 -0.2593  0.6600
   87MOL   O50648838   7.614   3.269   1.334  0.1764 -0.0579  0.4958
   87MOL   C50748839   7.610   3.394   1.284  0.1798 -0.1266  0.3678
   87MOL   C50848840   7.586   3.398   1.138  0.9186 -0.6442 -0.2528
   87MOL   C50948841   7.718   3.365   1.068  0.1290  0.5326  0.2133
   87MOL   C51048842   7.709   3.366   0.914 -0.0669 -1.3222 -0.4227
   87MOL   O51148843   7.658   3.499   0.896 -0.9857 -0.4012  0.9372
   87MOL   C51248844   7.614   3.551   0.777  0.6834  0.6022 -0.0904
   87MOL   O51348845   7.622   3.481   0.676  0.3796 -0.2539  0.5952
   87MOL   C51448846   7.577   3.693   0.786  1.0587 -0.3710  0.7781
   87MOL   C51548847   7.503   3.747   0.888 -0.2288  0.2328  0.0506
   87MOL   C51648848   7.471   3.884   0.883 -0.4180 -0.9774  0.0798
   87MOL   C51748849   7.519   3.969   0.782  0.3068 -0.2020 -0.2038
   87MOL   C51848850   7.478   4.113   0.794  0.2807  0.7044  0.5894
   87MOL   O51948851   7.415   4.169   0.882 -0.7669 -0.2623  0.1040
   87MOL   C52048852   7.606   3.917   0.682  0.0540 -0.0620 -0.5947
   87MOL   C52148853   7.621   3.778   0.677  1.0245 -0.3126  0.2154
   87MOL   H52248854   7.531   3.445   1.339  0.9679  1.0344  0.4490
   87MOL   H52348855   7.700   3.450   1.311  0.8009 -1.0481  0.2360
   87MOL   H52448856   7.541   3.492   1.104 -0.1999 -0.2188  2.3360
   87MOL   H52548857   7.514   3.323   1.104 -1.0850  0.6639  1.0331
   87MOL   H52648858   7.792   3.434   1.109 -0.5824  0.2901  1.9455
   87MOL   H52748859   7.748   3.263   1.095 -1.7934 -0.4131 -1.1538
   87MOL   H52848860   7.808   3.356   0.870  0.1283 -0.5087 -0.1663
   87MOL   H52948861   7.629   3.295   0.890 -3.1720  1.2099  1.9439
   87MOL   H53048862   7.466   3.684   0.967  0.0574  2.0650  1.7071
   87MOL   H53148863   7.408   3.917   0.965 -0.0152 -3.8763  1.6175
   87MOL   H53248864   7.654   3.970   0.601 -0.1989 -0.5844 -1.0864
   87MOL   H53348865   7.664   3.747   0.583  1.5106  0.3408  0.2159
   87MOL   O53448866   7.516   4.183   0.685  0.2049 -0.3337  0.3531
   87MOL   C53548867   7.496   4.328   0.667 -0.2371 -0.1134 -0.3578
   87MOL   C53648868   7.440   4.357   0.522  0.2741  0.6743 -0.7521
   87MOL   C53748869   7.542   4.315   0.419  0.0402  0.0729 -0.4677
   87MOL   C53848870   7.628   4.423   0.353  0.1324 -0.7507  0.0313
   87MOL   O53948871   7.716   4.481   0.444 -0.7034  0.0483  0.5555
   87MOL   C54048872   7.824   4.540   0.393 -0.3331  0.7562 -0.8558
   87MOL   O54148873   7.856   4.531   0.272 -0.4902 -0.0739 -0.0240
   87MOL   C54248874   7.905   4.602   0.504 -0.1630 -0.2553  0.2990
   87MOL   C54348875   7.867   4.599   0.641  0.6389 -0.4651 -0.0469
   87MOL   C54448876   7.943   4.668   0.737  0.2625 -0.3515  0.2198
   87MOL   C54548877   8.042   4.758   0.692  0.3712 -0.1006  0.7060
   87MOL   C54648878   0.020   4.845   0.788  0.6377 -0.0193 -0.0840
   87MOL   O54748879   8.070   4.879   0.895  0.2979  0.0793 -0.2894
   87MOL   C54848880   8.086   4.761   0.556  0.6562 -0.3053 -0.2884
   87MOL   C54948881   8.016   4.683   0.469  0.2025 -0.1899 -0.4335
   87MOL   H55048882   7.424   4.368   0.738  1.4516  2.4840 -0.0483
   87MOL   H55148883   7.591   4.378   0.680 -0.3083  0.1565 -0.8346
   87MOL   H55248884   7.417   4.462   0.503  3.2461  1.6365  0.6719
   87MOL   H55348885   7.348   4.300   0.512  0.0441  0.4879  1.9244
   87MOL   H55448886   7.594   4.227   0.456  0.2059  0.3600 -0.0154
   87MOL   H55548887   7.483   4.273   0.337  0.6782  0.0712 -0.9284
   87MOL   H55648888   7.689   4.364   0.284  0.1134 -0.5958 -0.1187
   87MOL   H55748889   7.571   4.500   0.301 -0.3385  0.0324  1.6655
   87MOL   H55848890   7.773   4.551   0.665  1.5129 -1.1859  1.9746
   87MOL   H55948891   7.911   4.678   0.839  0.3356  0.8385  0.1261
   87MOL   H56048892   0.070   4.820   0.517 -1.6940  2.6700 -0.9754
   87MOL   H56148893   8.057   4.682   0.369 -0.7841  0.3559 -0.8556
   87MOL   H56248894   0.117   4.885   0.758  0.3704  0.3928 -0.4095
   88MOL     O148895   4.781   3.587   7.995  0.0594 -0.0580  0.0449
   88MOL     C248896   4.813   3.594   0.034  0.5140 -0.1291  0.1378
   88MOL     C348897   4.961   3.625   0.048 -0.8346 -0.7415  0.3637
   88MOL     C448898   5.011   3.636   0.193 -0.3093 -0.0621 -0.3058
   88MOL     C548899   5.144   3.561   0.224 -0.7549  0.3379 -0.4019
   88MOL     O648900   5.158   3.534   0.364 -0.3287 -0.5520  0.8739
   88MOL     C748901   5.276   3.485   0.414  1.4080  0.0958  0.3328
   88MOL     O848902   5.377   3.476   0.348 -0.2106  0.3390 -0.1215
   88MOL     C948903   5.250   3.450   0.561 -0.2230 -0.4045  0.3452
   88MOL    C1048904   5.130   3.397   0.609 -0.0060 -0.4671  0.4215
   88MOL    C1148905   5.109   3.368   0.748  0.4463  0.0966 -0.0375
   88MOL    C1248906   5.206   3.405   0.841  0.3397 -0.6712 -0.0950
   88MOL    C1348907   5.178   3.399   0.986 -0.3974  0.2756  0.5471
   88MOL    O1448908   5.256   3.437   1.074 -0.1233  0.2562  0.3764
   88MOL    C1548909   5.336   3.450   0.796  0.1738 -0.7231  0.1505
   88MOL    C1648910   5.358   3.470   0.656  0.3461 -0.4890 -0.0771
   88MOL    H1748911   4.742   3.662   0.083  0.1436  0.7755 -1.6168
   88MOL    H1848912   4.793   3.494   0.073  1.8933 -0.3774  0.2202
   88MOL    H1948913   4.975   3.721   8.096 -0.3304 -0.9506  0.1018
   88MOL    H2048914   5.019   3.552   8.090 -0.7674 -0.3187 -0.1127
   88MOL    H2148915   5.015   3.739   0.229 -1.4510 -0.8890  2.3701
   88MOL    H2248916   4.932   3.600   0.260  0.0100  1.0826  0.7122
   88MOL    H2348917   5.145   3.462   0.176  0.8814  1.0096 -1.8218
   88MOL    H2448918   5.230   3.614   0.183 -0.2459 -0.6968 -0.7038
   88MOL    H2548919   5.060   3.371   0.531  1.0404  1.0283 -1.0382
   88MOL    H2648920   5.014   3.326   0.778  0.5030 -0.5236 -0.7009
   88MOL    H2748921   5.409   3.480   0.870 -1.2167 -0.3784  1.4087
   88MOL    H2848922   5.447   3.527   0.632  0.5797  0.1088  2.0917
   88MOL    H2948923   4.691   3.557   7.996  0.0689 -0.0838  0.3372
   88MOL    O3048924   5.055   3.340   1.013  0.3890 -0.2849 -0.4236
   88MOL    C3148925   5.014   3.338   1.150 -0.0569 -0.9959 -0.4217
   88MOL    C3248926   4.879   3.261   1.168  0.3957  0.0610  0.3352
   88MOL    C3348927   4.839   3.253   1.317 -0.0930  0.1025  0.8189
   88MOL    C3448928   4.711   3.178   1.359  0.4642  0.6249  0.3344
   88MOL    O3548929   4.609   3.233   1.268  0.2240  0.4070  0.2589
   88MOL    C3648930   4.483   3.212   1.313  0.4575 -0.4182  0.4863
   88MOL    O3748931   4.456   3.138   1.410  0.1713 -0.2331  0.4202
   88MOL    C3848932   4.387   3.293   1.233 -0.0761 -0.2157 -0.1147
   88MOL    C3948933   4.247   3.296   1.259  0.0557 -0.1770  0.3231
   88MOL    C4048934   4.161   3.387   1.190  0.3244 -0.0416 -0.0191
   88MOL    C4148935   4.217   3.475   1.096  0.0558 -0.0452 -0.4242
   88MOL    C4248936   4.130   3.571   1.030 -0.4734  0.2603  0.0597
   88MOL    O4348937   4.003   3.567   1.031  0.1908 -0.3350  0.2578
   88MOL    C4448938   4.355   3.472   1.062  0.2572 -0.0903 -0.3155
   88MOL    C4548939   4.434   3.380   1.130  0.0140 -0.1620 -0.0124
   88MOL    H4648940   5.090   3.307   1.221 -0.0260 -2.0231 -0.8946
   88MOL    H4748941   5.000   3.438   1.191 -0.7105 -1.9340  1.7254
   88MOL    H4848942   4.881   3.159   1.130 -0.8739 -0.0739  0.5977
   88MOL    H4948943   4.796   3.297   1.107  0.7081 -1.1382 -0.7961
   88MOL    H5048944   4.925   3.219   1.375  0.9089  0.0526 -0.6552
   88MOL    H5148945   4.821   3.360   1.327  1.4472  0.7033 -1.9971
   88MOL    H5248946   4.725   3.071   1.342 -2.0441  0.4236 -0.6323
   88MOL    H5348947   4.687   3.200   1.463 -0.6529 -0.3788  0.2949
   88MOL    H5448948   4.213   3.244   1.348  1.3325 -0.1356  0.8433
   88MOL    H5548949   4.057   3.389   1.217  1.0694 -1.2530  3.1044
   88MOL    H5648950   4.393   3.531   0.980 -0.7606 -0.5743 -1.1390
   88MOL    H5748951   4.539   3.405   1.123 -0.3676  0.9461 -2.5723
   88MOL    O5848952   4.204   3.658   0.957 -0.3999 -0.5186  0.0681
   88MOL    C5948953   4.144   3.767   0.894 -0.2230 -0.4021 -0.0834
   88MOL    C6048954   4.220   3.807   0.772 -0.3724  0.5288 -0.2980
   88MOL    C6148955   4.357   3.876   0.799 -0.5078 -0.1253  0.2279
   88MOL    C6248956   4.466   3.799   0.864 -0.1452 -0.4888 -0.0641
   88MOL    O6348957   4.515   3.699   0.781 -0.3528  0.7003  0.2100
   88MOL    C6448958   4.601   3.605   0.826  0.0493  0.9865  0.4573
   88MOL    O6548959   4.637   3.597   0.947  0.4228  0.0384  0.0608
   88MOL    C6648960   4.665   3.518   0.716  0.3453  0.1390  0.8600
   88MOL    C6748961   4.639   3.546   0.578  0.0247  0.6587  0.0523
   88MOL    C6848962   4.686   3.460   0.475  0.2866 -0.1014 -0.0006
   88MOL    C6948963   4.744   3.336   0.502 -0.5229 -0.2529  0.4095
   88MOL    C7048964   4.805   3.256   0.394  0.6817  0.2397  0.4120
   88MOL    O7148965   4.819   3.297   0.279 -0.0174  0.0889  0.5057
   88MOL    C7248966   4.774   3.310   0.641 -0.1162 -0.0612  0.0299
   88MOL    C7348967   4.738   3.403   0.743 -1.0729  0.5888 -0.2548
   88MOL    H7448968   4.036   3.757   0.882 -0.2305  1.4909 -1.8769
   88MOL    H7548969   4.147   3.849   0.966 -0.6550  0.5715 -1.1661
   88MOL    H7648970   4.150   3.866   0.712 -0.8585 -0.6528 -0.9210
   88MOL    H7748971   4.241   3.719   0.712 -1.6142 -0.4161  0.6359
   88MOL    H7848972   4.395   3.915   0.704  0.0701 -0.7935  0.1836
   88MOL    H7948973   4.337   3.958   0.868 -0.5080  0.1188 -0.0614
   88MOL    H8048974   4.552   3.859   0.892 -1.3142  1.1590  0.0278
   88MOL    H8148975   4.438   3.764   0.963 -1.3428  1.1559  0.1868
   88MOL    H8248976   4.585   3.635   0.550  0.3116  1.2694  1.4249
   88MOL    H8348977   4.661   3.489   0.374 -1.1216  0.3054  0.4555
   88MOL    H8448978   4.812   3.212   0.663  2.3056  1.7104  4.4941
   88MOL    H8548979   4.757   3.372   0.844  1.6409  0.0822 -0.8746
   88MOL    O8648980   4.851   3.144   0.442 -0.1103  0.0260  0.2786
   88MOL    C8748981   4.937   3.065   0.357  0.0383  0.8979  0.1219
   88MOL    C8848982   5.087   3.085   0.390  0.0515  0.0328  0.3565
   88MOL    C8948983   5.111   3.054   0.534  0.2107  0.1992  0.4738
   88MOL    C9048984   5.256   3.075   0.588 -0.7395  0.3651 -0.2246
   88MOL    O9148985   5.256   3.056   0.729  0.7022  0.3920  0.3985
   88MOL    C9248986   5.362   3.077   0.802  0.1995  0.5152  0.2279
   88MOL    O9348987   5.475   3.105   0.762 -0.0621 -0.2833  0.0817
   88MOL    C9448988   5.333   3.068   0.949  0.7228  0.6052  0.3808
   88MOL    C9548989   5.429   3.114   1.041 -0.9060  0.3280  0.6213
   88MOL    C9648990   5.401   3.131   1.182 -0.1204  0.2342  0.0480
   88MOL    C9748991   5.276   3.088   1.232  0.5246  0.5579 -0.0223
   88MOL    C9848992   5.258   3.095   1.381 -0.2075  0.0199 -0.3716
   88MOL    O9948993   5.338   3.156   1.455 -0.1901 -0.5756  0.0116
   88MOL   C10048994   5.184   3.028   1.139 -0.5236 -0.9952 -0.6358
   88MOL   C10148995   5.209   3.024   1.002 -0.1867 -0.1385  0.1112
   88MOL   H10248996   4.912   2.963   0.388  1.1225  0.1941 -1.2432
   88MOL   H10348997   4.920   3.067   0.249  0.8375  0.2706 -0.0223
   88MOL   H10448998   5.113   3.185   0.356 -1.4475  0.3805  0.1760
   88MOL   H10548999   5.135   3.012   0.325  1.3340  0.4967  0.7762
   88MOL   H10649000   5.050   3.126   0.588 -0.9737 -0.4008 -0.0332
   88MOL   H10749001   5.074   2.955   0.562 -0.2799  0.3050  0.2020
   88MOL   H10849002   5.321   2.999   0.545 -1.1906 -0.0066 -0.2596
   88MOL   H10949003   5.292   3.175   0.563  1.3746 -1.3624 -4.5821
   88MOL   H11049004   5.530   3.135   1.009 -1.0330 -0.7040 -0.4975
   88MOL   H11149005   5.475   3.166   1.253 -1.0512  2.6206 -0.1022
   88MOL   H11249006   5.086   2.994   1.172 -0.4431  2.2134  3.5308
   88MOL   H11349007   5.137   2.978   0.936 -0.8767  0.4801  0.4217
   88MOL   O11449008   5.156   3.020   1.427 -0.2497 -0.7939  0.1863
   88MOL   C11549009   5.121   3.023   1.566  0.4735 -0.3599 -0.0660
   88MOL   C11649010   4.987   2.960   1.597  0.1037  0.4325  0.0517
   88MOL   C11749011   4.985   2.906   1.737  0.5425  0.0816 -0.3507
   88MOL   C11849012   4.845   2.848   1.775  0.0623 -0.3082 -0.4273
   88MOL   O11949013   4.751   2.942   1.809 -0.0419 -0.2168 -0.5570
   88MOL   C12049014   4.670   3.000   1.723  0.4025  0.3122 -0.0587
   88MOL   O12149015   4.655   2.967   1.606  0.4457  0.2821 -0.6008
   88MOL   C12249016   4.590   3.108   1.801 -0.1552  0.4105  1.1371
   88MOL   C12349017   4.460   3.135   1.760  0.0287 -0.0275  0.3122
   88MOL   C12449018   4.374   3.219   1.834  0.5693 -0.2411 -0.6677
   88MOL   C12549019   4.436   3.290   1.938 -0.1249 -0.0104 -0.4333
   88MOL   C12649020   4.357   3.399   2.011 -0.8249  0.3608  1.0100
   88MOL   O12749021   4.236   3.404   2.025  0.0712  0.3198  0.7045
   88MOL   C12849022   4.565   3.265   1.984 -0.2073 -0.7531  1.5958
   88MOL   C12949023   4.643   3.173   1.913 -0.0792  0.6882 -0.9065
   88MOL   H13049024   5.201   2.977   1.624  0.9472 -0.5778 -0.8793
   88MOL   H13149025   5.119   3.121   1.614 -1.5941 -1.1356  1.5140
   88MOL   H13249026   4.961   2.895   1.513 -0.8195 -0.9852  1.4148
   88MOL   H13349027   4.922   3.047   1.592 -0.4621  0.0217  0.2653
   88MOL   H13449028   5.059   2.826   1.742 -0.3485 -0.9226 -2.5794
   88MOL   H13549029   5.021   2.976   1.813 -0.3234  0.3331 -0.1646
   88MOL   H13649030   4.800   2.779   1.704  1.2846 -1.9637  0.4008
   88MOL   H13749031   4.867   2.789   1.864  0.8913 -2.2681 -1.8986
   88MOL   H13849032   4.420   3.076   1.679 -1.6191 -0.3515  1.3510
   88MOL   H13949033   4.271   3.223   1.802  0.3610  1.2346  0.1478
   88MOL   H14049034   4.611   3.308   2.071  1.5743 -0.8769  0.7371
   88MOL   H14149035   4.742   3.155   1.954 -0.5817  0.2317  0.1193
   88MOL   O14249036   4.434   3.488   2.071  0.4246 -0.1932 -0.3081
   88MOL   C14349037   4.382   3.597   2.155  0.3996 -0.8445 -0.2009
   88MOL   C14449038   4.496   3.697   2.172 -0.1891  0.3805 -0.5943
   88MOL   C14549039   4.620   3.644   2.242 -1.1838 -0.3552  0.1121
   88MOL   C14649040   4.731   3.751   2.262  0.6045 -0.5002  0.1633
   88MOL   O14749041   4.805   3.789   2.143 -0.7445 -0.0007 -0.0426
   88MOL   C14849042   4.822   3.921   2.112  0.1708  0.8194  0.2713
   88MOL   O14949043   4.768   4.023   2.160  0.2446  0.2074  0.2156
   88MOL   C15049044   4.914   3.932   1.992 -0.4073  0.6199  0.4374
   88MOL   C15149045   4.971   3.822   1.924  0.7237  0.6240 -0.3835
   88MOL   C15249046   5.073   3.833   1.829 -0.0469  0.2245 -0.0613
   88MOL   C15349047   5.116   3.961   1.785 -0.9622  0.1137 -0.2970
   88MOL   C15449048   5.238   3.972   1.693  0.6596 -0.2365  0.0925
   88MOL   O15549049   5.286   4.081   1.666 -0.3287  0.4026  0.0065
   88MOL   C15649050   5.058   4.074   1.849 -0.0827 -0.0841  1.1411
   88MOL   C15749051   4.960   4.058   1.949  0.0371  0.1332  0.2945
   88MOL   H15849052   4.306   3.648   2.096  0.8679  0.3274  0.1836
   88MOL   H15949053   4.345   3.561   2.251 -2.2527  3.3891  0.5013
   88MOL   H16049054   4.466   3.791   2.217 -0.2766 -0.0984  0.3661
   88MOL   H16149055   4.530   3.725   2.072 -0.3289 -0.1303 -0.7869
   88MOL   H16249056   4.582   3.632   2.344  3.6379  1.1589  2.2033
   88MOL   H16349057   4.657   3.558   2.186  1.0062  0.9029 -0.4136
   88MOL   H16449058   4.689   3.839   2.312 -0.3232 -1.2422  0.7044
   88MOL   H16549059   4.814   3.717   2.324  0.7448 -0.1134  0.1921
   88MOL   H16649060   4.952   3.719   1.952  2.9579  0.1808 -0.4347
   88MOL   H16749061   5.121   3.745   1.786  1.2901  0.7890  0.2434
   88MOL   H16849062   5.091   4.174   1.823 -0.8278 -0.4774 -1.4655
   88MOL   H16949063   4.923   4.148   1.997  0.9706 -0.1907  1.6819
   88MOL   O17049064   5.278   3.855   1.639  0.2264  0.1960 -0.5834
   88MOL   C17149065   5.391   3.849   1.557  0.4702 -0.2512 -0.3215
   88MOL   C17249066   5.392   3.716   1.476 -0.2035 -0.5073 -0.0317
   88MOL   C17349067   5.270   3.704   1.385 -0.6790 -0.0695 -0.0542
   88MOL   C17449068   5.253   3.563   1.329 -0.1132 -0.1397 -0.2052
   88MOL   O17549069   5.236   3.471   1.442  0.5151 -0.6459 -0.3971
   88MOL   C17649070   5.116   3.457   1.511  0.1407  0.2950 -0.4593
   88MOL   O17749071   5.015   3.514   1.474  0.1463  0.2642 -0.0483
   88MOL   C17849072   5.125   3.375   1.636  0.5156 -0.3932 -0.2924
   88MOL   C17949073   5.248   3.316   1.682  0.2937  0.3306  0.2894
   88MOL   C18049074   5.247   3.244   1.804 -0.3913  0.0383  0.1556
   88MOL   C18149075   5.130   3.237   1.881  0.1316  0.0039 -0.8580
   88MOL   C18249076   5.129   3.160   2.003 -0.0678 -0.3282 -0.2757
   88MOL   O18349077   5.227   3.100   2.043 -0.0827 -0.0879  0.7102
   88MOL   C18449078   5.016   3.311   1.852 -0.3922  0.2408 -0.5217
   88MOL   C18549079   5.014   3.375   1.723  0.4088  0.5305  0.0345
   88MOL   H18649080   5.378   3.932   1.488 -0.5278 -0.3889 -0.3177
   88MOL   H18749081   5.482   3.869   1.614  0.5153 -1.6513  0.1130
   88MOL   H18849082   5.390   3.640   1.554 -0.9272 -1.1386 -0.6596
   88MOL   H18949083   5.488   3.717   1.426 -0.3297 -4.5539 -0.5054
   88MOL   H19049084   5.168   3.726   1.414 -1.3428  1.8797 -3.5820
   88MOL   H19149085   5.292   3.765   1.297  2.9776 -1.6415 -0.3133
   88MOL   H19249086   5.165   3.551   1.266 -0.1463  2.5940 -0.7345
   88MOL   H19349087   5.339   3.516   1.281 -0.4108 -0.8913 -0.0054
   88MOL   H19449088   5.341   3.318   1.627  0.5009  1.8556  0.6642
   88MOL   H19549089   5.334   3.194   1.843  1.2331  3.7697  1.5124
   88MOL   H19649090   4.932   3.300   1.919  0.6285 -2.3061  0.3889
   88MOL   H19749091   4.925   3.421   1.681  0.5252  0.0458 -0.7510
   88MOL   O19849092   5.021   3.154   2.075  0.1358 -0.0200  0.2108
   88MOL   C19949093   5.024   3.091   2.202 -0.4564  0.1632  0.0388
   88MOL   C20049094   4.899   3.130   2.286  0.4056 -0.4574 -0.2968
   88MOL   C20149095   4.882   3.277   2.335  0.0534 -0.1363  0.1456
   88MOL   C20249096   5.004   3.311   2.416 -0.0483  0.2229 -0.0262
   88MOL   O20349097   5.119   3.370   2.340  0.3307  0.3296  0.5112
   88MOL   C20449098   5.123   3.498   2.304 -0.2056  0.1247  0.8820
   88MOL   O20549099   5.051   3.584   2.350 -0.4029  0.6397  0.1276
   88MOL   C20649100   5.229   3.518   2.196 -0.8549 -0.4532  0.0236
   88MOL   C20749101   5.240   3.636   2.118  0.3305 -0.5652 -0.4259
   88MOL   C20849102   5.344   3.649   2.019  0.3583 -0.3355  0.6935
   88MOL   C20949103   5.430   3.543   1.994  0.2771  0.1412 -0.4262
   88MOL   C21049104   5.532   3.548   1.882 -0.2015  0.4798  0.6259
   88MOL   O21149105   5.542   3.640   1.802  0.7972  0.2210 -0.0112
   88MOL   C21249106   5.414   3.419   2.071 -0.8281 -0.0523  0.8775
   88MOL   C21349107   5.317   3.408   2.172 -0.0607 -0.4076  0.6497
   88MOL   H21449108   5.036   2.986   2.177  1.3572  0.2145  0.6413
   88MOL   H21549109   5.112   3.125   2.257 -0.5693  0.8165 -0.1743
   88MOL   H21649110   4.891   3.073   2.378  1.7505  1.6291  1.1280
   88MOL   H21749111   4.817   3.087   2.227  0.0719  0.0258 -0.1944
   88MOL   H21849112   4.858   3.353   2.260  1.1453  0.4371  0.3712
   88MOL   H21949113   4.800   3.270   2.407 -2.4414  0.6544 -2.5016
   88MOL   H22049114   4.973   3.365   2.505 -2.1977 -1.4635  0.2687
   88MOL   H22149115   5.056   3.223   2.454 -1.6269 -0.7760 -0.1395
   88MOL   H22249116   5.167   3.715   2.125 -0.0465 -0.8461 -1.1338
   88MOL   H22349117   5.350   3.730   1.948 -0.0316 -0.4071  0.5751
   88MOL   H22449118   5.467   3.333   2.033 -0.5957  0.2299  0.5541
   88MOL   H22549119   5.325   3.313   2.222 -1.0791 -0.6921  0.2952
   88MOL   O22649120   5.621   3.445   1.876 -0.2473 -0.4832 -0.0717
   88MOL   C22749121   5.727   3.436   1.778 -0.6136 -0.6201  0.0561
   88MOL   C22849122   5.679   3.353   1.651 -0.2686  0.9687 -0.1425
   88MOL   C22949123   5.626   3.435   1.530  1.2153  0.0662 -0.2517
   88MOL   C23049124   5.636   3.367   1.395 -0.0709 -0.8092 -0.7804
   88MOL   O23149125   5.612   3.458   1.290 -1.1867  0.6457  0.8177
   88MOL   C23249126   5.651   3.432   1.158  0.1355 -0.0268  0.1943
   88MOL   O23349127   5.717   3.332   1.132 -0.0655  0.6809  0.2775
   88MOL   C23449128   5.628   3.546   1.069 -0.1472 -0.0775  0.5615
   88MOL   C23549129   5.548   3.655   1.106  0.0192 -0.7182 -0.4305
   88MOL   C23649130   5.516   3.762   1.024 -0.7221 -0.4904  0.5229
   88MOL   C23749131   5.551   3.760   0.885  0.4429 -0.3479  0.0330
   88MOL   C23849132   5.482   3.856   0.794  0.0018 -0.4749  0.3346
   88MOL   O23949133   5.415   3.952   0.831  0.0081 -0.4685  0.2791
   88MOL   C24049134   5.627   3.645   0.839 -0.3589 -0.3290  0.2899
   88MOL   C24149135   5.665   3.543   0.928 -0.5348  0.3288 -0.0340
   88MOL   H24249136   5.752   3.537   1.745 -2.3458 -0.3929 -0.5681
   88MOL   H24349137   5.820   3.408   1.828 -0.2073 -1.0456 -0.9095
   88MOL   H24449138   5.629   3.258   1.672 -1.3329  1.6932  0.6152
   88MOL   H24549139   5.774   3.308   1.622 -0.6009  0.1764 -0.0248
   88MOL   H24649140   5.520   3.458   1.539  0.6812 -2.1402 -0.6523
   88MOL   H24749141   5.671   3.533   1.511  0.3187  0.3287 -1.0725
   88MOL   H24849142   5.734   3.321   1.379 -0.1055 -1.0498 -0.3189
   88MOL   H24949143   5.558   3.292   1.380  0.6942 -1.8992  0.5102
   88MOL   H25049144   5.508   3.657   1.206 -0.3127  1.0049 -0.5856
   88MOL   H25149145   5.457   3.842   1.065 -2.5108 -0.7896 -1.3901
   88MOL   H25249146   5.653   3.635   0.734  0.3848  2.2466  0.1834
   88MOL   H25349147   5.707   3.451   0.891  2.3387  2.0639 -1.3008
   88MOL   O25449148   5.512   3.829   0.664 -0.1221 -0.5274  0.0642
   88MOL   C25549149   5.432   3.886   0.563 -0.2850 -0.1414  0.2589
   88MOL   C25649150   5.469   3.835   0.423 -0.0181 -0.2641 -0.4563
   88MOL   C25749151   5.403   3.912   0.315  0.7947 -0.2668  0.1088
   88MOL   C25849152   5.452   3.869   0.178 -1.0044 -0.5905  0.3797
   88MOL   O25949153   5.409   3.958   0.083 -0.1228 -0.2050  0.4185
   88MOL   C26049154   5.292   3.941   0.014 -0.7265 -0.1074 -0.5086
   88MOL   O26149155   5.203   3.865   0.047  0.2729 -0.4988 -0.4363
   88MOL   C26249156   5.277   4.038   7.999  0.3361 -0.3024  0.0175
   88MOL   C26349157   5.386   4.120   7.959 -0.1974 -0.1466  1.2279
   88MOL   C26449158   5.366   4.220   7.862 -0.3698  0.4287 -0.9767
   88MOL   C26549159   5.245   4.243   7.804 -0.0228  0.2894 -0.1001
   88MOL   C26649160   5.230   4.365   7.713 -0.5956 -0.5365 -0.6970
   88MOL   O26749161   5.311   4.458   7.709 -0.1911 -0.6176  0.3432
   88MOL   C26849162   5.136   4.157   7.838 -0.0449 -0.0569  0.0603
   88MOL   C26949163   5.153   4.058   7.937 -0.8635 -0.0990  0.9227
   88MOL   H27049164   5.326   3.865   0.581 -0.9518  1.8999 -1.1076
   88MOL   H27149165   5.441   3.995   0.571  0.6889 -0.1678 -0.5128
   88MOL   H27249166   5.431   3.734   0.415 -0.8846 -0.0546  0.8769
   88MOL   H27349167   5.577   3.828   0.413  0.1492  1.8154 -0.5223
   88MOL   H27449168   5.296   3.891   0.311  0.3664  1.3334  2.0200
   88MOL   H27549169   5.418   4.018   0.338 -0.6585 -0.3840  1.7309
   88MOL   H27649170   5.561   3.871   0.177 -1.0154  0.0436 -0.5801
   88MOL   H27749171   5.415   3.773   0.143  0.9506 -1.6866  1.2388
   88MOL   H27849172   5.478   4.113   8.015 -0.6777  3.1225  2.5829
   88MOL   H27949173   5.447   4.284   7.830  0.3725  0.4893  0.9405
   88MOL   H28049174   5.039   4.176   7.795 -0.1347  3.5170  1.6391
   88MOL   H28149175   5.067   4.003   7.973 -1.7756  0.0793 -0.9240
   88MOL   O28249176   5.109   4.362   7.660 -0.0350  0.1429 -0.0893
   88MOL   C28349177   5.056   4.476   7.589  1.0240 -0.3336 -0.2318
   88MOL   C28449178   4.982   4.561   7.694 -0.1568  0.6427  1.0790
   88MOL   C28549179   4.848   4.499   7.742 -0.3512 -0.2845 -0.4834
   88MOL   C28649180   4.801   4.555   7.878  0.2810  0.4268 -0.4810
   88MOL   O28749181   4.889   4.511   7.978  0.1318 -0.0067 -0.3859
   88MOL   C28849182   4.908   4.583   8.093  0.2055  0.0306 -0.0258
   88MOL   O28949183   4.839   4.677   0.034  0.6355 -0.9096  0.1063
   88MOL   C29049184   5.017   4.530   0.077 -0.4419 -0.0004  0.1965
   88MOL   C29149185   5.126   4.473   0.010 -0.3377 -0.3492  0.6948
   88MOL   C29249186   5.233   4.423   0.083 -0.0278 -0.5124  0.0000
   88MOL   C29349187   5.233   4.415   0.221  1.0188 -0.5902 -0.1685
   88MOL   C29449188   5.341   4.353   0.301 -0.3326 -0.3121  0.5348
   88MOL   O29549189   5.427   4.282   0.256 -0.4719 -0.2570 -0.2700
   88MOL   C29649190   5.132   4.489   0.290  0.6037 -0.5929 -0.5519
   88MOL   C29749191   5.021   4.532   0.218 -0.1431  0.7090 -0.6875
   88MOL   H29849192   5.133   4.542   7.547  0.7562 -0.1199 -0.3869
   88MOL   H29949193   4.977   4.461   7.515 -0.1047  0.5213  0.7773
   88MOL   H30049194   4.963   4.657   7.647  0.6108  0.6016  0.6737
   88MOL   H30149195   5.038   4.585   7.784 -0.8457  1.1035  1.3848
   88MOL   H30249196   4.765   4.510   7.672 -1.7736 -0.5158  1.1387
   88MOL   H30349197   4.865   4.393   7.756  2.6378  0.3155  1.0704
   88MOL   H30449198   4.795   4.664   7.880 -0.4055  0.4959 -3.3694
   88MOL   H30549199   4.700   4.520   7.901  0.6472 -0.2471  0.1267
   88MOL   H30649200   5.135   4.462   8.002  0.8922 -1.3060  0.8863
   88MOL   H30749201   5.310   4.368   0.029  0.5075  1.3641 -1.1891
   88MOL   H30849202   5.119   4.485   0.397  0.2899  1.2976 -0.5012
   88MOL   H30949203   4.942   4.580   0.275  1.0142 -1.8886  3.2772
   88MOL   O31049204   5.332   4.395   0.433  0.5087 -0.2246  0.8263
   88MOL   C31149205   5.426   4.344   0.519 -0.6036  0.0395  0.4907
   88MOL   C31249206   5.403   4.380   0.665 -0.4371  0.1421  0.0266
   88MOL   C31349207   5.265   4.342   0.731  0.0688  0.9816  1.0657
   88MOL   C31449208   5.225   4.196   0.698 -0.3166 -0.3076 -0.0693
   88MOL   O31549209   5.156   4.154   0.582  0.7511  0.1099 -0.0933
   88MOL   C31649210   5.026   4.183   0.575 -0.7731  0.3287 -0.5787
   88MOL   O31749211   4.964   4.215   0.675  0.8022  0.0849  0.3462
   88MOL   C31849212   4.972   4.178   0.435 -0.2508  0.1905 -0.0103
   88MOL   C31949213   5.024   4.091   0.334  0.3345 -0.3253 -0.0421
   88MOL   C32049214   4.958   4.073   0.212 -0.1335  0.5986 -0.3440
   88MOL   C32149215   4.846   4.159   0.178 -0.0801 -0.1823 -0.7078
   88MOL   C32249216   4.784   4.172   0.044 -0.4902 -0.1341  0.1719
   88MOL   O32349217   4.695   4.251   0.014  0.1452  0.0202  0.3617
   88MOL   C32449218   4.797   4.250   0.280 -0.3603  0.4590 -0.2055
   88MOL   C32549219   4.853   4.246   0.410  0.2145 -0.3735 -0.3771
   88MOL   H32649220   5.422   4.236   0.516 -1.5024  0.0741  0.2065
   88MOL   H32749221   5.526   4.381   0.495 -1.7370  1.8608 -1.6524
   88MOL   H32849222   5.406   4.489   0.679  0.1264 -0.0872  1.8767
   88MOL   H32949223   5.485   4.328   0.713 -0.4848 -0.6883 -0.7971
   88MOL   H33049224   5.279   4.349   0.839  0.5565  1.4228  0.9799
   88MOL   H33149225   5.180   4.405   0.707 -0.6401 -1.1078 -2.2156
   88MOL   H33249226   5.318   4.141   0.713  0.5795  0.5787 -2.2349
   88MOL   H33349227   5.175   4.166   0.791  0.5658  3.0946  1.5771
   88MOL   H33449228   5.114   4.035   0.353  0.3640 -0.6965 -1.2665
   88MOL   H33549229   4.995   4.009   0.133  1.2699  0.2660  0.5782
   88MOL   H33649230   4.709   4.312   0.269 -2.9960 -2.7426  1.6156
   88MOL   H33749231   4.807   4.313   0.481 -2.1435 -1.8936 -0.4065
   88MOL   O33849232   4.847   4.095   8.056  0.2411  0.1159  0.3564
   88MOL   C33949233   4.789   4.063   7.930  0.1427  0.0221 -0.4153
   88MOL   C34049234   4.785   3.912   7.902 -0.7021  0.0638 -0.1854
   88MOL   C34149235   4.714   3.865   7.774  0.4591  0.6018  0.5946
   88MOL   C34249236   4.814   3.837   7.663  0.1670 -0.1488  0.3421
   88MOL   O34349237   4.838   3.963   7.589  0.0160 -0.6344  0.2284
   88MOL   C34449238   4.964   3.994   7.556  0.2779 -0.2735  0.5001
   88MOL   O34549239   5.067   3.941   7.597  0.3735 -0.7146 -0.8982
   88MOL   C34649240   4.974   4.111   7.457 -0.4530 -0.3367 -0.2184
   88MOL   C34749241   5.097   4.148   7.406 -0.5170  0.0825  0.0155
   88MOL   C34849242   5.103   4.242   7.303 -0.1474  0.1960  0.5548
   88MOL   C34949243   4.992   4.299   7.251  0.2229 -0.3754  0.7505
   88MOL   C35049244   4.997   4.395   7.132 -0.2606  0.2765 -0.0756
   88MOL   O35149245   4.896   4.443   7.078  0.3612 -0.1910  0.0421
   88MOL   C35249246   4.871   4.272   7.314  0.5909 -0.2922  0.1882
   88MOL   C35349247   4.856   4.180   7.416  0.1515  1.1807  0.4193
   88MOL   H35449248   4.689   4.108   7.927 -0.6186 -1.2331  2.9837
   88MOL   H35549249   4.847   4.109   7.850  1.5751  0.3629  0.8059
   88MOL   H35649250   4.733   3.857   7.981  0.4772  0.7203  1.0509
   88MOL   H35749251   4.886   3.874   7.905 -0.7987 -0.3077 -1.3604
   88MOL   H35849252   4.669   3.768   7.795  1.8923  0.1376  1.4993
   88MOL   H35949253   4.630   3.924   7.738 -1.0474 -0.8593  1.6228
   88MOL   H36049254   4.902   3.780   7.693  1.0187  1.4998  1.0655
   88MOL   H36149255   4.765   3.771   7.592  1.3168  0.0277 -0.6504
   88MOL   H36249256   5.187   4.104   7.447 -1.5803  0.3845  2.7767
   88MOL   H36349257   5.197   4.276   7.262  0.1943 -1.0785  0.2581
   88MOL   H36449258   4.787   4.329   7.277  0.4104 -1.9209 -1.9807
   88MOL   H36549259   4.758   4.151   7.450  0.6056  0.4652  1.1444
   88MOL   O36649260   5.126   4.419   7.084 -0.1693 -0.0201  0.3790
   88MOL   C36749261   5.146   4.513   6.980  0.9186  0.3800 -0.4806
   88MOL   C36849262   5.176   4.654   7.039  0.7989  0.0357 -0.4069
   88MOL   C36949263   5.299   4.676   7.118  0.1582 -0.6679  0.4072
   88MOL   C37049264   5.305   4.576   7.233 -1.5074 -0.2412 -0.8014
   88MOL   O37149265   5.388   4.612   7.344 -0.5511 -0.0162  0.5683
   88MOL   C37249266   5.346   4.706   7.431  0.9595 -0.2033 -0.0479
   88MOL   O37349267   5.229   4.743   7.448  0.1218  0.2776 -0.4565
   88MOL   C37449268   5.458   4.763   7.511  0.4395  0.4832  0.3291
   88MOL   C37549269   5.432   4.867   7.602 -0.0144 -0.8346 -0.5169
   88MOL   C37649270   5.536   4.925   7.667  0.6949  0.0877 -0.0983
   88MOL   C37749271   5.662   4.857   7.676  0.1542 -0.9442  0.4922
   88MOL   C37849272   5.770   4.912   7.758 -0.7291 -0.1920  0.2719
   88MOL   O37949273   5.884   4.876   7.753 -0.2516  0.0651  0.4689
   88MOL   C38049274   5.680   4.738   7.598 -0.4114 -0.1932 -0.2810
   88MOL   C38149275   5.583   4.695   7.509 -0.0650  0.2163  0.4455
   88MOL   H38249276   5.220   4.466   6.915 -0.0840  0.4984 -1.7315
   88MOL   H38349277   5.053   4.524   6.923  0.2668 -0.4383  0.4149
   88MOL   H38449278   5.092   4.694   7.096 -0.5702 -3.4835  0.1851
   88MOL   H38549279   5.176   4.713   6.948  1.1113 -1.5012 -1.4187
   88MOL   H38649280   5.387   4.660   7.056  0.2942 -0.3811  0.5252
   88MOL   H38749281   5.297   4.778   7.156  1.4632 -0.1788 -0.8023
   88MOL   H38849282   5.211   4.574   7.287 -1.5838 -1.0572 -0.9635
   88MOL   H38949283   5.330   4.475   7.200  0.2103 -0.7150  1.7842
   88MOL   H39049284   5.341   4.924   7.596  0.8492  0.8970  2.0106
   88MOL   H39149285   5.518   5.014   7.726  2.5438  0.0448  0.5882
   88MOL   H39249286   5.774   4.685   7.605 -0.8029 -0.7408  1.0526
   88MOL   H39349287   5.609   4.607   7.452 -0.3254 -1.2319  2.4935
   88MOL   O39449288   5.725   5.002   7.853  0.2938 -0.0981  1.0062
   88MOL   C39549289   5.821   5.056   7.940 -1.2354 -0.0462 -0.2314
   88MOL   C39649290   5.749   5.105   8.061 -0.0632 -0.3917  0.0249
   88MOL   C39749291   5.682   5.244   8.048 -0.3903  0.8140  0.2087
   88MOL   C39849292   5.566   5.270   0.046  0.1763  0.0761 -0.1979
   88MOL   O39949293   5.546   5.412   0.056 -0.3937  0.6632 -0.1743
   88MOL   C40049294   5.558   5.477   0.175 -0.1203  0.0414 -0.3978
   88MOL   O40149295   5.578   5.423   0.281  0.2851 -0.1549  0.0588
   88MOL   C40249296   5.533   5.623   0.169  0.8406 -0.0586  0.5981
   88MOL   C40349297   5.505   5.698   0.283 -0.3608  0.0517  0.1808
   88MOL   C40449298   5.482   5.836   0.284 -0.4842 -0.7085 -0.3457
   88MOL   C40549299   5.476   5.912   0.164  0.7283 -0.2961  0.6863
   88MOL   C40649300   5.430   6.051   0.167  0.2004 -0.4389  0.7014
   88MOL   O40749301   5.390   6.104   0.269 -0.0841 -0.5549 -0.1761
   88MOL   C40849302   5.515   5.838   0.049  0.4434 -0.4301 -0.0112
   88MOL   C40949303   5.536   5.701   0.053  0.3510  0.3565  0.4800
   88MOL   H41049304   5.890   4.978   7.971 -1.5474  0.1185  0.8975
   88MOL   H41149305   5.869   5.140   7.890  0.5611 -2.1937 -2.2080
   88MOL   H41249306   5.821   5.120   0.042 -1.8942  1.4980  1.3798
   88MOL   H41349307   5.682   5.025   8.091  0.0162 -0.3825  0.2218
   88MOL   H41449308   5.756   5.321   8.067  0.3919  0.8193 -2.6876
   88MOL   H41549309   5.657   5.254   7.942  0.1156 -0.3306 -0.0332
   88MOL   H41649310   5.480   5.211   0.015  0.0539  0.4336 -0.5382
   88MOL   H41749311   5.595   5.234   0.145 -1.0458 -0.1397  0.0805
   88MOL   H41849312   5.515   5.648   0.378  2.3867 -1.2670 -0.7400
   88MOL   H41949313   5.457   5.876   0.381  0.1227  0.6385 -0.7176
   88MOL   H42049314   5.514   5.884   8.050 -1.1094  0.4754  0.3961
   88MOL   H42149315   5.559   5.651   8.059 -0.9009 -1.1025  0.9281
   88MOL   O42249316   5.428   6.103   0.046 -0.3861  0.1993  0.0023
   88MOL   C42349317   5.368   6.230   0.009  0.4598 -0.1699 -0.1868
   88MOL   C42449318   5.465   6.350   0.025 -0.3131  0.5598 -0.0301
   88MOL   C42549319   5.408   6.481   8.058  0.2318  0.4945 -0.6598
   88MOL   C42649320   5.491   6.608   0.001  0.0826  0.5048  0.1271
   88MOL   O42749321   5.601   6.597   8.020 -0.8102 -0.1390 -0.1033
   88MOL   C42849322   5.638   6.698   7.943 -0.4237  0.9068  0.0623
   88MOL   O42949323   5.576   6.796   7.922  0.8202 -0.1523 -0.0910
   88MOL   C43049324   5.773   6.669   7.891  0.4587 -0.3736  0.6604
   88MOL   C43149325   5.826   6.536   7.875  0.2055  0.4411 -0.2747
   88MOL   C43249326   5.959   6.519   7.835  0.1274 -0.6403  1.5119
   88MOL   C43349327   6.033   6.633   7.794 -0.4254  0.7066  0.9061
   88MOL   C43449328   6.185   6.615   7.774  0.1916 -0.2028 -0.0736
   88MOL   O43549329   6.250   6.685   7.697 -0.0307 -0.4052  0.2339
   88MOL   C43649330   5.976   6.758   7.793  1.1986 -0.5988  0.0120
   88MOL   C43749331   5.849   6.782   7.847 -0.4325  0.9597  0.3670
   88MOL   H43849332   5.326   6.204   8.010  0.1612  0.1482 -0.1432
   88MOL   H43949333   5.273   6.234   0.063  1.2047  0.4133  1.0848
   88MOL   H44049334   5.561   6.323   8.081 -0.7164 -1.5701  0.3504
   88MOL   H44149335   5.486   6.370   0.130  1.4101  1.2134 -0.4825
   88MOL   H44249336   5.408   6.474   7.950  0.1977 -0.0889 -0.6252
   88MOL   H44349337   5.306   6.499   8.092 -0.4676  0.3667 -2.6408
   88MOL   H44449338   5.424   6.691   8.078  0.5514  1.0386  0.7482
   88MOL   H44549339   5.514   6.613   0.107  1.8342 -1.3465 -0.1327
   88MOL   H44649340   5.764   6.453   7.905 -0.1515  0.4251 -1.0393
   88MOL   H44749341   6.003   6.420   7.831  0.0861 -0.7189  2.7702
   88MOL   H44849342   6.041   6.840   7.766  2.9721 -1.4877  1.4460
   88MOL   H44949343   5.825   6.885   7.872  0.8430  0.8047  2.3061
   88MOL   O45049344   6.235   6.521   7.854  0.3454  0.2791 -0.6290
   88MOL   C45149345   6.374   6.496   7.842  0.0088 -0.3186 -0.1136
   88MOL   C45249346   6.455   6.500   7.973 -0.2709  0.0492 -0.1638
   88MOL   C45349347   6.434   6.381   8.066 -0.1745  0.2621  0.2847
   88MOL   C45449348   6.533   6.267   8.051 -0.2047  0.1754 -0.1907
   88MOL   O45549349   6.514   6.202   7.928 -0.1510  0.4414 -0.1713
   88MOL   C45649350   6.422   6.105   7.919 -0.5467  0.1717 -0.4599
   88MOL   O45749351   6.332   6.087   8.002 -0.0529 -0.1519 -0.1950
   88MOL   C45849352   6.440   6.022   7.798 -0.1539 -0.5065  0.7501
   88MOL   C45949353   6.389   5.896   7.791  0.3745  0.7253  0.6931
   88MOL   C46049354   6.404   5.814   7.682 -0.5282  0.1902  0.0794
   88MOL   C46149355   6.478   5.862   7.564 -0.1608  0.2648 -0.0490
   88MOL   C46249356   6.509   5.772   7.452  0.4491 -0.2674  0.1108
   88MOL   O46349357   6.472   5.652   7.449 -0.4925 -0.3328 -0.1874
   88MOL   C46449358   6.539   5.987   7.572  0.6993 -0.8333  0.1466
   88MOL   C46549359   6.523   6.069   7.690 -1.3417 -0.5522 -0.0811
   88MOL   H46649360   6.395   6.400   7.795  1.6121 -0.3898  0.7235
   88MOL   H46749361   6.418   6.568   7.772  1.4420 -0.0825  1.0204
   88MOL   H46849362   6.421   6.597   8.007  0.7956  0.2172  0.4226
   88MOL   H46949363   6.560   6.506   7.945  0.1693 -4.7944  0.0233
   88MOL   H47049364   6.458   6.409   0.070  0.9167  0.1491  0.0651
   88MOL   H47149365   6.331   6.348   8.058 -0.0910 -0.1547  0.9357
   88MOL   H47249366   6.630   6.316   8.055 -0.1999  0.1434  0.1453
   88MOL   H47349367   6.525   6.202   0.039  0.0087  0.6858  0.2179
   88MOL   H47449368   6.340   5.856   7.879 -0.3649  0.8823  0.3637
   88MOL   H47549369   6.378   5.709   7.676  0.1683 -0.3035  4.2980
   88MOL   H47649370   6.607   6.032   7.501  1.5450  0.3017  1.6457
   88MOL   H47749371   6.580   6.161   7.688 -0.4212 -1.1356 -1.3941
   88MOL   O47849372   6.579   5.842   7.351 -0.5117 -0.0925  0.7702
   88MOL   C47949373   6.616   5.784   7.226  0.3767 -0.2770 -0.4959
   88MOL   C48049374   6.607   5.890   7.117 -0.2365 -0.9455 -0.0477
   88MOL   C48149375   6.687   5.858   6.996  0.4025 -0.1435  0.0086
   88MOL   C48249376   6.641   5.927   6.865  0.2940  0.3065  0.1047
   88MOL   O48349377   6.743   5.914   6.770 -0.0951  0.1898 -0.6130
   88MOL   C48449378   6.844   6.005   6.781  0.5245  0.1479 -0.1413
   88MOL   O48549379   6.854   6.089   6.874  0.4796  0.6419  0.7280
   88MOL   C48649380   6.938   6.011   6.669 -0.2625  0.0809  0.2847
   88MOL   C48749381   6.999   6.135   6.632 -0.5026 -0.2102 -0.8442
   88MOL   C48849382   7.072   6.148   6.516 -0.1636 -0.5135 -1.0970
   88MOL   C48949383   7.089   6.036   6.428 -0.1152 -0.7851  0.6011
   88MOL   C49049384   7.149   6.054   6.291 -0.2247  0.2814  0.9900
   88MOL   O49149385   7.129   5.985   6.189  0.4919 -0.3048  0.2343
   88MOL   C49249386   7.037   5.906   6.468  0.3260  0.2016 -0.0190
   88MOL   C49349387   6.969   5.895   6.593 -0.6380  0.3345 -0.1003
   88MOL   H49449388   6.720   5.756   7.245 -0.1868 -1.2290  1.2393
   88MOL   H49549389   6.546   5.707   7.195 -0.5149 -0.2803  1.4633
   88MOL   H49649390   6.640   5.985   7.159 -1.3276 -0.4771 -0.2434
   88MOL   H49749391   6.504   5.908   7.086  0.9087  0.9102 -2.9847
   88MOL   H49849392   6.788   5.874   7.033  0.2070  1.0232  0.0402
   88MOL   H49949393   6.683   5.751   6.972  1.4909 -0.1166 -0.2847
   88MOL   H50049394   6.549   5.883   6.825  0.6425 -0.8724  0.5685
   88MOL   H50149395   6.622   6.033   6.882  0.1676  0.0680  1.4990
   88MOL   H50249396   6.983   6.225   6.689  0.5060  0.0507 -0.9648
   88MOL   H50349397   7.108   6.241   6.474  1.1400 -0.8812 -0.7865
   88MOL   H50449398   7.061   5.819   6.409  0.4214 -0.3995  0.9023
   88MOL   H50549399   6.935   5.797   6.621 -0.3685 -0.7586 -3.3650
   88MOL   O50649400   7.231   6.152   6.289  0.4454 -0.6679 -0.3828
   88MOL   C50749401   7.291   6.192   6.168 -0.0777 -0.3187  0.1303
   88MOL   C50849402   7.390   6.306   6.187  0.1008  1.1307  0.5114
   88MOL   C50949403   7.485   6.290   6.307  0.0537  0.1226 -1.0690
   88MOL   C51049404   7.571   6.422   6.310  0.0565  0.3844  0.4142
   88MOL   O51149405   7.652   6.433   6.429  0.3678 -0.1429 -0.5386
   88MOL   C51249406   7.745   6.534   6.437 -0.6062 -0.0502  0.1928
   88MOL   O51349407   7.756   6.610   6.346 -0.6376 -0.3888 -0.0715
   88MOL   C51449408   7.836   6.528   6.552  0.5079  0.0002 -0.2502
   88MOL   C51549409   7.842   6.414   6.633  0.4477  0.4488  0.2318
   88MOL   C51649410   7.919   6.417   6.749  0.0587 -0.4018  0.1038
   88MOL   C51749411   8.005   6.529   6.779  0.1565 -0.0463  0.0659
   88MOL   C51849412   8.095   6.532   6.902  0.0962  0.4162  0.2099
   88MOL   O51949413   0.047   6.634   6.942 -0.0891 -0.4241  0.7150
   88MOL   C52049414   8.011   6.642   6.693  0.3593  0.2868 -0.3980
   88MOL   C52149415   7.920   6.638   6.579 -0.4677 -0.9001 -0.3170
   88MOL   H52249416   7.355   6.110   6.135  0.1608  0.5483 -1.6454
   88MOL   H52349417   7.229   6.200   6.079  0.3687  0.1853 -0.1390
   88MOL   H52449418   7.349   6.407   6.195  0.6073  1.3285  0.6186
   88MOL   H52549419   7.444   6.309   6.093 -3.0334 -0.3537 -1.4289
   88MOL   H52649420   7.432   6.289   6.402  2.3657  0.2042  0.2585
   88MOL   H52749421   7.538   6.196   6.289 -1.2098 -0.5893 -1.1682
   88MOL   H52849422   7.625   6.422   6.215  0.7268 -0.8878  0.7855
   88MOL   H52949423   7.504   6.508   6.309  0.4806  0.7204 -2.2929
   88MOL   H53049424   7.779   6.331   6.608 -1.6549  1.8039  0.8987
   88MOL   H53149425   7.922   6.337   6.821  1.0339 -0.8138 -0.3887
   88MOL   H53249426   8.076   6.723   6.721  1.2132 -0.8716  1.0878
   88MOL   H53349427   7.909   6.723   6.514 -0.6301 -0.0390  0.8206
   88MOL   O53449428   0.010   6.417   6.968 -0.1848 -0.4607 -0.0504
   88MOL   C53549429   0.092   6.397   7.084  0.3050 -0.8981  0.2000
   88MOL   C53649430   0.014   6.334   7.195 -0.1203 -0.1640 -0.2325
   88MOL   C53749431   8.011   6.425   7.261  0.3266  0.2874  0.7107
   88MOL   C53849432   7.891   6.344   7.319 -0.7012 -0.3505  0.0900
   88MOL   O53949433   7.807   6.299   7.222  0.3060  0.6640  0.3046
   88MOL   C54049434   7.674   6.270   7.229  0.0729  0.2222  0.4037
   88MOL   O54149435   7.601   6.287   7.325  0.5212 -0.2234 -0.7066
   88MOL   C54249436   7.617   6.217   7.097 -0.4986 -0.1044  0.3312
   88MOL   C54349437   7.699   6.182   6.989 -0.1888  0.5897  0.2818
   88MOL   C54449438   7.647   6.126   6.870  0.2079 -0.0351  0.2483
   88MOL   C54549439   7.509   6.114   6.853 -0.1449  0.1864 -0.0218
   88MOL   C54649440   7.445   6.077   6.724 -0.5759  0.3992 -0.8515
   88MOL   O54749441   7.324   6.068   6.722 -0.1273 -0.0691  0.4516
   88MOL   C54849442   7.425   6.150   6.962 -0.0558 -0.1302 -0.2926
   88MOL   C54949443   7.477   6.200   7.081  0.8700 -0.1955  0.5836
   88MOL   H55049444   0.175   6.335   7.049 -0.3730 -0.6469 -1.9686
   88MOL   H55149445   0.121   6.498   7.113 -1.7418  0.2283 -1.4968
   88MOL   H55249446   0.081   6.302   7.275 -1.9690 -0.8998  1.0475
   88MOL   H55349447   8.068   6.239   7.168 -0.9274  0.3219 -0.6296
   88MOL   H55449448   8.060   6.490   7.334 -0.9724  1.1211  0.8510
   88MOL   H55549449   7.971   6.505   7.198  3.6314  1.6922  0.2754
   88MOL   H55649450   7.932   6.263   7.379  1.6195  1.6433  1.2874
   88MOL   H55749451   7.826   6.402   7.385 -1.5880 -1.5655  0.3122
   88MOL   H55849452   7.801   6.216   6.984  0.0232 -0.3030 -2.5192
   88MOL   H55949453   7.716   6.099   6.791  1.8733 -2.2437  2.3556
   88MOL   H56049454   7.317   6.151   6.953  0.0981 -0.2971 -2.5862
   88MOL   H56149455   7.400   6.227   7.153 -0.5248 -1.7717 -0.2940
   88MOL   H56249456   7.521   6.067   6.646  0.2866 -1.6249  0.2138
   8.09849   8.09849   8.09849
