;
; Gromacs include topology (itp) file.
; For Molecular Group XYZ
; Force field scheme: opls2005
; Produced from DL_FIELD v4.11
;


[ moleculetype ]
; name    nrexcl
XYZ    3

[ atoms ]
; nr   type   resnr   residu    atom    cgnr    charge    mass
    1       OAL    1  MOL      O1     1  -0.6830000   15.9994
    2        CT    1  MOL      C2     2   0.1450000   12.0115
    3        CT    1  MOL      C3     3  -0.1200000   12.0115
    4        CT    1  MOL      C4     4  -0.1200000   12.0115
    5        CT    1  MOL      C5     5   0.1900000   12.0115
    6       OES    1  MOL      O6     6  -0.3300000   15.9994
    7       CO4    1  MOL      C7     7   0.6250000   12.0115
    8         O    1  MOL      O8     8  -0.4300000   15.9994
    9        CA    1  MOL      C9     9  -0.1150000   12.0115
   10        CA    1  MOL     C10    10  -0.1150000   12.0115
   11        CA    1  MOL     C11    11  -0.1150000   12.0115
   12        CA    1  MOL     C12    12  -0.1150000   12.0115
   13       CO4    1  MOL     C13    13   0.6250000   12.0115
   14         O    1  MOL     O14    14  -0.4300000   15.9994
   15        CA    1  MOL     C15    15  -0.1150000   12.0115
   16        CA    1  MOL     C16    16  -0.1150000   12.0115
   17        HC    1  MOL     H17    17   0.0600000    1.0080
   18        HC    1  MOL     H18    18   0.0600000    1.0080
   19        HC    1  MOL     H19    19   0.0600000    1.0080
   20        HC    1  MOL     H20    20   0.0600000    1.0080
   21        HC    1  MOL     H21    21   0.0600000    1.0080
   22        HC    1  MOL     H22    22   0.0600000    1.0080
   23       HAE    1  MOL     H23    23   0.0300000    1.0080
   24       HAE    1  MOL     H24    24   0.0300000    1.0080
   25        HA    1  MOL     H25    25   0.1150000    1.0080
   26        HA    1  MOL     H26    26   0.1150000    1.0080
   27        HA    1  MOL     H27    27   0.1150000    1.0080
   28        HA    1  MOL     H28    28   0.1150000    1.0080
   29        HO    1  MOL     H29    29   0.4180000    1.0080
   30       OES    1  MOL     O30    30  -0.3300000   15.9994
   31        CT    1  MOL     C31    31   0.1900000   12.0115
   32        CT    1  MOL     C32    32  -0.1200000   12.0115
   33        CT    1  MOL     C33    33  -0.1200000   12.0115
   34        CT    1  MOL     C34    34   0.1900000   12.0115
   35       OES    1  MOL     O35    35  -0.3300000   15.9994
   36       CO4    1  MOL     C36    36   0.6250000   12.0115
   37         O    1  MOL     O37    37  -0.4300000   15.9994
   38        CA    1  MOL     C38    38  -0.1150000   12.0115
   39        CA    1  MOL     C39    39  -0.1150000   12.0115
   40        CA    1  MOL     C40    40  -0.1150000   12.0115
   41        CA    1  MOL     C41    41  -0.1150000   12.0115
   42       CO4    1  MOL     C42    42   0.6250000   12.0115
   43         O    1  MOL     O43    43  -0.4300000   15.9994
   44        CA    1  MOL     C44    44  -0.1150000   12.0115
   45        CA    1  MOL     C45    45  -0.1150000   12.0115
   46       HAE    1  MOL     H46    46   0.0300000    1.0080
   47       HAE    1  MOL     H47    47   0.0300000    1.0080
   48        HC    1  MOL     H48    48   0.0600000    1.0080
   49        HC    1  MOL     H49    49   0.0600000    1.0080
   50        HC    1  MOL     H50    50   0.0600000    1.0080
   51        HC    1  MOL     H51    51   0.0600000    1.0080
   52       HAE    1  MOL     H52    52   0.0300000    1.0080
   53       HAE    1  MOL     H53    53   0.0300000    1.0080
   54        HA    1  MOL     H54    54   0.1150000    1.0080
   55        HA    1  MOL     H55    55   0.1150000    1.0080
   56        HA    1  MOL     H56    56   0.1150000    1.0080
   57        HA    1  MOL     H57    57   0.1150000    1.0080
   58       OES    1  MOL     O58    58  -0.3300000   15.9994
   59        CT    1  MOL     C59    59   0.1900000   12.0115
   60        CT    1  MOL     C60    60  -0.1200000   12.0115
   61        CT    1  MOL     C61    61  -0.1200000   12.0115
   62        CT    1  MOL     C62    62   0.1900000   12.0115
   63       OES    1  MOL     O63    63  -0.3300000   15.9994
   64       CO4    1  MOL     C64    64   0.6250000   12.0115
   65         O    1  MOL     O65    65  -0.4300000   15.9994
   66        CA    1  MOL     C66    66  -0.1150000   12.0115
   67        CA    1  MOL     C67    67  -0.1150000   12.0115
   68        CA    1  MOL     C68    68  -0.1150000   12.0115
   69        CA    1  MOL     C69    69  -0.1150000   12.0115
   70       CO4    1  MOL     C70    70   0.6250000   12.0115
   71         O    1  MOL     O71    71  -0.4300000   15.9994
   72        CA    1  MOL     C72    72  -0.1150000   12.0115
   73        CA    1  MOL     C73    73  -0.1150000   12.0115
   74       HAE    1  MOL     H74    74   0.0300000    1.0080
   75       HAE    1  MOL     H75    75   0.0300000    1.0080
   76        HC    1  MOL     H76    76   0.0600000    1.0080
   77        HC    1  MOL     H77    77   0.0600000    1.0080
   78        HC    1  MOL     H78    78   0.0600000    1.0080
   79        HC    1  MOL     H79    79   0.0600000    1.0080
   80       HAE    1  MOL     H80    80   0.0300000    1.0080
   81       HAE    1  MOL     H81    81   0.0300000    1.0080
   82        HA    1  MOL     H82    82   0.1150000    1.0080
   83        HA    1  MOL     H83    83   0.1150000    1.0080
   84        HA    1  MOL     H84    84   0.1150000    1.0080
   85        HA    1  MOL     H85    85   0.1150000    1.0080
   86       OES    1  MOL     O86    86  -0.3300000   15.9994
   87        CT    1  MOL     C87    87   0.1900000   12.0115
   88        CT    1  MOL     C88    88  -0.1200000   12.0115
   89        CT    1  MOL     C89    89  -0.1200000   12.0115
   90        CT    1  MOL     C90    90   0.1900000   12.0115
   91       OES    1  MOL     O91    91  -0.3300000   15.9994
   92       CO4    1  MOL     C92    92   0.6250000   12.0115
   93         O    1  MOL     O93    93  -0.4300000   15.9994
   94        CA    1  MOL     C94    94  -0.1150000   12.0115
   95        CA    1  MOL     C95    95  -0.1150000   12.0115
   96        CA    1  MOL     C96    96  -0.1150000   12.0115
   97        CA    1  MOL     C97    97  -0.1150000   12.0115
   98       CO4    1  MOL     C98    98   0.6250000   12.0115
   99         O    1  MOL     O99    99  -0.4300000   15.9994
  100        CA    1  MOL    C100   100  -0.1150000   12.0115
  101        CA    1  MOL    C101   101  -0.1150000   12.0115
  102       HAE    1  MOL    H102   102   0.0300000    1.0080
  103       HAE    1  MOL    H103   103   0.0300000    1.0080
  104        HC    1  MOL    H104   104   0.0600000    1.0080
  105        HC    1  MOL    H105   105   0.0600000    1.0080
  106        HC    1  MOL    H106   106   0.0600000    1.0080
  107        HC    1  MOL    H107   107   0.0600000    1.0080
  108       HAE    1  MOL    H108   108   0.0300000    1.0080
  109       HAE    1  MOL    H109   109   0.0300000    1.0080
  110        HA    1  MOL    H110   110   0.1150000    1.0080
  111        HA    1  MOL    H111   111   0.1150000    1.0080
  112        HA    1  MOL    H112   112   0.1150000    1.0080
  113        HA    1  MOL    H113   113   0.1150000    1.0080
  114       OES    1  MOL    O114   114  -0.3300000   15.9994
  115        CT    1  MOL    C115   115   0.1900000   12.0115
  116        CT    1  MOL    C116   116  -0.1200000   12.0115
  117        CT    1  MOL    C117   117  -0.1200000   12.0115
  118        CT    1  MOL    C118   118   0.1900000   12.0115
  119       OES    1  MOL    O119   119  -0.3300000   15.9994
  120       CO4    1  MOL    C120   120   0.6250000   12.0115
  121         O    1  MOL    O121   121  -0.4300000   15.9994
  122        CA    1  MOL    C122   122  -0.1150000   12.0115
  123        CA    1  MOL    C123   123  -0.1150000   12.0115
  124        CA    1  MOL    C124   124  -0.1150000   12.0115
  125        CA    1  MOL    C125   125  -0.1150000   12.0115
  126       CO4    1  MOL    C126   126   0.6250000   12.0115
  127         O    1  MOL    O127   127  -0.4300000   15.9994
  128        CA    1  MOL    C128   128  -0.1150000   12.0115
  129        CA    1  MOL    C129   129  -0.1150000   12.0115
  130       HAE    1  MOL    H130   130   0.0300000    1.0080
  131       HAE    1  MOL    H131   131   0.0300000    1.0080
  132        HC    1  MOL    H132   132   0.0600000    1.0080
  133        HC    1  MOL    H133   133   0.0600000    1.0080
  134        HC    1  MOL    H134   134   0.0600000    1.0080
  135        HC    1  MOL    H135   135   0.0600000    1.0080
  136       HAE    1  MOL    H136   136   0.0300000    1.0080
  137       HAE    1  MOL    H137   137   0.0300000    1.0080
  138        HA    1  MOL    H138   138   0.1150000    1.0080
  139        HA    1  MOL    H139   139   0.1150000    1.0080
  140        HA    1  MOL    H140   140   0.1150000    1.0080
  141        HA    1  MOL    H141   141   0.1150000    1.0080
  142       OES    1  MOL    O142   142  -0.3300000   15.9994
  143        CT    1  MOL    C143   143   0.1900000   12.0115
  144        CT    1  MOL    C144   144  -0.1200000   12.0115
  145        CT    1  MOL    C145   145  -0.1200000   12.0115
  146        CT    1  MOL    C146   146   0.1900000   12.0115
  147       OES    1  MOL    O147   147  -0.3300000   15.9994
  148       CO4    1  MOL    C148   148   0.6250000   12.0115
  149         O    1  MOL    O149   149  -0.4300000   15.9994
  150        CA    1  MOL    C150   150  -0.1150000   12.0115
  151        CA    1  MOL    C151   151  -0.1150000   12.0115
  152        CA    1  MOL    C152   152  -0.1150000   12.0115
  153        CA    1  MOL    C153   153  -0.1150000   12.0115
  154       CO4    1  MOL    C154   154   0.6250000   12.0115
  155         O    1  MOL    O155   155  -0.4300000   15.9994
  156        CA    1  MOL    C156   156  -0.1150000   12.0115
  157        CA    1  MOL    C157   157  -0.1150000   12.0115
  158       HAE    1  MOL    H158   158   0.0300000    1.0080
  159       HAE    1  MOL    H159   159   0.0300000    1.0080
  160        HC    1  MOL    H160   160   0.0600000    1.0080
  161        HC    1  MOL    H161   161   0.0600000    1.0080
  162        HC    1  MOL    H162   162   0.0600000    1.0080
  163        HC    1  MOL    H163   163   0.0600000    1.0080
  164       HAE    1  MOL    H164   164   0.0300000    1.0080
  165       HAE    1  MOL    H165   165   0.0300000    1.0080
  166        HA    1  MOL    H166   166   0.1150000    1.0080
  167        HA    1  MOL    H167   167   0.1150000    1.0080
  168        HA    1  MOL    H168   168   0.1150000    1.0080
  169        HA    1  MOL    H169   169   0.1150000    1.0080
  170       OES    1  MOL    O170   170  -0.3300000   15.9994
  171        CT    1  MOL    C171   171   0.1900000   12.0115
  172        CT    1  MOL    C172   172  -0.1200000   12.0115
  173        CT    1  MOL    C173   173  -0.1200000   12.0115
  174        CT    1  MOL    C174   174   0.1900000   12.0115
  175       OES    1  MOL    O175   175  -0.3300000   15.9994
  176       CO4    1  MOL    C176   176   0.6250000   12.0115
  177         O    1  MOL    O177   177  -0.4300000   15.9994
  178        CA    1  MOL    C178   178  -0.1150000   12.0115
  179        CA    1  MOL    C179   179  -0.1150000   12.0115
  180        CA    1  MOL    C180   180  -0.1150000   12.0115
  181        CA    1  MOL    C181   181  -0.1150000   12.0115
  182       CO4    1  MOL    C182   182   0.6250000   12.0115
  183         O    1  MOL    O183   183  -0.4300000   15.9994
  184        CA    1  MOL    C184   184  -0.1150000   12.0115
  185        CA    1  MOL    C185   185  -0.1150000   12.0115
  186       HAE    1  MOL    H186   186   0.0300000    1.0080
  187       HAE    1  MOL    H187   187   0.0300000    1.0080
  188        HC    1  MOL    H188   188   0.0600000    1.0080
  189        HC    1  MOL    H189   189   0.0600000    1.0080
  190        HC    1  MOL    H190   190   0.0600000    1.0080
  191        HC    1  MOL    H191   191   0.0600000    1.0080
  192       HAE    1  MOL    H192   192   0.0300000    1.0080
  193       HAE    1  MOL    H193   193   0.0300000    1.0080
  194        HA    1  MOL    H194   194   0.1150000    1.0080
  195        HA    1  MOL    H195   195   0.1150000    1.0080
  196        HA    1  MOL    H196   196   0.1150000    1.0080
  197        HA    1  MOL    H197   197   0.1150000    1.0080
  198       OES    1  MOL    O198   198  -0.3300000   15.9994
  199        CT    1  MOL    C199   199   0.1900000   12.0115
  200        CT    1  MOL    C200   200  -0.1200000   12.0115
  201        CT    1  MOL    C201   201  -0.1200000   12.0115
  202        CT    1  MOL    C202   202   0.1900000   12.0115
  203       OES    1  MOL    O203   203  -0.3300000   15.9994
  204       CO4    1  MOL    C204   204   0.6250000   12.0115
  205         O    1  MOL    O205   205  -0.4300000   15.9994
  206        CA    1  MOL    C206   206  -0.1150000   12.0115
  207        CA    1  MOL    C207   207  -0.1150000   12.0115
  208        CA    1  MOL    C208   208  -0.1150000   12.0115
  209        CA    1  MOL    C209   209  -0.1150000   12.0115
  210       CO4    1  MOL    C210   210   0.6250000   12.0115
  211         O    1  MOL    O211   211  -0.4300000   15.9994
  212        CA    1  MOL    C212   212  -0.1150000   12.0115
  213        CA    1  MOL    C213   213  -0.1150000   12.0115
  214       HAE    1  MOL    H214   214   0.0300000    1.0080
  215       HAE    1  MOL    H215   215   0.0300000    1.0080
  216        HC    1  MOL    H216   216   0.0600000    1.0080
  217        HC    1  MOL    H217   217   0.0600000    1.0080
  218        HC    1  MOL    H218   218   0.0600000    1.0080
  219        HC    1  MOL    H219   219   0.0600000    1.0080
  220       HAE    1  MOL    H220   220   0.0300000    1.0080
  221       HAE    1  MOL    H221   221   0.0300000    1.0080
  222        HA    1  MOL    H222   222   0.1150000    1.0080
  223        HA    1  MOL    H223   223   0.1150000    1.0080
  224        HA    1  MOL    H224   224   0.1150000    1.0080
  225        HA    1  MOL    H225   225   0.1150000    1.0080
  226       OES    1  MOL    O226   226  -0.3300000   15.9994
  227        CT    1  MOL    C227   227   0.1900000   12.0115
  228        CT    1  MOL    C228   228  -0.1200000   12.0115
  229        CT    1  MOL    C229   229  -0.1200000   12.0115
  230        CT    1  MOL    C230   230   0.1900000   12.0115
  231       OES    1  MOL    O231   231  -0.3300000   15.9994
  232       CO4    1  MOL    C232   232   0.6250000   12.0115
  233         O    1  MOL    O233   233  -0.4300000   15.9994
  234        CA    1  MOL    C234   234  -0.1150000   12.0115
  235        CA    1  MOL    C235   235  -0.1150000   12.0115
  236        CA    1  MOL    C236   236  -0.1150000   12.0115
  237        CA    1  MOL    C237   237  -0.1150000   12.0115
  238       CO4    1  MOL    C238   238   0.6250000   12.0115
  239         O    1  MOL    O239   239  -0.4300000   15.9994
  240        CA    1  MOL    C240   240  -0.1150000   12.0115
  241        CA    1  MOL    C241   241  -0.1150000   12.0115
  242       HAE    1  MOL    H242   242   0.0300000    1.0080
  243       HAE    1  MOL    H243   243   0.0300000    1.0080
  244        HC    1  MOL    H244   244   0.0600000    1.0080
  245        HC    1  MOL    H245   245   0.0600000    1.0080
  246        HC    1  MOL    H246   246   0.0600000    1.0080
  247        HC    1  MOL    H247   247   0.0600000    1.0080
  248       HAE    1  MOL    H248   248   0.0300000    1.0080
  249       HAE    1  MOL    H249   249   0.0300000    1.0080
  250        HA    1  MOL    H250   250   0.1150000    1.0080
  251        HA    1  MOL    H251   251   0.1150000    1.0080
  252        HA    1  MOL    H252   252   0.1150000    1.0080
  253        HA    1  MOL    H253   253   0.1150000    1.0080
  254       OES    1  MOL    O254   254  -0.3300000   15.9994
  255        CT    1  MOL    C255   255   0.1900000   12.0115
  256        CT    1  MOL    C256   256  -0.1200000   12.0115
  257        CT    1  MOL    C257   257  -0.1200000   12.0115
  258        CT    1  MOL    C258   258   0.1900000   12.0115
  259       OES    1  MOL    O259   259  -0.3300000   15.9994
  260       CO4    1  MOL    C260   260   0.6250000   12.0115
  261         O    1  MOL    O261   261  -0.4300000   15.9994
  262        CA    1  MOL    C262   262  -0.1150000   12.0115
  263        CA    1  MOL    C263   263  -0.1150000   12.0115
  264        CA    1  MOL    C264   264  -0.1150000   12.0115
  265        CA    1  MOL    C265   265  -0.1150000   12.0115
  266       CO4    1  MOL    C266   266   0.6250000   12.0115
  267         O    1  MOL    O267   267  -0.4300000   15.9994
  268        CA    1  MOL    C268   268  -0.1150000   12.0115
  269        CA    1  MOL    C269   269  -0.1150000   12.0115
  270       HAE    1  MOL    H270   270   0.0300000    1.0080
  271       HAE    1  MOL    H271   271   0.0300000    1.0080
  272        HC    1  MOL    H272   272   0.0600000    1.0080
  273        HC    1  MOL    H273   273   0.0600000    1.0080
  274        HC    1  MOL    H274   274   0.0600000    1.0080
  275        HC    1  MOL    H275   275   0.0600000    1.0080
  276       HAE    1  MOL    H276   276   0.0300000    1.0080
  277       HAE    1  MOL    H277   277   0.0300000    1.0080
  278        HA    1  MOL    H278   278   0.1150000    1.0080
  279        HA    1  MOL    H279   279   0.1150000    1.0080
  280        HA    1  MOL    H280   280   0.1150000    1.0080
  281        HA    1  MOL    H281   281   0.1150000    1.0080
  282       OES    1  MOL    O282   282  -0.3300000   15.9994
  283        CT    1  MOL    C283   283   0.1900000   12.0115
  284        CT    1  MOL    C284   284  -0.1200000   12.0115
  285        CT    1  MOL    C285   285  -0.1200000   12.0115
  286        CT    1  MOL    C286   286   0.1900000   12.0115
  287       OES    1  MOL    O287   287  -0.3300000   15.9994
  288       CO4    1  MOL    C288   288   0.6250000   12.0115
  289         O    1  MOL    O289   289  -0.4300000   15.9994
  290        CA    1  MOL    C290   290  -0.1150000   12.0115
  291        CA    1  MOL    C291   291  -0.1150000   12.0115
  292        CA    1  MOL    C292   292  -0.1150000   12.0115
  293        CA    1  MOL    C293   293  -0.1150000   12.0115
  294       CO4    1  MOL    C294   294   0.6250000   12.0115
  295         O    1  MOL    O295   295  -0.4300000   15.9994
  296        CA    1  MOL    C296   296  -0.1150000   12.0115
  297        CA    1  MOL    C297   297  -0.1150000   12.0115
  298       HAE    1  MOL    H298   298   0.0300000    1.0080
  299       HAE    1  MOL    H299   299   0.0300000    1.0080
  300        HC    1  MOL    H300   300   0.0600000    1.0080
  301        HC    1  MOL    H301   301   0.0600000    1.0080
  302        HC    1  MOL    H302   302   0.0600000    1.0080
  303        HC    1  MOL    H303   303   0.0600000    1.0080
  304       HAE    1  MOL    H304   304   0.0300000    1.0080
  305       HAE    1  MOL    H305   305   0.0300000    1.0080
  306        HA    1  MOL    H306   306   0.1150000    1.0080
  307        HA    1  MOL    H307   307   0.1150000    1.0080
  308        HA    1  MOL    H308   308   0.1150000    1.0080
  309        HA    1  MOL    H309   309   0.1150000    1.0080
  310       OES    1  MOL    O310   310  -0.3300000   15.9994
  311        CT    1  MOL    C311   311   0.1900000   12.0115
  312        CT    1  MOL    C312   312  -0.1200000   12.0115
  313        CT    1  MOL    C313   313  -0.1200000   12.0115
  314        CT    1  MOL    C314   314   0.1900000   12.0115
  315       OES    1  MOL    O315   315  -0.3300000   15.9994
  316       CO4    1  MOL    C316   316   0.6250000   12.0115
  317         O    1  MOL    O317   317  -0.4300000   15.9994
  318        CA    1  MOL    C318   318  -0.1150000   12.0115
  319        CA    1  MOL    C319   319  -0.1150000   12.0115
  320        CA    1  MOL    C320   320  -0.1150000   12.0115
  321        CA    1  MOL    C321   321  -0.1150000   12.0115
  322       CO4    1  MOL    C322   322   0.6250000   12.0115
  323         O    1  MOL    O323   323  -0.4300000   15.9994
  324        CA    1  MOL    C324   324  -0.1150000   12.0115
  325        CA    1  MOL    C325   325  -0.1150000   12.0115
  326       HAE    1  MOL    H326   326   0.0300000    1.0080
  327       HAE    1  MOL    H327   327   0.0300000    1.0080
  328        HC    1  MOL    H328   328   0.0600000    1.0080
  329        HC    1  MOL    H329   329   0.0600000    1.0080
  330        HC    1  MOL    H330   330   0.0600000    1.0080
  331        HC    1  MOL    H331   331   0.0600000    1.0080
  332       HAE    1  MOL    H332   332   0.0300000    1.0080
  333       HAE    1  MOL    H333   333   0.0300000    1.0080
  334        HA    1  MOL    H334   334   0.1150000    1.0080
  335        HA    1  MOL    H335   335   0.1150000    1.0080
  336        HA    1  MOL    H336   336   0.1150000    1.0080
  337        HA    1  MOL    H337   337   0.1150000    1.0080
  338       OES    1  MOL    O338   338  -0.3300000   15.9994
  339        CT    1  MOL    C339   339   0.1900000   12.0115
  340        CT    1  MOL    C340   340  -0.1200000   12.0115
  341        CT    1  MOL    C341   341  -0.1200000   12.0115
  342        CT    1  MOL    C342   342   0.1900000   12.0115
  343       OES    1  MOL    O343   343  -0.3300000   15.9994
  344       CO4    1  MOL    C344   344   0.6250000   12.0115
  345         O    1  MOL    O345   345  -0.4300000   15.9994
  346        CA    1  MOL    C346   346  -0.1150000   12.0115
  347        CA    1  MOL    C347   347  -0.1150000   12.0115
  348        CA    1  MOL    C348   348  -0.1150000   12.0115
  349        CA    1  MOL    C349   349  -0.1150000   12.0115
  350       CO4    1  MOL    C350   350   0.6250000   12.0115
  351         O    1  MOL    O351   351  -0.4300000   15.9994
  352        CA    1  MOL    C352   352  -0.1150000   12.0115
  353        CA    1  MOL    C353   353  -0.1150000   12.0115
  354       HAE    1  MOL    H354   354   0.0300000    1.0080
  355       HAE    1  MOL    H355   355   0.0300000    1.0080
  356        HC    1  MOL    H356   356   0.0600000    1.0080
  357        HC    1  MOL    H357   357   0.0600000    1.0080
  358        HC    1  MOL    H358   358   0.0600000    1.0080
  359        HC    1  MOL    H359   359   0.0600000    1.0080
  360       HAE    1  MOL    H360   360   0.0300000    1.0080
  361       HAE    1  MOL    H361   361   0.0300000    1.0080
  362        HA    1  MOL    H362   362   0.1150000    1.0080
  363        HA    1  MOL    H363   363   0.1150000    1.0080
  364        HA    1  MOL    H364   364   0.1150000    1.0080
  365        HA    1  MOL    H365   365   0.1150000    1.0080
  366       OES    1  MOL    O366   366  -0.3300000   15.9994
  367        CT    1  MOL    C367   367   0.1900000   12.0115
  368        CT    1  MOL    C368   368  -0.1200000   12.0115
  369        CT    1  MOL    C369   369  -0.1200000   12.0115
  370        CT    1  MOL    C370   370   0.1900000   12.0115
  371       OES    1  MOL    O371   371  -0.3300000   15.9994
  372       CO4    1  MOL    C372   372   0.6250000   12.0115
  373         O    1  MOL    O373   373  -0.4300000   15.9994
  374        CA    1  MOL    C374   374  -0.1150000   12.0115
  375        CA    1  MOL    C375   375  -0.1150000   12.0115
  376        CA    1  MOL    C376   376  -0.1150000   12.0115
  377        CA    1  MOL    C377   377  -0.1150000   12.0115
  378       CO4    1  MOL    C378   378   0.6250000   12.0115
  379         O    1  MOL    O379   379  -0.4300000   15.9994
  380        CA    1  MOL    C380   380  -0.1150000   12.0115
  381        CA    1  MOL    C381   381  -0.1150000   12.0115
  382       HAE    1  MOL    H382   382   0.0300000    1.0080
  383       HAE    1  MOL    H383   383   0.0300000    1.0080
  384        HC    1  MOL    H384   384   0.0600000    1.0080
  385        HC    1  MOL    H385   385   0.0600000    1.0080
  386        HC    1  MOL    H386   386   0.0600000    1.0080
  387        HC    1  MOL    H387   387   0.0600000    1.0080
  388       HAE    1  MOL    H388   388   0.0300000    1.0080
  389       HAE    1  MOL    H389   389   0.0300000    1.0080
  390        HA    1  MOL    H390   390   0.1150000    1.0080
  391        HA    1  MOL    H391   391   0.1150000    1.0080
  392        HA    1  MOL    H392   392   0.1150000    1.0080
  393        HA    1  MOL    H393   393   0.1150000    1.0080
  394       OES    1  MOL    O394   394  -0.3300000   15.9994
  395        CT    1  MOL    C395   395   0.1900000   12.0115
  396        CT    1  MOL    C396   396  -0.1200000   12.0115
  397        CT    1  MOL    C397   397  -0.1200000   12.0115
  398        CT    1  MOL    C398   398   0.1900000   12.0115
  399       OES    1  MOL    O399   399  -0.3300000   15.9994
  400       CO4    1  MOL    C400   400   0.6250000   12.0115
  401         O    1  MOL    O401   401  -0.4300000   15.9994
  402        CA    1  MOL    C402   402  -0.1150000   12.0115
  403        CA    1  MOL    C403   403  -0.1150000   12.0115
  404        CA    1  MOL    C404   404  -0.1150000   12.0115
  405        CA    1  MOL    C405   405  -0.1150000   12.0115
  406       CO4    1  MOL    C406   406   0.6250000   12.0115
  407         O    1  MOL    O407   407  -0.4300000   15.9994
  408        CA    1  MOL    C408   408  -0.1150000   12.0115
  409        CA    1  MOL    C409   409  -0.1150000   12.0115
  410       HAE    1  MOL    H410   410   0.0300000    1.0080
  411       HAE    1  MOL    H411   411   0.0300000    1.0080
  412        HC    1  MOL    H412   412   0.0600000    1.0080
  413        HC    1  MOL    H413   413   0.0600000    1.0080
  414        HC    1  MOL    H414   414   0.0600000    1.0080
  415        HC    1  MOL    H415   415   0.0600000    1.0080
  416       HAE    1  MOL    H416   416   0.0300000    1.0080
  417       HAE    1  MOL    H417   417   0.0300000    1.0080
  418        HA    1  MOL    H418   418   0.1150000    1.0080
  419        HA    1  MOL    H419   419   0.1150000    1.0080
  420        HA    1  MOL    H420   420   0.1150000    1.0080
  421        HA    1  MOL    H421   421   0.1150000    1.0080
  422       OES    1  MOL    O422   422  -0.3300000   15.9994
  423        CT    1  MOL    C423   423   0.1900000   12.0115
  424        CT    1  MOL    C424   424  -0.1200000   12.0115
  425        CT    1  MOL    C425   425  -0.1200000   12.0115
  426        CT    1  MOL    C426   426   0.1900000   12.0115
  427       OES    1  MOL    O427   427  -0.3300000   15.9994
  428       CO4    1  MOL    C428   428   0.6250000   12.0115
  429         O    1  MOL    O429   429  -0.4300000   15.9994
  430        CA    1  MOL    C430   430  -0.1150000   12.0115
  431        CA    1  MOL    C431   431  -0.1150000   12.0115
  432        CA    1  MOL    C432   432  -0.1150000   12.0115
  433        CA    1  MOL    C433   433  -0.1150000   12.0115
  434       CO4    1  MOL    C434   434   0.6250000   12.0115
  435         O    1  MOL    O435   435  -0.4300000   15.9994
  436        CA    1  MOL    C436   436  -0.1150000   12.0115
  437        CA    1  MOL    C437   437  -0.1150000   12.0115
  438       HAE    1  MOL    H438   438   0.0300000    1.0080
  439       HAE    1  MOL    H439   439   0.0300000    1.0080
  440        HC    1  MOL    H440   440   0.0600000    1.0080
  441        HC    1  MOL    H441   441   0.0600000    1.0080
  442        HC    1  MOL    H442   442   0.0600000    1.0080
  443        HC    1  MOL    H443   443   0.0600000    1.0080
  444       HAE    1  MOL    H444   444   0.0300000    1.0080
  445       HAE    1  MOL    H445   445   0.0300000    1.0080
  446        HA    1  MOL    H446   446   0.1150000    1.0080
  447        HA    1  MOL    H447   447   0.1150000    1.0080
  448        HA    1  MOL    H448   448   0.1150000    1.0080
  449        HA    1  MOL    H449   449   0.1150000    1.0080
  450       OES    1  MOL    O450   450  -0.3300000   15.9994
  451        CT    1  MOL    C451   451   0.1900000   12.0115
  452        CT    1  MOL    C452   452  -0.1200000   12.0115
  453        CT    1  MOL    C453   453  -0.1200000   12.0115
  454        CT    1  MOL    C454   454   0.1900000   12.0115
  455       OES    1  MOL    O455   455  -0.3300000   15.9994
  456       CO4    1  MOL    C456   456   0.6250000   12.0115
  457         O    1  MOL    O457   457  -0.4300000   15.9994
  458        CA    1  MOL    C458   458  -0.1150000   12.0115
  459        CA    1  MOL    C459   459  -0.1150000   12.0115
  460        CA    1  MOL    C460   460  -0.1150000   12.0115
  461        CA    1  MOL    C461   461  -0.1150000   12.0115
  462       CO4    1  MOL    C462   462   0.6250000   12.0115
  463         O    1  MOL    O463   463  -0.4300000   15.9994
  464        CA    1  MOL    C464   464  -0.1150000   12.0115
  465        CA    1  MOL    C465   465  -0.1150000   12.0115
  466       HAE    1  MOL    H466   466   0.0300000    1.0080
  467       HAE    1  MOL    H467   467   0.0300000    1.0080
  468        HC    1  MOL    H468   468   0.0600000    1.0080
  469        HC    1  MOL    H469   469   0.0600000    1.0080
  470        HC    1  MOL    H470   470   0.0600000    1.0080
  471        HC    1  MOL    H471   471   0.0600000    1.0080
  472       HAE    1  MOL    H472   472   0.0300000    1.0080
  473       HAE    1  MOL    H473   473   0.0300000    1.0080
  474        HA    1  MOL    H474   474   0.1150000    1.0080
  475        HA    1  MOL    H475   475   0.1150000    1.0080
  476        HA    1  MOL    H476   476   0.1150000    1.0080
  477        HA    1  MOL    H477   477   0.1150000    1.0080
  478       OES    1  MOL    O478   478  -0.3300000   15.9994
  479        CT    1  MOL    C479   479   0.1900000   12.0115
  480        CT    1  MOL    C480   480  -0.1200000   12.0115
  481        CT    1  MOL    C481   481  -0.1200000   12.0115
  482        CT    1  MOL    C482   482   0.1900000   12.0115
  483       OES    1  MOL    O483   483  -0.3300000   15.9994
  484       CO4    1  MOL    C484   484   0.6250000   12.0115
  485         O    1  MOL    O485   485  -0.4300000   15.9994
  486        CA    1  MOL    C486   486  -0.1150000   12.0115
  487        CA    1  MOL    C487   487  -0.1150000   12.0115
  488        CA    1  MOL    C488   488  -0.1150000   12.0115
  489        CA    1  MOL    C489   489  -0.1150000   12.0115
  490       CO4    1  MOL    C490   490   0.6250000   12.0115
  491         O    1  MOL    O491   491  -0.4300000   15.9994
  492        CA    1  MOL    C492   492  -0.1150000   12.0115
  493        CA    1  MOL    C493   493  -0.1150000   12.0115
  494       HAE    1  MOL    H494   494   0.0300000    1.0080
  495       HAE    1  MOL    H495   495   0.0300000    1.0080
  496        HC    1  MOL    H496   496   0.0600000    1.0080
  497        HC    1  MOL    H497   497   0.0600000    1.0080
  498        HC    1  MOL    H498   498   0.0600000    1.0080
  499        HC    1  MOL    H499   499   0.0600000    1.0080
  500       HAE    1  MOL    H500   500   0.0300000    1.0080
  501       HAE    1  MOL    H501   501   0.0300000    1.0080
  502        HA    1  MOL    H502   502   0.1150000    1.0080
  503        HA    1  MOL    H503   503   0.1150000    1.0080
  504        HA    1  MOL    H504   504   0.1150000    1.0080
  505        HA    1  MOL    H505   505   0.1150000    1.0080
  506       OES    1  MOL    O506   506  -0.3300000   15.9994
  507        CT    1  MOL    C507   507   0.1900000   12.0115
  508        CT    1  MOL    C508   508  -0.1200000   12.0115
  509        CT    1  MOL    C509   509  -0.1200000   12.0115
  510        CT    1  MOL    C510   510   0.1900000   12.0115
  511       OES    1  MOL    O511   511  -0.3300000   15.9994
  512       CO4    1  MOL    C512   512   0.6250000   12.0115
  513         O    1  MOL    O513   513  -0.4300000   15.9994
  514        CA    1  MOL    C514   514  -0.1150000   12.0115
  515        CA    1  MOL    C515   515  -0.1150000   12.0115
  516        CA    1  MOL    C516   516  -0.1150000   12.0115
  517        CA    1  MOL    C517   517  -0.1150000   12.0115
  518       CO4    1  MOL    C518   518   0.6250000   12.0115
  519         O    1  MOL    O519   519  -0.4300000   15.9994
  520        CA    1  MOL    C520   520  -0.1150000   12.0115
  521        CA    1  MOL    C521   521  -0.1150000   12.0115
  522       HAE    1  MOL    H522   522   0.0300000    1.0080
  523       HAE    1  MOL    H523   523   0.0300000    1.0080
  524        HC    1  MOL    H524   524   0.0600000    1.0080
  525        HC    1  MOL    H525   525   0.0600000    1.0080
  526        HC    1  MOL    H526   526   0.0600000    1.0080
  527        HC    1  MOL    H527   527   0.0600000    1.0080
  528       HAE    1  MOL    H528   528   0.0300000    1.0080
  529       HAE    1  MOL    H529   529   0.0300000    1.0080
  530        HA    1  MOL    H530   530   0.1150000    1.0080
  531        HA    1  MOL    H531   531   0.1150000    1.0080
  532        HA    1  MOL    H532   532   0.1150000    1.0080
  533        HA    1  MOL    H533   533   0.1150000    1.0080
  534       OES    1  MOL    O534   534  -0.3300000   15.9994
  535        CT    1  MOL    C535   535   0.1900000   12.0115
  536        CT    1  MOL    C536   536  -0.1200000   12.0115
  537        CT    1  MOL    C537   537  -0.1200000   12.0115
  538        CT    1  MOL    C538   538   0.1900000   12.0115
  539       OES    1  MOL    O539   539  -0.3300000   15.9994
  540       CO4    1  MOL    C540   540   0.6250000   12.0115
  541         O    1  MOL    O541   541  -0.4300000   15.9994
  542        CA    1  MOL    C542   542  -0.1150000   12.0115
  543        CA    1  MOL    C543   543  -0.1150000   12.0115
  544        CA    1  MOL    C544   544  -0.1150000   12.0115
  545        CA    1  MOL    C545   545  -0.1150000   12.0115
  546       CO4    1  MOL    C546   546   0.5650000   12.0115
  547         O    1  MOL    O547   547  -0.4500000   15.9994
  548        CA    1  MOL    C548   548  -0.1150000   12.0115
  549        CA    1  MOL    C549   549  -0.1150000   12.0115
  550       HAE    1  MOL    H550   550   0.0300000    1.0080
  551       HAE    1  MOL    H551   551   0.0300000    1.0080
  552        HC    1  MOL    H552   552   0.0600000    1.0080
  553        HC    1  MOL    H553   553   0.0600000    1.0080
  554        HC    1  MOL    H554   554   0.0600000    1.0080
  555        HC    1  MOL    H555   555   0.0600000    1.0080
  556       HAE    1  MOL    H556   556   0.0300000    1.0080
  557       HAE    1  MOL    H557   557   0.0300000    1.0080
  558        HA    1  MOL    H558   558   0.1150000    1.0080
  559        HA    1  MOL    H559   559   0.1150000    1.0080
  560        HA    1  MOL    H560   560   0.1150000    1.0080
  561        HA    1  MOL    H561   561   0.1150000    1.0080
  562       HAE    1  MOL    H562   562   0.0000000    1.0080

[ bonds ]
      1      2   1      0.1410 267776.0000
      1     29   1      0.0945 462750.4000
      2      3   1      0.1529 224262.4000
      2     17   1      0.1090 284512.0000
      2     18   1      0.1090 284512.0000
      3      4   1      0.1529 224262.4000
      3     19   1      0.1090 284512.0000
      3     20   1      0.1090 284512.0000
      4      5   1      0.1529 224262.4000
      4     21   1      0.1090 284512.0000
      4     22   1      0.1090 284512.0000
      5      6   1      0.1410 267776.0000
      5     23   1      0.1090 284512.0000
      5     24   1      0.1090 284512.0000
      6      7   1      0.1327 179075.2000
      7      8   1      0.1229 476976.0000
      7      9   1      0.1470 259408.0000
      9     10   1      0.1400 392459.2000
      9     16   1      0.1400 392459.2000
     10     11   1      0.1400 392459.2000
     10     25   1      0.1080 307105.6000
     11     12   1      0.1400 392459.2000
     11     26   1      0.1080 307105.6000
     12     13   1      0.1470 259408.0000
     12     15   1      0.1400 392459.2000
     13     14   1      0.1229 476976.0000
     13     30   1      0.1327 179075.2000
     15     16   1      0.1400 392459.2000
     15     27   1      0.1080 307105.6000
     16     28   1      0.1080 307105.6000
     30     31   1      0.1410 267776.0000
     31     32   1      0.1529 224262.4000
     31     46   1      0.1090 284512.0000
     31     47   1      0.1090 284512.0000
     32     33   1      0.1529 224262.4000
     32     48   1      0.1090 284512.0000
     32     49   1      0.1090 284512.0000
     33     34   1      0.1529 224262.4000
     33     50   1      0.1090 284512.0000
     33     51   1      0.1090 284512.0000
     34     35   1      0.1410 267776.0000
     34     52   1      0.1090 284512.0000
     34     53   1      0.1090 284512.0000
     35     36   1      0.1327 179075.2000
     36     37   1      0.1229 476976.0000
     36     38   1      0.1470 259408.0000
     38     39   1      0.1400 392459.2000
     38     45   1      0.1400 392459.2000
     39     40   1      0.1400 392459.2000
     39     54   1      0.1080 307105.6000
     40     41   1      0.1400 392459.2000
     40     55   1      0.1080 307105.6000
     41     42   1      0.1470 259408.0000
     41     44   1      0.1400 392459.2000
     42     43   1      0.1229 476976.0000
     42     58   1      0.1327 179075.2000
     44     45   1      0.1400 392459.2000
     44     56   1      0.1080 307105.6000
     45     57   1      0.1080 307105.6000
     58     59   1      0.1410 267776.0000
     59     60   1      0.1529 224262.4000
     59     74   1      0.1090 284512.0000
     59     75   1      0.1090 284512.0000
     60     61   1      0.1529 224262.4000
     60     76   1      0.1090 284512.0000
     60     77   1      0.1090 284512.0000
     61     62   1      0.1529 224262.4000
     61     78   1      0.1090 284512.0000
     61     79   1      0.1090 284512.0000
     62     63   1      0.1410 267776.0000
     62     80   1      0.1090 284512.0000
     62     81   1      0.1090 284512.0000
     63     64   1      0.1327 179075.2000
     64     65   1      0.1229 476976.0000
     64     66   1      0.1470 259408.0000
     66     67   1      0.1400 392459.2000
     66     73   1      0.1400 392459.2000
     67     68   1      0.1400 392459.2000
     67     82   1      0.1080 307105.6000
     68     69   1      0.1400 392459.2000
     68     83   1      0.1080 307105.6000
     69     70   1      0.1470 259408.0000
     69     72   1      0.1400 392459.2000
     70     71   1      0.1229 476976.0000
     70     86   1      0.1327 179075.2000
     72     73   1      0.1400 392459.2000
     72     84   1      0.1080 307105.6000
     73     85   1      0.1080 307105.6000
     86     87   1      0.1410 267776.0000
     87     88   1      0.1529 224262.4000
     87    102   1      0.1090 284512.0000
     87    103   1      0.1090 284512.0000
     88     89   1      0.1529 224262.4000
     88    104   1      0.1090 284512.0000
     88    105   1      0.1090 284512.0000
     89     90   1      0.1529 224262.4000
     89    106   1      0.1090 284512.0000
     89    107   1      0.1090 284512.0000
     90     91   1      0.1410 267776.0000
     90    108   1      0.1090 284512.0000
     90    109   1      0.1090 284512.0000
     91     92   1      0.1327 179075.2000
     92     93   1      0.1229 476976.0000
     92     94   1      0.1470 259408.0000
     94     95   1      0.1400 392459.2000
     94    101   1      0.1400 392459.2000
     95     96   1      0.1400 392459.2000
     95    110   1      0.1080 307105.6000
     96     97   1      0.1400 392459.2000
     96    111   1      0.1080 307105.6000
     97     98   1      0.1470 259408.0000
     97    100   1      0.1400 392459.2000
     98     99   1      0.1229 476976.0000
     98    114   1      0.1327 179075.2000
    100    101   1      0.1400 392459.2000
    100    112   1      0.1080 307105.6000
    101    113   1      0.1080 307105.6000
    114    115   1      0.1410 267776.0000
    115    116   1      0.1529 224262.4000
    115    130   1      0.1090 284512.0000
    115    131   1      0.1090 284512.0000
    116    117   1      0.1529 224262.4000
    116    132   1      0.1090 284512.0000
    116    133   1      0.1090 284512.0000
    117    118   1      0.1529 224262.4000
    117    134   1      0.1090 284512.0000
    117    135   1      0.1090 284512.0000
    118    119   1      0.1410 267776.0000
    118    136   1      0.1090 284512.0000
    118    137   1      0.1090 284512.0000
    119    120   1      0.1327 179075.2000
    120    121   1      0.1229 476976.0000
    120    122   1      0.1470 259408.0000
    122    123   1      0.1400 392459.2000
    122    129   1      0.1400 392459.2000
    123    124   1      0.1400 392459.2000
    123    138   1      0.1080 307105.6000
    124    125   1      0.1400 392459.2000
    124    139   1      0.1080 307105.6000
    125    126   1      0.1470 259408.0000
    125    128   1      0.1400 392459.2000
    126    127   1      0.1229 476976.0000
    126    142   1      0.1327 179075.2000
    128    129   1      0.1400 392459.2000
    128    140   1      0.1080 307105.6000
    129    141   1      0.1080 307105.6000
    142    143   1      0.1410 267776.0000
    143    144   1      0.1529 224262.4000
    143    158   1      0.1090 284512.0000
    143    159   1      0.1090 284512.0000
    144    145   1      0.1529 224262.4000
    144    160   1      0.1090 284512.0000
    144    161   1      0.1090 284512.0000
    145    146   1      0.1529 224262.4000
    145    162   1      0.1090 284512.0000
    145    163   1      0.1090 284512.0000
    146    147   1      0.1410 267776.0000
    146    164   1      0.1090 284512.0000
    146    165   1      0.1090 284512.0000
    147    148   1      0.1327 179075.2000
    148    149   1      0.1229 476976.0000
    148    150   1      0.1470 259408.0000
    150    151   1      0.1400 392459.2000
    150    157   1      0.1400 392459.2000
    151    152   1      0.1400 392459.2000
    151    166   1      0.1080 307105.6000
    152    153   1      0.1400 392459.2000
    152    167   1      0.1080 307105.6000
    153    154   1      0.1470 259408.0000
    153    156   1      0.1400 392459.2000
    154    155   1      0.1229 476976.0000
    154    170   1      0.1327 179075.2000
    156    157   1      0.1400 392459.2000
    156    168   1      0.1080 307105.6000
    157    169   1      0.1080 307105.6000
    170    171   1      0.1410 267776.0000
    171    172   1      0.1529 224262.4000
    171    186   1      0.1090 284512.0000
    171    187   1      0.1090 284512.0000
    172    173   1      0.1529 224262.4000
    172    188   1      0.1090 284512.0000
    172    189   1      0.1090 284512.0000
    173    174   1      0.1529 224262.4000
    173    190   1      0.1090 284512.0000
    173    191   1      0.1090 284512.0000
    174    175   1      0.1410 267776.0000
    174    192   1      0.1090 284512.0000
    174    193   1      0.1090 284512.0000
    175    176   1      0.1327 179075.2000
    176    177   1      0.1229 476976.0000
    176    178   1      0.1470 259408.0000
    178    179   1      0.1400 392459.2000
    178    185   1      0.1400 392459.2000
    179    180   1      0.1400 392459.2000
    179    194   1      0.1080 307105.6000
    180    181   1      0.1400 392459.2000
    180    195   1      0.1080 307105.6000
    181    182   1      0.1470 259408.0000
    181    184   1      0.1400 392459.2000
    182    183   1      0.1229 476976.0000
    182    198   1      0.1327 179075.2000
    184    185   1      0.1400 392459.2000
    184    196   1      0.1080 307105.6000
    185    197   1      0.1080 307105.6000
    198    199   1      0.1410 267776.0000
    199    200   1      0.1529 224262.4000
    199    214   1      0.1090 284512.0000
    199    215   1      0.1090 284512.0000
    200    201   1      0.1529 224262.4000
    200    216   1      0.1090 284512.0000
    200    217   1      0.1090 284512.0000
    201    202   1      0.1529 224262.4000
    201    218   1      0.1090 284512.0000
    201    219   1      0.1090 284512.0000
    202    203   1      0.1410 267776.0000
    202    220   1      0.1090 284512.0000
    202    221   1      0.1090 284512.0000
    203    204   1      0.1327 179075.2000
    204    205   1      0.1229 476976.0000
    204    206   1      0.1470 259408.0000
    206    207   1      0.1400 392459.2000
    206    213   1      0.1400 392459.2000
    207    208   1      0.1400 392459.2000
    207    222   1      0.1080 307105.6000
    208    209   1      0.1400 392459.2000
    208    223   1      0.1080 307105.6000
    209    210   1      0.1470 259408.0000
    209    212   1      0.1400 392459.2000
    210    211   1      0.1229 476976.0000
    210    226   1      0.1327 179075.2000
    212    213   1      0.1400 392459.2000
    212    224   1      0.1080 307105.6000
    213    225   1      0.1080 307105.6000
    226    227   1      0.1410 267776.0000
    227    228   1      0.1529 224262.4000
    227    242   1      0.1090 284512.0000
    227    243   1      0.1090 284512.0000
    228    229   1      0.1529 224262.4000
    228    244   1      0.1090 284512.0000
    228    245   1      0.1090 284512.0000
    229    230   1      0.1529 224262.4000
    229    246   1      0.1090 284512.0000
    229    247   1      0.1090 284512.0000
    230    231   1      0.1410 267776.0000
    230    248   1      0.1090 284512.0000
    230    249   1      0.1090 284512.0000
    231    232   1      0.1327 179075.2000
    232    233   1      0.1229 476976.0000
    232    234   1      0.1470 259408.0000
    234    235   1      0.1400 392459.2000
    234    241   1      0.1400 392459.2000
    235    236   1      0.1400 392459.2000
    235    250   1      0.1080 307105.6000
    236    237   1      0.1400 392459.2000
    236    251   1      0.1080 307105.6000
    237    238   1      0.1470 259408.0000
    237    240   1      0.1400 392459.2000
    238    239   1      0.1229 476976.0000
    238    254   1      0.1327 179075.2000
    240    241   1      0.1400 392459.2000
    240    252   1      0.1080 307105.6000
    241    253   1      0.1080 307105.6000
    254    255   1      0.1410 267776.0000
    255    256   1      0.1529 224262.4000
    255    270   1      0.1090 284512.0000
    255    271   1      0.1090 284512.0000
    256    257   1      0.1529 224262.4000
    256    272   1      0.1090 284512.0000
    256    273   1      0.1090 284512.0000
    257    258   1      0.1529 224262.4000
    257    274   1      0.1090 284512.0000
    257    275   1      0.1090 284512.0000
    258    259   1      0.1410 267776.0000
    258    276   1      0.1090 284512.0000
    258    277   1      0.1090 284512.0000
    259    260   1      0.1327 179075.2000
    260    261   1      0.1229 476976.0000
    260    262   1      0.1470 259408.0000
    262    263   1      0.1400 392459.2000
    262    269   1      0.1400 392459.2000
    263    264   1      0.1400 392459.2000
    263    278   1      0.1080 307105.6000
    264    265   1      0.1400 392459.2000
    264    279   1      0.1080 307105.6000
    265    266   1      0.1470 259408.0000
    265    268   1      0.1400 392459.2000
    266    267   1      0.1229 476976.0000
    266    282   1      0.1327 179075.2000
    268    269   1      0.1400 392459.2000
    268    280   1      0.1080 307105.6000
    269    281   1      0.1080 307105.6000
    282    283   1      0.1410 267776.0000
    283    284   1      0.1529 224262.4000
    283    298   1      0.1090 284512.0000
    283    299   1      0.1090 284512.0000
    284    285   1      0.1529 224262.4000
    284    300   1      0.1090 284512.0000
    284    301   1      0.1090 284512.0000
    285    286   1      0.1529 224262.4000
    285    302   1      0.1090 284512.0000
    285    303   1      0.1090 284512.0000
    286    287   1      0.1410 267776.0000
    286    304   1      0.1090 284512.0000
    286    305   1      0.1090 284512.0000
    287    288   1      0.1327 179075.2000
    288    289   1      0.1229 476976.0000
    288    290   1      0.1470 259408.0000
    290    291   1      0.1400 392459.2000
    290    297   1      0.1400 392459.2000
    291    292   1      0.1400 392459.2000
    291    306   1      0.1080 307105.6000
    292    293   1      0.1400 392459.2000
    292    307   1      0.1080 307105.6000
    293    294   1      0.1470 259408.0000
    293    296   1      0.1400 392459.2000
    294    295   1      0.1229 476976.0000
    294    310   1      0.1327 179075.2000
    296    297   1      0.1400 392459.2000
    296    308   1      0.1080 307105.6000
    297    309   1      0.1080 307105.6000
    310    311   1      0.1410 267776.0000
    311    312   1      0.1529 224262.4000
    311    326   1      0.1090 284512.0000
    311    327   1      0.1090 284512.0000
    312    313   1      0.1529 224262.4000
    312    328   1      0.1090 284512.0000
    312    329   1      0.1090 284512.0000
    313    314   1      0.1529 224262.4000
    313    330   1      0.1090 284512.0000
    313    331   1      0.1090 284512.0000
    314    315   1      0.1410 267776.0000
    314    332   1      0.1090 284512.0000
    314    333   1      0.1090 284512.0000
    315    316   1      0.1327 179075.2000
    316    317   1      0.1229 476976.0000
    316    318   1      0.1470 259408.0000
    318    319   1      0.1400 392459.2000
    318    325   1      0.1400 392459.2000
    319    320   1      0.1400 392459.2000
    319    334   1      0.1080 307105.6000
    320    321   1      0.1400 392459.2000
    320    335   1      0.1080 307105.6000
    321    322   1      0.1470 259408.0000
    321    324   1      0.1400 392459.2000
    322    323   1      0.1229 476976.0000
    322    338   1      0.1327 179075.2000
    324    325   1      0.1400 392459.2000
    324    336   1      0.1080 307105.6000
    325    337   1      0.1080 307105.6000
    338    339   1      0.1410 267776.0000
    339    340   1      0.1529 224262.4000
    339    354   1      0.1090 284512.0000
    339    355   1      0.1090 284512.0000
    340    341   1      0.1529 224262.4000
    340    356   1      0.1090 284512.0000
    340    357   1      0.1090 284512.0000
    341    342   1      0.1529 224262.4000
    341    358   1      0.1090 284512.0000
    341    359   1      0.1090 284512.0000
    342    343   1      0.1410 267776.0000
    342    360   1      0.1090 284512.0000
    342    361   1      0.1090 284512.0000
    343    344   1      0.1327 179075.2000
    344    345   1      0.1229 476976.0000
    344    346   1      0.1470 259408.0000
    346    347   1      0.1400 392459.2000
    346    353   1      0.1400 392459.2000
    347    348   1      0.1400 392459.2000
    347    362   1      0.1080 307105.6000
    348    349   1      0.1400 392459.2000
    348    363   1      0.1080 307105.6000
    349    350   1      0.1470 259408.0000
    349    352   1      0.1400 392459.2000
    350    351   1      0.1229 476976.0000
    350    366   1      0.1327 179075.2000
    352    353   1      0.1400 392459.2000
    352    364   1      0.1080 307105.6000
    353    365   1      0.1080 307105.6000
    366    367   1      0.1410 267776.0000
    367    368   1      0.1529 224262.4000
    367    382   1      0.1090 284512.0000
    367    383   1      0.1090 284512.0000
    368    369   1      0.1529 224262.4000
    368    384   1      0.1090 284512.0000
    368    385   1      0.1090 284512.0000
    369    370   1      0.1529 224262.4000
    369    386   1      0.1090 284512.0000
    369    387   1      0.1090 284512.0000
    370    371   1      0.1410 267776.0000
    370    388   1      0.1090 284512.0000
    370    389   1      0.1090 284512.0000
    371    372   1      0.1327 179075.2000
    372    373   1      0.1229 476976.0000
    372    374   1      0.1470 259408.0000
    374    375   1      0.1400 392459.2000
    374    381   1      0.1400 392459.2000
    375    376   1      0.1400 392459.2000
    375    390   1      0.1080 307105.6000
    376    377   1      0.1400 392459.2000
    376    391   1      0.1080 307105.6000
    377    378   1      0.1470 259408.0000
    377    380   1      0.1400 392459.2000
    378    379   1      0.1229 476976.0000
    378    394   1      0.1327 179075.2000
    380    381   1      0.1400 392459.2000
    380    392   1      0.1080 307105.6000
    381    393   1      0.1080 307105.6000
    394    395   1      0.1410 267776.0000
    395    396   1      0.1529 224262.4000
    395    410   1      0.1090 284512.0000
    395    411   1      0.1090 284512.0000
    396    397   1      0.1529 224262.4000
    396    412   1      0.1090 284512.0000
    396    413   1      0.1090 284512.0000
    397    398   1      0.1529 224262.4000
    397    414   1      0.1090 284512.0000
    397    415   1      0.1090 284512.0000
    398    399   1      0.1410 267776.0000
    398    416   1      0.1090 284512.0000
    398    417   1      0.1090 284512.0000
    399    400   1      0.1327 179075.2000
    400    401   1      0.1229 476976.0000
    400    402   1      0.1470 259408.0000
    402    403   1      0.1400 392459.2000
    402    409   1      0.1400 392459.2000
    403    404   1      0.1400 392459.2000
    403    418   1      0.1080 307105.6000
    404    405   1      0.1400 392459.2000
    404    419   1      0.1080 307105.6000
    405    406   1      0.1470 259408.0000
    405    408   1      0.1400 392459.2000
    406    407   1      0.1229 476976.0000
    406    422   1      0.1327 179075.2000
    408    409   1      0.1400 392459.2000
    408    420   1      0.1080 307105.6000
    409    421   1      0.1080 307105.6000
    422    423   1      0.1410 267776.0000
    423    424   1      0.1529 224262.4000
    423    438   1      0.1090 284512.0000
    423    439   1      0.1090 284512.0000
    424    425   1      0.1529 224262.4000
    424    440   1      0.1090 284512.0000
    424    441   1      0.1090 284512.0000
    425    426   1      0.1529 224262.4000
    425    442   1      0.1090 284512.0000
    425    443   1      0.1090 284512.0000
    426    427   1      0.1410 267776.0000
    426    444   1      0.1090 284512.0000
    426    445   1      0.1090 284512.0000
    427    428   1      0.1327 179075.2000
    428    429   1      0.1229 476976.0000
    428    430   1      0.1470 259408.0000
    430    431   1      0.1400 392459.2000
    430    437   1      0.1400 392459.2000
    431    432   1      0.1400 392459.2000
    431    446   1      0.1080 307105.6000
    432    433   1      0.1400 392459.2000
    432    447   1      0.1080 307105.6000
    433    434   1      0.1470 259408.0000
    433    436   1      0.1400 392459.2000
    434    435   1      0.1229 476976.0000
    434    450   1      0.1327 179075.2000
    436    437   1      0.1400 392459.2000
    436    448   1      0.1080 307105.6000
    437    449   1      0.1080 307105.6000
    450    451   1      0.1410 267776.0000
    451    452   1      0.1529 224262.4000
    451    466   1      0.1090 284512.0000
    451    467   1      0.1090 284512.0000
    452    453   1      0.1529 224262.4000
    452    468   1      0.1090 284512.0000
    452    469   1      0.1090 284512.0000
    453    454   1      0.1529 224262.4000
    453    470   1      0.1090 284512.0000
    453    471   1      0.1090 284512.0000
    454    455   1      0.1410 267776.0000
    454    472   1      0.1090 284512.0000
    454    473   1      0.1090 284512.0000
    455    456   1      0.1327 179075.2000
    456    457   1      0.1229 476976.0000
    456    458   1      0.1470 259408.0000
    458    459   1      0.1400 392459.2000
    458    465   1      0.1400 392459.2000
    459    460   1      0.1400 392459.2000
    459    474   1      0.1080 307105.6000
    460    461   1      0.1400 392459.2000
    460    475   1      0.1080 307105.6000
    461    462   1      0.1470 259408.0000
    461    464   1      0.1400 392459.2000
    462    463   1      0.1229 476976.0000
    462    478   1      0.1327 179075.2000
    464    465   1      0.1400 392459.2000
    464    476   1      0.1080 307105.6000
    465    477   1      0.1080 307105.6000
    478    479   1      0.1410 267776.0000
    479    480   1      0.1529 224262.4000
    479    494   1      0.1090 284512.0000
    479    495   1      0.1090 284512.0000
    480    481   1      0.1529 224262.4000
    480    496   1      0.1090 284512.0000
    480    497   1      0.1090 284512.0000
    481    482   1      0.1529 224262.4000
    481    498   1      0.1090 284512.0000
    481    499   1      0.1090 284512.0000
    482    483   1      0.1410 267776.0000
    482    500   1      0.1090 284512.0000
    482    501   1      0.1090 284512.0000
    483    484   1      0.1327 179075.2000
    484    485   1      0.1229 476976.0000
    484    486   1      0.1470 259408.0000
    486    487   1      0.1400 392459.2000
    486    493   1      0.1400 392459.2000
    487    488   1      0.1400 392459.2000
    487    502   1      0.1080 307105.6000
    488    489   1      0.1400 392459.2000
    488    503   1      0.1080 307105.6000
    489    490   1      0.1470 259408.0000
    489    492   1      0.1400 392459.2000
    490    491   1      0.1229 476976.0000
    490    506   1      0.1327 179075.2000
    492    493   1      0.1400 392459.2000
    492    504   1      0.1080 307105.6000
    493    505   1      0.1080 307105.6000
    506    507   1      0.1410 267776.0000
    507    508   1      0.1529 224262.4000
    507    522   1      0.1090 284512.0000
    507    523   1      0.1090 284512.0000
    508    509   1      0.1529 224262.4000
    508    524   1      0.1090 284512.0000
    508    525   1      0.1090 284512.0000
    509    510   1      0.1529 224262.4000
    509    526   1      0.1090 284512.0000
    509    527   1      0.1090 284512.0000
    510    511   1      0.1410 267776.0000
    510    528   1      0.1090 284512.0000
    510    529   1      0.1090 284512.0000
    511    512   1      0.1327 179075.2000
    512    513   1      0.1229 476976.0000
    512    514   1      0.1470 259408.0000
    514    515   1      0.1400 392459.2000
    514    521   1      0.1400 392459.2000
    515    516   1      0.1400 392459.2000
    515    530   1      0.1080 307105.6000
    516    517   1      0.1400 392459.2000
    516    531   1      0.1080 307105.6000
    517    518   1      0.1470 259408.0000
    517    520   1      0.1400 392459.2000
    518    519   1      0.1229 476976.0000
    518    534   1      0.1327 179075.2000
    520    521   1      0.1400 392459.2000
    520    532   1      0.1080 307105.6000
    521    533   1      0.1080 307105.6000
    534    535   1      0.1410 267776.0000
    535    536   1      0.1529 224262.4000
    535    550   1      0.1090 284512.0000
    535    551   1      0.1090 284512.0000
    536    537   1      0.1529 224262.4000
    536    552   1      0.1090 284512.0000
    536    553   1      0.1090 284512.0000
    537    538   1      0.1529 224262.4000
    537    554   1      0.1090 284512.0000
    537    555   1      0.1090 284512.0000
    538    539   1      0.1410 267776.0000
    538    556   1      0.1090 284512.0000
    538    557   1      0.1090 284512.0000
    539    540   1      0.1327 179075.2000
    540    541   1      0.1229 476976.0000
    540    542   1      0.1470 259408.0000
    542    543   1      0.1400 392459.2000
    542    549   1      0.1400 392459.2000
    543    544   1      0.1400 392459.2000
    543    558   1      0.1080 307105.6000
    544    545   1      0.1400 392459.2000
    544    559   1      0.1080 307105.6000
    545    546   1      0.1470 259408.0000
    545    548   1      0.1400 392459.2000
    546    547   1      0.1229 476976.0000
    546    562   1      0.1090 284512.0000
    548    549   1      0.1400 392459.2000
    548    560   1      0.1080 307105.6000
    549    561   1      0.1080 307105.6000

[ pairs ]
; ai   aj   funct   fudge_QQ  charge_i   charge_j   c6    c12
     29      3   2   0.50000     0.4180000   -0.1200000   1.995577e-06  1.069504e-11
     29     17   2   0.50000     0.4180000    0.0600000   4.903125e-07  9.576416e-13
     29     18   2   0.50000     0.4180000    0.0600000   4.903125e-07  9.576416e-13
      1      4   2   0.50000    -0.6830000   -0.1200000   1.154213e-03  1.502983e-06
      1     19   2   0.50000    -0.6830000    0.0600000   2.835898e-04  1.345781e-07
      1     20   2   0.50000    -0.6830000    0.0600000   2.835898e-04  1.345781e-07
     17      4   2   0.50000     0.0600000   -0.1200000   2.494471e-04  1.671101e-07
     17     19   2   0.50000     0.0600000    0.0600000   6.128906e-05  1.496315e-08
     17     20   2   0.50000     0.0600000    0.0600000   6.128906e-05  1.496315e-08
     18      4   2   0.50000     0.0600000   -0.1200000   2.494471e-04  1.671101e-07
     18     19   2   0.50000     0.0600000    0.0600000   6.128906e-05  1.496315e-08
     18     20   2   0.50000     0.0600000    0.0600000   6.128906e-05  1.496315e-08
      2      5   2   0.50000     0.1450000    0.1900000   1.015252e-03  1.866303e-06
      2     21   2   0.50000     0.1450000    0.0600000   2.494471e-04  1.671101e-07
      2     22   2   0.50000     0.1450000    0.0600000   2.494471e-04  1.671101e-07
     19      5   2   0.50000     0.0600000    0.1900000   2.494471e-04  1.671101e-07
     19     21   2   0.50000     0.0600000    0.0600000   6.128906e-05  1.496315e-08
     19     22   2   0.50000     0.0600000    0.0600000   6.128906e-05  1.496315e-08
     20      5   2   0.50000     0.0600000    0.1900000   2.494471e-04  1.671101e-07
     20     21   2   0.50000     0.0600000    0.0600000   6.128906e-05  1.496315e-08
     20     22   2   0.50000     0.0600000    0.0600000   6.128906e-05  1.496315e-08
      3      6   2   0.50000    -0.1200000   -0.3300000   1.026091e-03  1.187829e-06
      3     23   2   0.50000    -0.1200000    0.0300000   1.599888e-04  9.721644e-08
      3     24   2   0.50000    -0.1200000    0.0300000   1.599888e-04  9.721644e-08
     21      6   2   0.50000     0.0600000   -0.3300000   2.521103e-04  1.063590e-07
     21     23   2   0.50000     0.0600000    0.0300000   3.930919e-05  8.704828e-09
     21     24   2   0.50000     0.0600000    0.0300000   3.930919e-05  8.704828e-09
     22      6   2   0.50000     0.0600000   -0.3300000   2.521103e-04  1.063590e-07
     22     23   2   0.50000     0.0600000    0.0300000   3.930919e-05  8.704828e-09
     22     24   2   0.50000     0.0600000    0.0300000   3.930919e-05  8.704828e-09
      4      7   2   0.50000    -0.1200000    0.6250000   1.575021e-03  3.561100e-06
     23      7   2   0.50000     0.0300000    0.6250000   2.482000e-04  1.854991e-07
     24      7   2   0.50000     0.0300000    0.6250000   2.482000e-04  1.854991e-07
      5      8   2   0.50000     0.1900000   -0.4300000   1.095425e-03  1.218041e-06
      5      9   2   0.50000     0.1900000   -0.1150000   1.091018e-03  2.092768e-06
      6     10   2   0.50000    -0.3300000   -0.1150000   1.102666e-03  1.331965e-06
      6     16   2   0.50000    -0.3300000   -0.1150000   1.102666e-03  1.331965e-06
      8     10   2   0.50000    -0.4300000   -0.1150000   1.177174e-03  1.365843e-06
      8     16   2   0.50000    -0.4300000   -0.1150000   1.177174e-03  1.365843e-06
      7     11   2   0.50000     0.6250000   -0.1150000   1.692561e-03  3.993218e-06
      7     25   2   0.50000     0.6250000    0.1150000   3.510079e-04  2.623353e-07
     16     11   2   0.50000    -0.1150000   -0.1150000   1.172438e-03  2.346713e-06
     16     25   2   0.50000    -0.1150000    0.1150000   2.431434e-04  1.541678e-07
      7     15   2   0.50000     0.6250000   -0.1150000   1.692561e-03  3.993218e-06
      7     28   2   0.50000     0.6250000    0.1150000   3.510079e-04  2.623353e-07
     10     15   2   0.50000    -0.1150000   -0.1150000   1.172438e-03  2.346713e-06
     10     28   2   0.50000    -0.1150000    0.1150000   2.431434e-04  1.541678e-07
      9     12   2   0.50000    -0.1150000   -0.1150000   1.172438e-03  2.346713e-06
      9     26   2   0.50000    -0.1150000    0.1150000   2.431434e-04  1.541678e-07
     25     12   2   0.50000     0.1150000   -0.1150000   2.431434e-04  1.541678e-07
     25     26   2   0.50000     0.1150000    0.1150000   5.042375e-05  1.012808e-08
     10     13   2   0.50000    -0.1150000    0.6250000   1.692561e-03  3.993218e-06
     26     13   2   0.50000     0.1150000    0.6250000   3.510079e-04  2.623353e-07
     26     15   2   0.50000     0.1150000   -0.1150000   2.431434e-04  1.541678e-07
     11     14   2   0.50000    -0.1150000   -0.4300000   1.177174e-03  1.365843e-06
     11     30   2   0.50000    -0.1150000   -0.3300000   1.102666e-03  1.331965e-06
     15     14   2   0.50000    -0.1150000   -0.4300000   1.177174e-03  1.365843e-06
     15     30   2   0.50000    -0.1150000   -0.3300000   1.102666e-03  1.331965e-06
     11     27   2   0.50000    -0.1150000    0.1150000   2.431434e-04  1.541678e-07
     13     16   2   0.50000     0.6250000   -0.1150000   1.692561e-03  3.993218e-06
     13     27   2   0.50000     0.6250000    0.1150000   3.510079e-04  2.623353e-07
     12     31   2   0.50000    -0.1150000    0.1900000   1.091018e-03  2.092768e-06
     14     31   2   0.50000    -0.4300000    0.1900000   1.095425e-03  1.218041e-06
     12     28   2   0.50000    -0.1150000    0.1150000   2.431434e-04  1.541678e-07
     27      9   2   0.50000     0.1150000   -0.1150000   2.431434e-04  1.541678e-07
     27     28   2   0.50000     0.1150000    0.1150000   5.042375e-05  1.012808e-08
     13     32   2   0.50000     0.6250000   -0.1200000   1.575021e-03  3.561100e-06
     13     46   2   0.50000     0.6250000    0.0300000   2.482000e-04  1.854991e-07
     13     47   2   0.50000     0.6250000    0.0300000   2.482000e-04  1.854991e-07
     30     33   2   0.50000    -0.3300000   -0.1200000   1.026091e-03  1.187829e-06
     30     48   2   0.50000    -0.3300000    0.0600000   2.521103e-04  1.063590e-07
     30     49   2   0.50000    -0.3300000    0.0600000   2.521103e-04  1.063590e-07
     46     33   2   0.50000     0.0300000   -0.1200000   1.599888e-04  9.721644e-08
     46     48   2   0.50000     0.0300000    0.0600000   3.930919e-05  8.704828e-09
     46     49   2   0.50000     0.0300000    0.0600000   3.930919e-05  8.704828e-09
     47     33   2   0.50000     0.0300000   -0.1200000   1.599888e-04  9.721644e-08
     47     48   2   0.50000     0.0300000    0.0600000   3.930919e-05  8.704828e-09
     47     49   2   0.50000     0.0300000    0.0600000   3.930919e-05  8.704828e-09
     31     34   2   0.50000     0.1900000    0.1900000   1.015252e-03  1.866303e-06
     31     50   2   0.50000     0.1900000    0.0600000   2.494471e-04  1.671101e-07
     31     51   2   0.50000     0.1900000    0.0600000   2.494471e-04  1.671101e-07
     48     34   2   0.50000     0.0600000    0.1900000   2.494471e-04  1.671101e-07
     48     50   2   0.50000     0.0600000    0.0600000   6.128906e-05  1.496315e-08
     48     51   2   0.50000     0.0600000    0.0600000   6.128906e-05  1.496315e-08
     49     34   2   0.50000     0.0600000    0.1900000   2.494471e-04  1.671101e-07
     49     50   2   0.50000     0.0600000    0.0600000   6.128906e-05  1.496315e-08
     49     51   2   0.50000     0.0600000    0.0600000   6.128906e-05  1.496315e-08
     32     35   2   0.50000    -0.1200000   -0.3300000   1.026091e-03  1.187829e-06
     32     52   2   0.50000    -0.1200000    0.0300000   1.599888e-04  9.721644e-08
     32     53   2   0.50000    -0.1200000    0.0300000   1.599888e-04  9.721644e-08
     50     35   2   0.50000     0.0600000   -0.3300000   2.521103e-04  1.063590e-07
     50     52   2   0.50000     0.0600000    0.0300000   3.930919e-05  8.704828e-09
     50     53   2   0.50000     0.0600000    0.0300000   3.930919e-05  8.704828e-09
     51     35   2   0.50000     0.0600000   -0.3300000   2.521103e-04  1.063590e-07
     51     52   2   0.50000     0.0600000    0.0300000   3.930919e-05  8.704828e-09
     51     53   2   0.50000     0.0600000    0.0300000   3.930919e-05  8.704828e-09
     33     36   2   0.50000    -0.1200000    0.6250000   1.575021e-03  3.561100e-06
     52     36   2   0.50000     0.0300000    0.6250000   2.482000e-04  1.854991e-07
     53     36   2   0.50000     0.0300000    0.6250000   2.482000e-04  1.854991e-07
     34     37   2   0.50000     0.1900000   -0.4300000   1.095425e-03  1.218041e-06
     34     38   2   0.50000     0.1900000   -0.1150000   1.091018e-03  2.092768e-06
     35     39   2   0.50000    -0.3300000   -0.1150000   1.102666e-03  1.331965e-06
     35     45   2   0.50000    -0.3300000   -0.1150000   1.102666e-03  1.331965e-06
     37     39   2   0.50000    -0.4300000   -0.1150000   1.177174e-03  1.365843e-06
     37     45   2   0.50000    -0.4300000   -0.1150000   1.177174e-03  1.365843e-06
     36     40   2   0.50000     0.6250000   -0.1150000   1.692561e-03  3.993218e-06
     36     54   2   0.50000     0.6250000    0.1150000   3.510079e-04  2.623353e-07
     45     40   2   0.50000    -0.1150000   -0.1150000   1.172438e-03  2.346713e-06
     45     54   2   0.50000    -0.1150000    0.1150000   2.431434e-04  1.541678e-07
     36     44   2   0.50000     0.6250000   -0.1150000   1.692561e-03  3.993218e-06
     36     57   2   0.50000     0.6250000    0.1150000   3.510079e-04  2.623353e-07
     39     44   2   0.50000    -0.1150000   -0.1150000   1.172438e-03  2.346713e-06
     39     57   2   0.50000    -0.1150000    0.1150000   2.431434e-04  1.541678e-07
     38     41   2   0.50000    -0.1150000   -0.1150000   1.172438e-03  2.346713e-06
     38     55   2   0.50000    -0.1150000    0.1150000   2.431434e-04  1.541678e-07
     54     41   2   0.50000     0.1150000   -0.1150000   2.431434e-04  1.541678e-07
     54     55   2   0.50000     0.1150000    0.1150000   5.042375e-05  1.012808e-08
     39     42   2   0.50000    -0.1150000    0.6250000   1.692561e-03  3.993218e-06
     55     42   2   0.50000     0.1150000    0.6250000   3.510079e-04  2.623353e-07
     55     44   2   0.50000     0.1150000   -0.1150000   2.431434e-04  1.541678e-07
     40     43   2   0.50000    -0.1150000   -0.4300000   1.177174e-03  1.365843e-06
     40     58   2   0.50000    -0.1150000   -0.3300000   1.102666e-03  1.331965e-06
     44     43   2   0.50000    -0.1150000   -0.4300000   1.177174e-03  1.365843e-06
     44     58   2   0.50000    -0.1150000   -0.3300000   1.102666e-03  1.331965e-06
     40     56   2   0.50000    -0.1150000    0.1150000   2.431434e-04  1.541678e-07
     42     45   2   0.50000     0.6250000   -0.1150000   1.692561e-03  3.993218e-06
     42     56   2   0.50000     0.6250000    0.1150000   3.510079e-04  2.623353e-07
     41     59   2   0.50000    -0.1150000    0.1900000   1.091018e-03  2.092768e-06
     43     59   2   0.50000    -0.4300000    0.1900000   1.095425e-03  1.218041e-06
     41     57   2   0.50000    -0.1150000    0.1150000   2.431434e-04  1.541678e-07
     56     38   2   0.50000     0.1150000   -0.1150000   2.431434e-04  1.541678e-07
     56     57   2   0.50000     0.1150000    0.1150000   5.042375e-05  1.012808e-08
     42     60   2   0.50000     0.6250000   -0.1200000   1.575021e-03  3.561100e-06
     42     74   2   0.50000     0.6250000    0.0300000   2.482000e-04  1.854991e-07
     42     75   2   0.50000     0.6250000    0.0300000   2.482000e-04  1.854991e-07
     58     61   2   0.50000    -0.3300000   -0.1200000   1.026091e-03  1.187829e-06
     58     76   2   0.50000    -0.3300000    0.0600000   2.521103e-04  1.063590e-07
     58     77   2   0.50000    -0.3300000    0.0600000   2.521103e-04  1.063590e-07
     74     61   2   0.50000     0.0300000   -0.1200000   1.599888e-04  9.721644e-08
     74     76   2   0.50000     0.0300000    0.0600000   3.930919e-05  8.704828e-09
     74     77   2   0.50000     0.0300000    0.0600000   3.930919e-05  8.704828e-09
     75     61   2   0.50000     0.0300000   -0.1200000   1.599888e-04  9.721644e-08
     75     76   2   0.50000     0.0300000    0.0600000   3.930919e-05  8.704828e-09
     75     77   2   0.50000     0.0300000    0.0600000   3.930919e-05  8.704828e-09
     59     62   2   0.50000     0.1900000    0.1900000   1.015252e-03  1.866303e-06
     59     78   2   0.50000     0.1900000    0.0600000   2.494471e-04  1.671101e-07
     59     79   2   0.50000     0.1900000    0.0600000   2.494471e-04  1.671101e-07
     76     62   2   0.50000     0.0600000    0.1900000   2.494471e-04  1.671101e-07
     76     78   2   0.50000     0.0600000    0.0600000   6.128906e-05  1.496315e-08
     76     79   2   0.50000     0.0600000    0.0600000   6.128906e-05  1.496315e-08
     77     62   2   0.50000     0.0600000    0.1900000   2.494471e-04  1.671101e-07
     77     78   2   0.50000     0.0600000    0.0600000   6.128906e-05  1.496315e-08
     77     79   2   0.50000     0.0600000    0.0600000   6.128906e-05  1.496315e-08
     60     63   2   0.50000    -0.1200000   -0.3300000   1.026091e-03  1.187829e-06
     60     80   2   0.50000    -0.1200000    0.0300000   1.599888e-04  9.721644e-08
     60     81   2   0.50000    -0.1200000    0.0300000   1.599888e-04  9.721644e-08
     78     63   2   0.50000     0.0600000   -0.3300000   2.521103e-04  1.063590e-07
     78     80   2   0.50000     0.0600000    0.0300000   3.930919e-05  8.704828e-09
     78     81   2   0.50000     0.0600000    0.0300000   3.930919e-05  8.704828e-09
     79     63   2   0.50000     0.0600000   -0.3300000   2.521103e-04  1.063590e-07
     79     80   2   0.50000     0.0600000    0.0300000   3.930919e-05  8.704828e-09
     79     81   2   0.50000     0.0600000    0.0300000   3.930919e-05  8.704828e-09
     61     64   2   0.50000    -0.1200000    0.6250000   1.575021e-03  3.561100e-06
     80     64   2   0.50000     0.0300000    0.6250000   2.482000e-04  1.854991e-07
     81     64   2   0.50000     0.0300000    0.6250000   2.482000e-04  1.854991e-07
     62     65   2   0.50000     0.1900000   -0.4300000   1.095425e-03  1.218041e-06
     62     66   2   0.50000     0.1900000   -0.1150000   1.091018e-03  2.092768e-06
     63     67   2   0.50000    -0.3300000   -0.1150000   1.102666e-03  1.331965e-06
     63     73   2   0.50000    -0.3300000   -0.1150000   1.102666e-03  1.331965e-06
     65     67   2   0.50000    -0.4300000   -0.1150000   1.177174e-03  1.365843e-06
     65     73   2   0.50000    -0.4300000   -0.1150000   1.177174e-03  1.365843e-06
     64     68   2   0.50000     0.6250000   -0.1150000   1.692561e-03  3.993218e-06
     64     82   2   0.50000     0.6250000    0.1150000   3.510079e-04  2.623353e-07
     73     68   2   0.50000    -0.1150000   -0.1150000   1.172438e-03  2.346713e-06
     73     82   2   0.50000    -0.1150000    0.1150000   2.431434e-04  1.541678e-07
     64     72   2   0.50000     0.6250000   -0.1150000   1.692561e-03  3.993218e-06
     64     85   2   0.50000     0.6250000    0.1150000   3.510079e-04  2.623353e-07
     67     72   2   0.50000    -0.1150000   -0.1150000   1.172438e-03  2.346713e-06
     67     85   2   0.50000    -0.1150000    0.1150000   2.431434e-04  1.541678e-07
     66     69   2   0.50000    -0.1150000   -0.1150000   1.172438e-03  2.346713e-06
     66     83   2   0.50000    -0.1150000    0.1150000   2.431434e-04  1.541678e-07
     82     69   2   0.50000     0.1150000   -0.1150000   2.431434e-04  1.541678e-07
     82     83   2   0.50000     0.1150000    0.1150000   5.042375e-05  1.012808e-08
     67     70   2   0.50000    -0.1150000    0.6250000   1.692561e-03  3.993218e-06
     83     70   2   0.50000     0.1150000    0.6250000   3.510079e-04  2.623353e-07
     83     72   2   0.50000     0.1150000   -0.1150000   2.431434e-04  1.541678e-07
     68     71   2   0.50000    -0.1150000   -0.4300000   1.177174e-03  1.365843e-06
     68     86   2   0.50000    -0.1150000   -0.3300000   1.102666e-03  1.331965e-06
     72     71   2   0.50000    -0.1150000   -0.4300000   1.177174e-03  1.365843e-06
     72     86   2   0.50000    -0.1150000   -0.3300000   1.102666e-03  1.331965e-06
     68     84   2   0.50000    -0.1150000    0.1150000   2.431434e-04  1.541678e-07
     70     73   2   0.50000     0.6250000   -0.1150000   1.692561e-03  3.993218e-06
     70     84   2   0.50000     0.6250000    0.1150000   3.510079e-04  2.623353e-07
     69     87   2   0.50000    -0.1150000    0.1900000   1.091018e-03  2.092768e-06
     71     87   2   0.50000    -0.4300000    0.1900000   1.095425e-03  1.218041e-06
     69     85   2   0.50000    -0.1150000    0.1150000   2.431434e-04  1.541678e-07
     84     66   2   0.50000     0.1150000   -0.1150000   2.431434e-04  1.541678e-07
     84     85   2   0.50000     0.1150000    0.1150000   5.042375e-05  1.012808e-08
     70     88   2   0.50000     0.6250000   -0.1200000   1.575021e-03  3.561100e-06
     70    102   2   0.50000     0.6250000    0.0300000   2.482000e-04  1.854991e-07
     70    103   2   0.50000     0.6250000    0.0300000   2.482000e-04  1.854991e-07
     86     89   2   0.50000    -0.3300000   -0.1200000   1.026091e-03  1.187829e-06
     86    104   2   0.50000    -0.3300000    0.0600000   2.521103e-04  1.063590e-07
     86    105   2   0.50000    -0.3300000    0.0600000   2.521103e-04  1.063590e-07
    102     89   2   0.50000     0.0300000   -0.1200000   1.599888e-04  9.721644e-08
    102    104   2   0.50000     0.0300000    0.0600000   3.930919e-05  8.704828e-09
    102    105   2   0.50000     0.0300000    0.0600000   3.930919e-05  8.704828e-09
    103     89   2   0.50000     0.0300000   -0.1200000   1.599888e-04  9.721644e-08
    103    104   2   0.50000     0.0300000    0.0600000   3.930919e-05  8.704828e-09
    103    105   2   0.50000     0.0300000    0.0600000   3.930919e-05  8.704828e-09
     87     90   2   0.50000     0.1900000    0.1900000   1.015252e-03  1.866303e-06
     87    106   2   0.50000     0.1900000    0.0600000   2.494471e-04  1.671101e-07
     87    107   2   0.50000     0.1900000    0.0600000   2.494471e-04  1.671101e-07
    104     90   2   0.50000     0.0600000    0.1900000   2.494471e-04  1.671101e-07
    104    106   2   0.50000     0.0600000    0.0600000   6.128906e-05  1.496315e-08
    104    107   2   0.50000     0.0600000    0.0600000   6.128906e-05  1.496315e-08
    105     90   2   0.50000     0.0600000    0.1900000   2.494471e-04  1.671101e-07
    105    106   2   0.50000     0.0600000    0.0600000   6.128906e-05  1.496315e-08
    105    107   2   0.50000     0.0600000    0.0600000   6.128906e-05  1.496315e-08
     88     91   2   0.50000    -0.1200000   -0.3300000   1.026091e-03  1.187829e-06
     88    108   2   0.50000    -0.1200000    0.0300000   1.599888e-04  9.721644e-08
     88    109   2   0.50000    -0.1200000    0.0300000   1.599888e-04  9.721644e-08
    106     91   2   0.50000     0.0600000   -0.3300000   2.521103e-04  1.063590e-07
    106    108   2   0.50000     0.0600000    0.0300000   3.930919e-05  8.704828e-09
    106    109   2   0.50000     0.0600000    0.0300000   3.930919e-05  8.704828e-09
    107     91   2   0.50000     0.0600000   -0.3300000   2.521103e-04  1.063590e-07
    107    108   2   0.50000     0.0600000    0.0300000   3.930919e-05  8.704828e-09
    107    109   2   0.50000     0.0600000    0.0300000   3.930919e-05  8.704828e-09
     89     92   2   0.50000    -0.1200000    0.6250000   1.575021e-03  3.561100e-06
    108     92   2   0.50000     0.0300000    0.6250000   2.482000e-04  1.854991e-07
    109     92   2   0.50000     0.0300000    0.6250000   2.482000e-04  1.854991e-07
     90     93   2   0.50000     0.1900000   -0.4300000   1.095425e-03  1.218041e-06
     90     94   2   0.50000     0.1900000   -0.1150000   1.091018e-03  2.092768e-06
     91     95   2   0.50000    -0.3300000   -0.1150000   1.102666e-03  1.331965e-06
     91    101   2   0.50000    -0.3300000   -0.1150000   1.102666e-03  1.331965e-06
     93     95   2   0.50000    -0.4300000   -0.1150000   1.177174e-03  1.365843e-06
     93    101   2   0.50000    -0.4300000   -0.1150000   1.177174e-03  1.365843e-06
     92     96   2   0.50000     0.6250000   -0.1150000   1.692561e-03  3.993218e-06
     92    110   2   0.50000     0.6250000    0.1150000   3.510079e-04  2.623353e-07
    101     96   2   0.50000    -0.1150000   -0.1150000   1.172438e-03  2.346713e-06
    101    110   2   0.50000    -0.1150000    0.1150000   2.431434e-04  1.541678e-07
     92    100   2   0.50000     0.6250000   -0.1150000   1.692561e-03  3.993218e-06
     92    113   2   0.50000     0.6250000    0.1150000   3.510079e-04  2.623353e-07
     95    100   2   0.50000    -0.1150000   -0.1150000   1.172438e-03  2.346713e-06
     95    113   2   0.50000    -0.1150000    0.1150000   2.431434e-04  1.541678e-07
     94     97   2   0.50000    -0.1150000   -0.1150000   1.172438e-03  2.346713e-06
     94    111   2   0.50000    -0.1150000    0.1150000   2.431434e-04  1.541678e-07
    110     97   2   0.50000     0.1150000   -0.1150000   2.431434e-04  1.541678e-07
    110    111   2   0.50000     0.1150000    0.1150000   5.042375e-05  1.012808e-08
     95     98   2   0.50000    -0.1150000    0.6250000   1.692561e-03  3.993218e-06
    111     98   2   0.50000     0.1150000    0.6250000   3.510079e-04  2.623353e-07
    111    100   2   0.50000     0.1150000   -0.1150000   2.431434e-04  1.541678e-07
     96     99   2   0.50000    -0.1150000   -0.4300000   1.177174e-03  1.365843e-06
     96    114   2   0.50000    -0.1150000   -0.3300000   1.102666e-03  1.331965e-06
    100     99   2   0.50000    -0.1150000   -0.4300000   1.177174e-03  1.365843e-06
    100    114   2   0.50000    -0.1150000   -0.3300000   1.102666e-03  1.331965e-06
     96    112   2   0.50000    -0.1150000    0.1150000   2.431434e-04  1.541678e-07
     98    101   2   0.50000     0.6250000   -0.1150000   1.692561e-03  3.993218e-06
     98    112   2   0.50000     0.6250000    0.1150000   3.510079e-04  2.623353e-07
     97    115   2   0.50000    -0.1150000    0.1900000   1.091018e-03  2.092768e-06
     99    115   2   0.50000    -0.4300000    0.1900000   1.095425e-03  1.218041e-06
     97    113   2   0.50000    -0.1150000    0.1150000   2.431434e-04  1.541678e-07
    112     94   2   0.50000     0.1150000   -0.1150000   2.431434e-04  1.541678e-07
    112    113   2   0.50000     0.1150000    0.1150000   5.042375e-05  1.012808e-08
     98    116   2   0.50000     0.6250000   -0.1200000   1.575021e-03  3.561100e-06
     98    130   2   0.50000     0.6250000    0.0300000   2.482000e-04  1.854991e-07
     98    131   2   0.50000     0.6250000    0.0300000   2.482000e-04  1.854991e-07
    114    117   2   0.50000    -0.3300000   -0.1200000   1.026091e-03  1.187829e-06
    114    132   2   0.50000    -0.3300000    0.0600000   2.521103e-04  1.063590e-07
    114    133   2   0.50000    -0.3300000    0.0600000   2.521103e-04  1.063590e-07
    130    117   2   0.50000     0.0300000   -0.1200000   1.599888e-04  9.721644e-08
    130    132   2   0.50000     0.0300000    0.0600000   3.930919e-05  8.704828e-09
    130    133   2   0.50000     0.0300000    0.0600000   3.930919e-05  8.704828e-09
    131    117   2   0.50000     0.0300000   -0.1200000   1.599888e-04  9.721644e-08
    131    132   2   0.50000     0.0300000    0.0600000   3.930919e-05  8.704828e-09
    131    133   2   0.50000     0.0300000    0.0600000   3.930919e-05  8.704828e-09
    115    118   2   0.50000     0.1900000    0.1900000   1.015252e-03  1.866303e-06
    115    134   2   0.50000     0.1900000    0.0600000   2.494471e-04  1.671101e-07
    115    135   2   0.50000     0.1900000    0.0600000   2.494471e-04  1.671101e-07
    132    118   2   0.50000     0.0600000    0.1900000   2.494471e-04  1.671101e-07
    132    134   2   0.50000     0.0600000    0.0600000   6.128906e-05  1.496315e-08
    132    135   2   0.50000     0.0600000    0.0600000   6.128906e-05  1.496315e-08
    133    118   2   0.50000     0.0600000    0.1900000   2.494471e-04  1.671101e-07
    133    134   2   0.50000     0.0600000    0.0600000   6.128906e-05  1.496315e-08
    133    135   2   0.50000     0.0600000    0.0600000   6.128906e-05  1.496315e-08
    116    119   2   0.50000    -0.1200000   -0.3300000   1.026091e-03  1.187829e-06
    116    136   2   0.50000    -0.1200000    0.0300000   1.599888e-04  9.721644e-08
    116    137   2   0.50000    -0.1200000    0.0300000   1.599888e-04  9.721644e-08
    134    119   2   0.50000     0.0600000   -0.3300000   2.521103e-04  1.063590e-07
    134    136   2   0.50000     0.0600000    0.0300000   3.930919e-05  8.704828e-09
    134    137   2   0.50000     0.0600000    0.0300000   3.930919e-05  8.704828e-09
    135    119   2   0.50000     0.0600000   -0.3300000   2.521103e-04  1.063590e-07
    135    136   2   0.50000     0.0600000    0.0300000   3.930919e-05  8.704828e-09
    135    137   2   0.50000     0.0600000    0.0300000   3.930919e-05  8.704828e-09
    117    120   2   0.50000    -0.1200000    0.6250000   1.575021e-03  3.561100e-06
    136    120   2   0.50000     0.0300000    0.6250000   2.482000e-04  1.854991e-07
    137    120   2   0.50000     0.0300000    0.6250000   2.482000e-04  1.854991e-07
    118    121   2   0.50000     0.1900000   -0.4300000   1.095425e-03  1.218041e-06
    118    122   2   0.50000     0.1900000   -0.1150000   1.091018e-03  2.092768e-06
    119    123   2   0.50000    -0.3300000   -0.1150000   1.102666e-03  1.331965e-06
    119    129   2   0.50000    -0.3300000   -0.1150000   1.102666e-03  1.331965e-06
    121    123   2   0.50000    -0.4300000   -0.1150000   1.177174e-03  1.365843e-06
    121    129   2   0.50000    -0.4300000   -0.1150000   1.177174e-03  1.365843e-06
    120    124   2   0.50000     0.6250000   -0.1150000   1.692561e-03  3.993218e-06
    120    138   2   0.50000     0.6250000    0.1150000   3.510079e-04  2.623353e-07
    129    124   2   0.50000    -0.1150000   -0.1150000   1.172438e-03  2.346713e-06
    129    138   2   0.50000    -0.1150000    0.1150000   2.431434e-04  1.541678e-07
    120    128   2   0.50000     0.6250000   -0.1150000   1.692561e-03  3.993218e-06
    120    141   2   0.50000     0.6250000    0.1150000   3.510079e-04  2.623353e-07
    123    128   2   0.50000    -0.1150000   -0.1150000   1.172438e-03  2.346713e-06
    123    141   2   0.50000    -0.1150000    0.1150000   2.431434e-04  1.541678e-07
    122    125   2   0.50000    -0.1150000   -0.1150000   1.172438e-03  2.346713e-06
    122    139   2   0.50000    -0.1150000    0.1150000   2.431434e-04  1.541678e-07
    138    125   2   0.50000     0.1150000   -0.1150000   2.431434e-04  1.541678e-07
    138    139   2   0.50000     0.1150000    0.1150000   5.042375e-05  1.012808e-08
    123    126   2   0.50000    -0.1150000    0.6250000   1.692561e-03  3.993218e-06
    139    126   2   0.50000     0.1150000    0.6250000   3.510079e-04  2.623353e-07
    139    128   2   0.50000     0.1150000   -0.1150000   2.431434e-04  1.541678e-07
    124    127   2   0.50000    -0.1150000   -0.4300000   1.177174e-03  1.365843e-06
    124    142   2   0.50000    -0.1150000   -0.3300000   1.102666e-03  1.331965e-06
    128    127   2   0.50000    -0.1150000   -0.4300000   1.177174e-03  1.365843e-06
    128    142   2   0.50000    -0.1150000   -0.3300000   1.102666e-03  1.331965e-06
    124    140   2   0.50000    -0.1150000    0.1150000   2.431434e-04  1.541678e-07
    126    129   2   0.50000     0.6250000   -0.1150000   1.692561e-03  3.993218e-06
    126    140   2   0.50000     0.6250000    0.1150000   3.510079e-04  2.623353e-07
    125    143   2   0.50000    -0.1150000    0.1900000   1.091018e-03  2.092768e-06
    127    143   2   0.50000    -0.4300000    0.1900000   1.095425e-03  1.218041e-06
    125    141   2   0.50000    -0.1150000    0.1150000   2.431434e-04  1.541678e-07
    140    122   2   0.50000     0.1150000   -0.1150000   2.431434e-04  1.541678e-07
    140    141   2   0.50000     0.1150000    0.1150000   5.042375e-05  1.012808e-08
    126    144   2   0.50000     0.6250000   -0.1200000   1.575021e-03  3.561100e-06
    126    158   2   0.50000     0.6250000    0.0300000   2.482000e-04  1.854991e-07
    126    159   2   0.50000     0.6250000    0.0300000   2.482000e-04  1.854991e-07
    142    145   2   0.50000    -0.3300000   -0.1200000   1.026091e-03  1.187829e-06
    142    160   2   0.50000    -0.3300000    0.0600000   2.521103e-04  1.063590e-07
    142    161   2   0.50000    -0.3300000    0.0600000   2.521103e-04  1.063590e-07
    158    145   2   0.50000     0.0300000   -0.1200000   1.599888e-04  9.721644e-08
    158    160   2   0.50000     0.0300000    0.0600000   3.930919e-05  8.704828e-09
    158    161   2   0.50000     0.0300000    0.0600000   3.930919e-05  8.704828e-09
    159    145   2   0.50000     0.0300000   -0.1200000   1.599888e-04  9.721644e-08
    159    160   2   0.50000     0.0300000    0.0600000   3.930919e-05  8.704828e-09
    159    161   2   0.50000     0.0300000    0.0600000   3.930919e-05  8.704828e-09
    143    146   2   0.50000     0.1900000    0.1900000   1.015252e-03  1.866303e-06
    143    162   2   0.50000     0.1900000    0.0600000   2.494471e-04  1.671101e-07
    143    163   2   0.50000     0.1900000    0.0600000   2.494471e-04  1.671101e-07
    160    146   2   0.50000     0.0600000    0.1900000   2.494471e-04  1.671101e-07
    160    162   2   0.50000     0.0600000    0.0600000   6.128906e-05  1.496315e-08
    160    163   2   0.50000     0.0600000    0.0600000   6.128906e-05  1.496315e-08
    161    146   2   0.50000     0.0600000    0.1900000   2.494471e-04  1.671101e-07
    161    162   2   0.50000     0.0600000    0.0600000   6.128906e-05  1.496315e-08
    161    163   2   0.50000     0.0600000    0.0600000   6.128906e-05  1.496315e-08
    144    147   2   0.50000    -0.1200000   -0.3300000   1.026091e-03  1.187829e-06
    144    164   2   0.50000    -0.1200000    0.0300000   1.599888e-04  9.721644e-08
    144    165   2   0.50000    -0.1200000    0.0300000   1.599888e-04  9.721644e-08
    162    147   2   0.50000     0.0600000   -0.3300000   2.521103e-04  1.063590e-07
    162    164   2   0.50000     0.0600000    0.0300000   3.930919e-05  8.704828e-09
    162    165   2   0.50000     0.0600000    0.0300000   3.930919e-05  8.704828e-09
    163    147   2   0.50000     0.0600000   -0.3300000   2.521103e-04  1.063590e-07
    163    164   2   0.50000     0.0600000    0.0300000   3.930919e-05  8.704828e-09
    163    165   2   0.50000     0.0600000    0.0300000   3.930919e-05  8.704828e-09
    145    148   2   0.50000    -0.1200000    0.6250000   1.575021e-03  3.561100e-06
    164    148   2   0.50000     0.0300000    0.6250000   2.482000e-04  1.854991e-07
    165    148   2   0.50000     0.0300000    0.6250000   2.482000e-04  1.854991e-07
    146    149   2   0.50000     0.1900000   -0.4300000   1.095425e-03  1.218041e-06
    146    150   2   0.50000     0.1900000   -0.1150000   1.091018e-03  2.092768e-06
    147    151   2   0.50000    -0.3300000   -0.1150000   1.102666e-03  1.331965e-06
    147    157   2   0.50000    -0.3300000   -0.1150000   1.102666e-03  1.331965e-06
    149    151   2   0.50000    -0.4300000   -0.1150000   1.177174e-03  1.365843e-06
    149    157   2   0.50000    -0.4300000   -0.1150000   1.177174e-03  1.365843e-06
    148    152   2   0.50000     0.6250000   -0.1150000   1.692561e-03  3.993218e-06
    148    166   2   0.50000     0.6250000    0.1150000   3.510079e-04  2.623353e-07
    157    152   2   0.50000    -0.1150000   -0.1150000   1.172438e-03  2.346713e-06
    157    166   2   0.50000    -0.1150000    0.1150000   2.431434e-04  1.541678e-07
    148    156   2   0.50000     0.6250000   -0.1150000   1.692561e-03  3.993218e-06
    148    169   2   0.50000     0.6250000    0.1150000   3.510079e-04  2.623353e-07
    151    156   2   0.50000    -0.1150000   -0.1150000   1.172438e-03  2.346713e-06
    151    169   2   0.50000    -0.1150000    0.1150000   2.431434e-04  1.541678e-07
    150    153   2   0.50000    -0.1150000   -0.1150000   1.172438e-03  2.346713e-06
    150    167   2   0.50000    -0.1150000    0.1150000   2.431434e-04  1.541678e-07
    166    153   2   0.50000     0.1150000   -0.1150000   2.431434e-04  1.541678e-07
    166    167   2   0.50000     0.1150000    0.1150000   5.042375e-05  1.012808e-08
    151    154   2   0.50000    -0.1150000    0.6250000   1.692561e-03  3.993218e-06
    167    154   2   0.50000     0.1150000    0.6250000   3.510079e-04  2.623353e-07
    167    156   2   0.50000     0.1150000   -0.1150000   2.431434e-04  1.541678e-07
    152    155   2   0.50000    -0.1150000   -0.4300000   1.177174e-03  1.365843e-06
    152    170   2   0.50000    -0.1150000   -0.3300000   1.102666e-03  1.331965e-06
    156    155   2   0.50000    -0.1150000   -0.4300000   1.177174e-03  1.365843e-06
    156    170   2   0.50000    -0.1150000   -0.3300000   1.102666e-03  1.331965e-06
    152    168   2   0.50000    -0.1150000    0.1150000   2.431434e-04  1.541678e-07
    154    157   2   0.50000     0.6250000   -0.1150000   1.692561e-03  3.993218e-06
    154    168   2   0.50000     0.6250000    0.1150000   3.510079e-04  2.623353e-07
    153    171   2   0.50000    -0.1150000    0.1900000   1.091018e-03  2.092768e-06
    155    171   2   0.50000    -0.4300000    0.1900000   1.095425e-03  1.218041e-06
    153    169   2   0.50000    -0.1150000    0.1150000   2.431434e-04  1.541678e-07
    168    150   2   0.50000     0.1150000   -0.1150000   2.431434e-04  1.541678e-07
    168    169   2   0.50000     0.1150000    0.1150000   5.042375e-05  1.012808e-08
    154    172   2   0.50000     0.6250000   -0.1200000   1.575021e-03  3.561100e-06
    154    186   2   0.50000     0.6250000    0.0300000   2.482000e-04  1.854991e-07
    154    187   2   0.50000     0.6250000    0.0300000   2.482000e-04  1.854991e-07
    170    173   2   0.50000    -0.3300000   -0.1200000   1.026091e-03  1.187829e-06
    170    188   2   0.50000    -0.3300000    0.0600000   2.521103e-04  1.063590e-07
    170    189   2   0.50000    -0.3300000    0.0600000   2.521103e-04  1.063590e-07
    186    173   2   0.50000     0.0300000   -0.1200000   1.599888e-04  9.721644e-08
    186    188   2   0.50000     0.0300000    0.0600000   3.930919e-05  8.704828e-09
    186    189   2   0.50000     0.0300000    0.0600000   3.930919e-05  8.704828e-09
    187    173   2   0.50000     0.0300000   -0.1200000   1.599888e-04  9.721644e-08
    187    188   2   0.50000     0.0300000    0.0600000   3.930919e-05  8.704828e-09
    187    189   2   0.50000     0.0300000    0.0600000   3.930919e-05  8.704828e-09
    171    174   2   0.50000     0.1900000    0.1900000   1.015252e-03  1.866303e-06
    171    190   2   0.50000     0.1900000    0.0600000   2.494471e-04  1.671101e-07
    171    191   2   0.50000     0.1900000    0.0600000   2.494471e-04  1.671101e-07
    188    174   2   0.50000     0.0600000    0.1900000   2.494471e-04  1.671101e-07
    188    190   2   0.50000     0.0600000    0.0600000   6.128906e-05  1.496315e-08
    188    191   2   0.50000     0.0600000    0.0600000   6.128906e-05  1.496315e-08
    189    174   2   0.50000     0.0600000    0.1900000   2.494471e-04  1.671101e-07
    189    190   2   0.50000     0.0600000    0.0600000   6.128906e-05  1.496315e-08
    189    191   2   0.50000     0.0600000    0.0600000   6.128906e-05  1.496315e-08
    172    175   2   0.50000    -0.1200000   -0.3300000   1.026091e-03  1.187829e-06
    172    192   2   0.50000    -0.1200000    0.0300000   1.599888e-04  9.721644e-08
    172    193   2   0.50000    -0.1200000    0.0300000   1.599888e-04  9.721644e-08
    190    175   2   0.50000     0.0600000   -0.3300000   2.521103e-04  1.063590e-07
    190    192   2   0.50000     0.0600000    0.0300000   3.930919e-05  8.704828e-09
    190    193   2   0.50000     0.0600000    0.0300000   3.930919e-05  8.704828e-09
    191    175   2   0.50000     0.0600000   -0.3300000   2.521103e-04  1.063590e-07
    191    192   2   0.50000     0.0600000    0.0300000   3.930919e-05  8.704828e-09
    191    193   2   0.50000     0.0600000    0.0300000   3.930919e-05  8.704828e-09
    173    176   2   0.50000    -0.1200000    0.6250000   1.575021e-03  3.561100e-06
    192    176   2   0.50000     0.0300000    0.6250000   2.482000e-04  1.854991e-07
    193    176   2   0.50000     0.0300000    0.6250000   2.482000e-04  1.854991e-07
    174    177   2   0.50000     0.1900000   -0.4300000   1.095425e-03  1.218041e-06
    174    178   2   0.50000     0.1900000   -0.1150000   1.091018e-03  2.092768e-06
    175    179   2   0.50000    -0.3300000   -0.1150000   1.102666e-03  1.331965e-06
    175    185   2   0.50000    -0.3300000   -0.1150000   1.102666e-03  1.331965e-06
    177    179   2   0.50000    -0.4300000   -0.1150000   1.177174e-03  1.365843e-06
    177    185   2   0.50000    -0.4300000   -0.1150000   1.177174e-03  1.365843e-06
    176    180   2   0.50000     0.6250000   -0.1150000   1.692561e-03  3.993218e-06
    176    194   2   0.50000     0.6250000    0.1150000   3.510079e-04  2.623353e-07
    185    180   2   0.50000    -0.1150000   -0.1150000   1.172438e-03  2.346713e-06
    185    194   2   0.50000    -0.1150000    0.1150000   2.431434e-04  1.541678e-07
    176    184   2   0.50000     0.6250000   -0.1150000   1.692561e-03  3.993218e-06
    176    197   2   0.50000     0.6250000    0.1150000   3.510079e-04  2.623353e-07
    179    184   2   0.50000    -0.1150000   -0.1150000   1.172438e-03  2.346713e-06
    179    197   2   0.50000    -0.1150000    0.1150000   2.431434e-04  1.541678e-07
    178    181   2   0.50000    -0.1150000   -0.1150000   1.172438e-03  2.346713e-06
    178    195   2   0.50000    -0.1150000    0.1150000   2.431434e-04  1.541678e-07
    194    181   2   0.50000     0.1150000   -0.1150000   2.431434e-04  1.541678e-07
    194    195   2   0.50000     0.1150000    0.1150000   5.042375e-05  1.012808e-08
    179    182   2   0.50000    -0.1150000    0.6250000   1.692561e-03  3.993218e-06
    195    182   2   0.50000     0.1150000    0.6250000   3.510079e-04  2.623353e-07
    195    184   2   0.50000     0.1150000   -0.1150000   2.431434e-04  1.541678e-07
    180    183   2   0.50000    -0.1150000   -0.4300000   1.177174e-03  1.365843e-06
    180    198   2   0.50000    -0.1150000   -0.3300000   1.102666e-03  1.331965e-06
    184    183   2   0.50000    -0.1150000   -0.4300000   1.177174e-03  1.365843e-06
    184    198   2   0.50000    -0.1150000   -0.3300000   1.102666e-03  1.331965e-06
    180    196   2   0.50000    -0.1150000    0.1150000   2.431434e-04  1.541678e-07
    182    185   2   0.50000     0.6250000   -0.1150000   1.692561e-03  3.993218e-06
    182    196   2   0.50000     0.6250000    0.1150000   3.510079e-04  2.623353e-07
    181    199   2   0.50000    -0.1150000    0.1900000   1.091018e-03  2.092768e-06
    183    199   2   0.50000    -0.4300000    0.1900000   1.095425e-03  1.218041e-06
    181    197   2   0.50000    -0.1150000    0.1150000   2.431434e-04  1.541678e-07
    196    178   2   0.50000     0.1150000   -0.1150000   2.431434e-04  1.541678e-07
    196    197   2   0.50000     0.1150000    0.1150000   5.042375e-05  1.012808e-08
    182    200   2   0.50000     0.6250000   -0.1200000   1.575021e-03  3.561100e-06
    182    214   2   0.50000     0.6250000    0.0300000   2.482000e-04  1.854991e-07
    182    215   2   0.50000     0.6250000    0.0300000   2.482000e-04  1.854991e-07
    198    201   2   0.50000    -0.3300000   -0.1200000   1.026091e-03  1.187829e-06
    198    216   2   0.50000    -0.3300000    0.0600000   2.521103e-04  1.063590e-07
    198    217   2   0.50000    -0.3300000    0.0600000   2.521103e-04  1.063590e-07
    214    201   2   0.50000     0.0300000   -0.1200000   1.599888e-04  9.721644e-08
    214    216   2   0.50000     0.0300000    0.0600000   3.930919e-05  8.704828e-09
    214    217   2   0.50000     0.0300000    0.0600000   3.930919e-05  8.704828e-09
    215    201   2   0.50000     0.0300000   -0.1200000   1.599888e-04  9.721644e-08
    215    216   2   0.50000     0.0300000    0.0600000   3.930919e-05  8.704828e-09
    215    217   2   0.50000     0.0300000    0.0600000   3.930919e-05  8.704828e-09
    199    202   2   0.50000     0.1900000    0.1900000   1.015252e-03  1.866303e-06
    199    218   2   0.50000     0.1900000    0.0600000   2.494471e-04  1.671101e-07
    199    219   2   0.50000     0.1900000    0.0600000   2.494471e-04  1.671101e-07
    216    202   2   0.50000     0.0600000    0.1900000   2.494471e-04  1.671101e-07
    216    218   2   0.50000     0.0600000    0.0600000   6.128906e-05  1.496315e-08
    216    219   2   0.50000     0.0600000    0.0600000   6.128906e-05  1.496315e-08
    217    202   2   0.50000     0.0600000    0.1900000   2.494471e-04  1.671101e-07
    217    218   2   0.50000     0.0600000    0.0600000   6.128906e-05  1.496315e-08
    217    219   2   0.50000     0.0600000    0.0600000   6.128906e-05  1.496315e-08
    200    203   2   0.50000    -0.1200000   -0.3300000   1.026091e-03  1.187829e-06
    200    220   2   0.50000    -0.1200000    0.0300000   1.599888e-04  9.721644e-08
    200    221   2   0.50000    -0.1200000    0.0300000   1.599888e-04  9.721644e-08
    218    203   2   0.50000     0.0600000   -0.3300000   2.521103e-04  1.063590e-07
    218    220   2   0.50000     0.0600000    0.0300000   3.930919e-05  8.704828e-09
    218    221   2   0.50000     0.0600000    0.0300000   3.930919e-05  8.704828e-09
    219    203   2   0.50000     0.0600000   -0.3300000   2.521103e-04  1.063590e-07
    219    220   2   0.50000     0.0600000    0.0300000   3.930919e-05  8.704828e-09
    219    221   2   0.50000     0.0600000    0.0300000   3.930919e-05  8.704828e-09
    201    204   2   0.50000    -0.1200000    0.6250000   1.575021e-03  3.561100e-06
    220    204   2   0.50000     0.0300000    0.6250000   2.482000e-04  1.854991e-07
    221    204   2   0.50000     0.0300000    0.6250000   2.482000e-04  1.854991e-07
    202    205   2   0.50000     0.1900000   -0.4300000   1.095425e-03  1.218041e-06
    202    206   2   0.50000     0.1900000   -0.1150000   1.091018e-03  2.092768e-06
    203    207   2   0.50000    -0.3300000   -0.1150000   1.102666e-03  1.331965e-06
    203    213   2   0.50000    -0.3300000   -0.1150000   1.102666e-03  1.331965e-06
    205    207   2   0.50000    -0.4300000   -0.1150000   1.177174e-03  1.365843e-06
    205    213   2   0.50000    -0.4300000   -0.1150000   1.177174e-03  1.365843e-06
    204    208   2   0.50000     0.6250000   -0.1150000   1.692561e-03  3.993218e-06
    204    222   2   0.50000     0.6250000    0.1150000   3.510079e-04  2.623353e-07
    213    208   2   0.50000    -0.1150000   -0.1150000   1.172438e-03  2.346713e-06
    213    222   2   0.50000    -0.1150000    0.1150000   2.431434e-04  1.541678e-07
    204    212   2   0.50000     0.6250000   -0.1150000   1.692561e-03  3.993218e-06
    204    225   2   0.50000     0.6250000    0.1150000   3.510079e-04  2.623353e-07
    207    212   2   0.50000    -0.1150000   -0.1150000   1.172438e-03  2.346713e-06
    207    225   2   0.50000    -0.1150000    0.1150000   2.431434e-04  1.541678e-07
    206    209   2   0.50000    -0.1150000   -0.1150000   1.172438e-03  2.346713e-06
    206    223   2   0.50000    -0.1150000    0.1150000   2.431434e-04  1.541678e-07
    222    209   2   0.50000     0.1150000   -0.1150000   2.431434e-04  1.541678e-07
    222    223   2   0.50000     0.1150000    0.1150000   5.042375e-05  1.012808e-08
    207    210   2   0.50000    -0.1150000    0.6250000   1.692561e-03  3.993218e-06
    223    210   2   0.50000     0.1150000    0.6250000   3.510079e-04  2.623353e-07
    223    212   2   0.50000     0.1150000   -0.1150000   2.431434e-04  1.541678e-07
    208    211   2   0.50000    -0.1150000   -0.4300000   1.177174e-03  1.365843e-06
    208    226   2   0.50000    -0.1150000   -0.3300000   1.102666e-03  1.331965e-06
    212    211   2   0.50000    -0.1150000   -0.4300000   1.177174e-03  1.365843e-06
    212    226   2   0.50000    -0.1150000   -0.3300000   1.102666e-03  1.331965e-06
    208    224   2   0.50000    -0.1150000    0.1150000   2.431434e-04  1.541678e-07
    210    213   2   0.50000     0.6250000   -0.1150000   1.692561e-03  3.993218e-06
    210    224   2   0.50000     0.6250000    0.1150000   3.510079e-04  2.623353e-07
    209    227   2   0.50000    -0.1150000    0.1900000   1.091018e-03  2.092768e-06
    211    227   2   0.50000    -0.4300000    0.1900000   1.095425e-03  1.218041e-06
    209    225   2   0.50000    -0.1150000    0.1150000   2.431434e-04  1.541678e-07
    224    206   2   0.50000     0.1150000   -0.1150000   2.431434e-04  1.541678e-07
    224    225   2   0.50000     0.1150000    0.1150000   5.042375e-05  1.012808e-08
    210    228   2   0.50000     0.6250000   -0.1200000   1.575021e-03  3.561100e-06
    210    242   2   0.50000     0.6250000    0.0300000   2.482000e-04  1.854991e-07
    210    243   2   0.50000     0.6250000    0.0300000   2.482000e-04  1.854991e-07
    226    229   2   0.50000    -0.3300000   -0.1200000   1.026091e-03  1.187829e-06
    226    244   2   0.50000    -0.3300000    0.0600000   2.521103e-04  1.063590e-07
    226    245   2   0.50000    -0.3300000    0.0600000   2.521103e-04  1.063590e-07
    242    229   2   0.50000     0.0300000   -0.1200000   1.599888e-04  9.721644e-08
    242    244   2   0.50000     0.0300000    0.0600000   3.930919e-05  8.704828e-09
    242    245   2   0.50000     0.0300000    0.0600000   3.930919e-05  8.704828e-09
    243    229   2   0.50000     0.0300000   -0.1200000   1.599888e-04  9.721644e-08
    243    244   2   0.50000     0.0300000    0.0600000   3.930919e-05  8.704828e-09
    243    245   2   0.50000     0.0300000    0.0600000   3.930919e-05  8.704828e-09
    227    230   2   0.50000     0.1900000    0.1900000   1.015252e-03  1.866303e-06
    227    246   2   0.50000     0.1900000    0.0600000   2.494471e-04  1.671101e-07
    227    247   2   0.50000     0.1900000    0.0600000   2.494471e-04  1.671101e-07
    244    230   2   0.50000     0.0600000    0.1900000   2.494471e-04  1.671101e-07
    244    246   2   0.50000     0.0600000    0.0600000   6.128906e-05  1.496315e-08
    244    247   2   0.50000     0.0600000    0.0600000   6.128906e-05  1.496315e-08
    245    230   2   0.50000     0.0600000    0.1900000   2.494471e-04  1.671101e-07
    245    246   2   0.50000     0.0600000    0.0600000   6.128906e-05  1.496315e-08
    245    247   2   0.50000     0.0600000    0.0600000   6.128906e-05  1.496315e-08
    228    231   2   0.50000    -0.1200000   -0.3300000   1.026091e-03  1.187829e-06
    228    248   2   0.50000    -0.1200000    0.0300000   1.599888e-04  9.721644e-08
    228    249   2   0.50000    -0.1200000    0.0300000   1.599888e-04  9.721644e-08
    246    231   2   0.50000     0.0600000   -0.3300000   2.521103e-04  1.063590e-07
    246    248   2   0.50000     0.0600000    0.0300000   3.930919e-05  8.704828e-09
    246    249   2   0.50000     0.0600000    0.0300000   3.930919e-05  8.704828e-09
    247    231   2   0.50000     0.0600000   -0.3300000   2.521103e-04  1.063590e-07
    247    248   2   0.50000     0.0600000    0.0300000   3.930919e-05  8.704828e-09
    247    249   2   0.50000     0.0600000    0.0300000   3.930919e-05  8.704828e-09
    229    232   2   0.50000    -0.1200000    0.6250000   1.575021e-03  3.561100e-06
    248    232   2   0.50000     0.0300000    0.6250000   2.482000e-04  1.854991e-07
    249    232   2   0.50000     0.0300000    0.6250000   2.482000e-04  1.854991e-07
    230    233   2   0.50000     0.1900000   -0.4300000   1.095425e-03  1.218041e-06
    230    234   2   0.50000     0.1900000   -0.1150000   1.091018e-03  2.092768e-06
    231    235   2   0.50000    -0.3300000   -0.1150000   1.102666e-03  1.331965e-06
    231    241   2   0.50000    -0.3300000   -0.1150000   1.102666e-03  1.331965e-06
    233    235   2   0.50000    -0.4300000   -0.1150000   1.177174e-03  1.365843e-06
    233    241   2   0.50000    -0.4300000   -0.1150000   1.177174e-03  1.365843e-06
    232    236   2   0.50000     0.6250000   -0.1150000   1.692561e-03  3.993218e-06
    232    250   2   0.50000     0.6250000    0.1150000   3.510079e-04  2.623353e-07
    241    236   2   0.50000    -0.1150000   -0.1150000   1.172438e-03  2.346713e-06
    241    250   2   0.50000    -0.1150000    0.1150000   2.431434e-04  1.541678e-07
    232    240   2   0.50000     0.6250000   -0.1150000   1.692561e-03  3.993218e-06
    232    253   2   0.50000     0.6250000    0.1150000   3.510079e-04  2.623353e-07
    235    240   2   0.50000    -0.1150000   -0.1150000   1.172438e-03  2.346713e-06
    235    253   2   0.50000    -0.1150000    0.1150000   2.431434e-04  1.541678e-07
    234    237   2   0.50000    -0.1150000   -0.1150000   1.172438e-03  2.346713e-06
    234    251   2   0.50000    -0.1150000    0.1150000   2.431434e-04  1.541678e-07
    250    237   2   0.50000     0.1150000   -0.1150000   2.431434e-04  1.541678e-07
    250    251   2   0.50000     0.1150000    0.1150000   5.042375e-05  1.012808e-08
    235    238   2   0.50000    -0.1150000    0.6250000   1.692561e-03  3.993218e-06
    251    238   2   0.50000     0.1150000    0.6250000   3.510079e-04  2.623353e-07
    251    240   2   0.50000     0.1150000   -0.1150000   2.431434e-04  1.541678e-07
    236    239   2   0.50000    -0.1150000   -0.4300000   1.177174e-03  1.365843e-06
    236    254   2   0.50000    -0.1150000   -0.3300000   1.102666e-03  1.331965e-06
    240    239   2   0.50000    -0.1150000   -0.4300000   1.177174e-03  1.365843e-06
    240    254   2   0.50000    -0.1150000   -0.3300000   1.102666e-03  1.331965e-06
    236    252   2   0.50000    -0.1150000    0.1150000   2.431434e-04  1.541678e-07
    238    241   2   0.50000     0.6250000   -0.1150000   1.692561e-03  3.993218e-06
    238    252   2   0.50000     0.6250000    0.1150000   3.510079e-04  2.623353e-07
    237    255   2   0.50000    -0.1150000    0.1900000   1.091018e-03  2.092768e-06
    239    255   2   0.50000    -0.4300000    0.1900000   1.095425e-03  1.218041e-06
    237    253   2   0.50000    -0.1150000    0.1150000   2.431434e-04  1.541678e-07
    252    234   2   0.50000     0.1150000   -0.1150000   2.431434e-04  1.541678e-07
    252    253   2   0.50000     0.1150000    0.1150000   5.042375e-05  1.012808e-08
    238    256   2   0.50000     0.6250000   -0.1200000   1.575021e-03  3.561100e-06
    238    270   2   0.50000     0.6250000    0.0300000   2.482000e-04  1.854991e-07
    238    271   2   0.50000     0.6250000    0.0300000   2.482000e-04  1.854991e-07
    254    257   2   0.50000    -0.3300000   -0.1200000   1.026091e-03  1.187829e-06
    254    272   2   0.50000    -0.3300000    0.0600000   2.521103e-04  1.063590e-07
    254    273   2   0.50000    -0.3300000    0.0600000   2.521103e-04  1.063590e-07
    270    257   2   0.50000     0.0300000   -0.1200000   1.599888e-04  9.721644e-08
    270    272   2   0.50000     0.0300000    0.0600000   3.930919e-05  8.704828e-09
    270    273   2   0.50000     0.0300000    0.0600000   3.930919e-05  8.704828e-09
    271    257   2   0.50000     0.0300000   -0.1200000   1.599888e-04  9.721644e-08
    271    272   2   0.50000     0.0300000    0.0600000   3.930919e-05  8.704828e-09
    271    273   2   0.50000     0.0300000    0.0600000   3.930919e-05  8.704828e-09
    255    258   2   0.50000     0.1900000    0.1900000   1.015252e-03  1.866303e-06
    255    274   2   0.50000     0.1900000    0.0600000   2.494471e-04  1.671101e-07
    255    275   2   0.50000     0.1900000    0.0600000   2.494471e-04  1.671101e-07
    272    258   2   0.50000     0.0600000    0.1900000   2.494471e-04  1.671101e-07
    272    274   2   0.50000     0.0600000    0.0600000   6.128906e-05  1.496315e-08
    272    275   2   0.50000     0.0600000    0.0600000   6.128906e-05  1.496315e-08
    273    258   2   0.50000     0.0600000    0.1900000   2.494471e-04  1.671101e-07
    273    274   2   0.50000     0.0600000    0.0600000   6.128906e-05  1.496315e-08
    273    275   2   0.50000     0.0600000    0.0600000   6.128906e-05  1.496315e-08
    256    259   2   0.50000    -0.1200000   -0.3300000   1.026091e-03  1.187829e-06
    256    276   2   0.50000    -0.1200000    0.0300000   1.599888e-04  9.721644e-08
    256    277   2   0.50000    -0.1200000    0.0300000   1.599888e-04  9.721644e-08
    274    259   2   0.50000     0.0600000   -0.3300000   2.521103e-04  1.063590e-07
    274    276   2   0.50000     0.0600000    0.0300000   3.930919e-05  8.704828e-09
    274    277   2   0.50000     0.0600000    0.0300000   3.930919e-05  8.704828e-09
    275    259   2   0.50000     0.0600000   -0.3300000   2.521103e-04  1.063590e-07
    275    276   2   0.50000     0.0600000    0.0300000   3.930919e-05  8.704828e-09
    275    277   2   0.50000     0.0600000    0.0300000   3.930919e-05  8.704828e-09
    257    260   2   0.50000    -0.1200000    0.6250000   1.575021e-03  3.561100e-06
    276    260   2   0.50000     0.0300000    0.6250000   2.482000e-04  1.854991e-07
    277    260   2   0.50000     0.0300000    0.6250000   2.482000e-04  1.854991e-07
    258    261   2   0.50000     0.1900000   -0.4300000   1.095425e-03  1.218041e-06
    258    262   2   0.50000     0.1900000   -0.1150000   1.091018e-03  2.092768e-06
    259    263   2   0.50000    -0.3300000   -0.1150000   1.102666e-03  1.331965e-06
    259    269   2   0.50000    -0.3300000   -0.1150000   1.102666e-03  1.331965e-06
    261    263   2   0.50000    -0.4300000   -0.1150000   1.177174e-03  1.365843e-06
    261    269   2   0.50000    -0.4300000   -0.1150000   1.177174e-03  1.365843e-06
    260    264   2   0.50000     0.6250000   -0.1150000   1.692561e-03  3.993218e-06
    260    278   2   0.50000     0.6250000    0.1150000   3.510079e-04  2.623353e-07
    269    264   2   0.50000    -0.1150000   -0.1150000   1.172438e-03  2.346713e-06
    269    278   2   0.50000    -0.1150000    0.1150000   2.431434e-04  1.541678e-07
    260    268   2   0.50000     0.6250000   -0.1150000   1.692561e-03  3.993218e-06
    260    281   2   0.50000     0.6250000    0.1150000   3.510079e-04  2.623353e-07
    263    268   2   0.50000    -0.1150000   -0.1150000   1.172438e-03  2.346713e-06
    263    281   2   0.50000    -0.1150000    0.1150000   2.431434e-04  1.541678e-07
    262    265   2   0.50000    -0.1150000   -0.1150000   1.172438e-03  2.346713e-06
    262    279   2   0.50000    -0.1150000    0.1150000   2.431434e-04  1.541678e-07
    278    265   2   0.50000     0.1150000   -0.1150000   2.431434e-04  1.541678e-07
    278    279   2   0.50000     0.1150000    0.1150000   5.042375e-05  1.012808e-08
    263    266   2   0.50000    -0.1150000    0.6250000   1.692561e-03  3.993218e-06
    279    266   2   0.50000     0.1150000    0.6250000   3.510079e-04  2.623353e-07
    279    268   2   0.50000     0.1150000   -0.1150000   2.431434e-04  1.541678e-07
    264    267   2   0.50000    -0.1150000   -0.4300000   1.177174e-03  1.365843e-06
    264    282   2   0.50000    -0.1150000   -0.3300000   1.102666e-03  1.331965e-06
    268    267   2   0.50000    -0.1150000   -0.4300000   1.177174e-03  1.365843e-06
    268    282   2   0.50000    -0.1150000   -0.3300000   1.102666e-03  1.331965e-06
    264    280   2   0.50000    -0.1150000    0.1150000   2.431434e-04  1.541678e-07
    266    269   2   0.50000     0.6250000   -0.1150000   1.692561e-03  3.993218e-06
    266    280   2   0.50000     0.6250000    0.1150000   3.510079e-04  2.623353e-07
    265    283   2   0.50000    -0.1150000    0.1900000   1.091018e-03  2.092768e-06
    267    283   2   0.50000    -0.4300000    0.1900000   1.095425e-03  1.218041e-06
    265    281   2   0.50000    -0.1150000    0.1150000   2.431434e-04  1.541678e-07
    280    262   2   0.50000     0.1150000   -0.1150000   2.431434e-04  1.541678e-07
    280    281   2   0.50000     0.1150000    0.1150000   5.042375e-05  1.012808e-08
    266    284   2   0.50000     0.6250000   -0.1200000   1.575021e-03  3.561100e-06
    266    298   2   0.50000     0.6250000    0.0300000   2.482000e-04  1.854991e-07
    266    299   2   0.50000     0.6250000    0.0300000   2.482000e-04  1.854991e-07
    282    285   2   0.50000    -0.3300000   -0.1200000   1.026091e-03  1.187829e-06
    282    300   2   0.50000    -0.3300000    0.0600000   2.521103e-04  1.063590e-07
    282    301   2   0.50000    -0.3300000    0.0600000   2.521103e-04  1.063590e-07
    298    285   2   0.50000     0.0300000   -0.1200000   1.599888e-04  9.721644e-08
    298    300   2   0.50000     0.0300000    0.0600000   3.930919e-05  8.704828e-09
    298    301   2   0.50000     0.0300000    0.0600000   3.930919e-05  8.704828e-09
    299    285   2   0.50000     0.0300000   -0.1200000   1.599888e-04  9.721644e-08
    299    300   2   0.50000     0.0300000    0.0600000   3.930919e-05  8.704828e-09
    299    301   2   0.50000     0.0300000    0.0600000   3.930919e-05  8.704828e-09
    283    286   2   0.50000     0.1900000    0.1900000   1.015252e-03  1.866303e-06
    283    302   2   0.50000     0.1900000    0.0600000   2.494471e-04  1.671101e-07
    283    303   2   0.50000     0.1900000    0.0600000   2.494471e-04  1.671101e-07
    300    286   2   0.50000     0.0600000    0.1900000   2.494471e-04  1.671101e-07
    300    302   2   0.50000     0.0600000    0.0600000   6.128906e-05  1.496315e-08
    300    303   2   0.50000     0.0600000    0.0600000   6.128906e-05  1.496315e-08
    301    286   2   0.50000     0.0600000    0.1900000   2.494471e-04  1.671101e-07
    301    302   2   0.50000     0.0600000    0.0600000   6.128906e-05  1.496315e-08
    301    303   2   0.50000     0.0600000    0.0600000   6.128906e-05  1.496315e-08
    284    287   2   0.50000    -0.1200000   -0.3300000   1.026091e-03  1.187829e-06
    284    304   2   0.50000    -0.1200000    0.0300000   1.599888e-04  9.721644e-08
    284    305   2   0.50000    -0.1200000    0.0300000   1.599888e-04  9.721644e-08
    302    287   2   0.50000     0.0600000   -0.3300000   2.521103e-04  1.063590e-07
    302    304   2   0.50000     0.0600000    0.0300000   3.930919e-05  8.704828e-09
    302    305   2   0.50000     0.0600000    0.0300000   3.930919e-05  8.704828e-09
    303    287   2   0.50000     0.0600000   -0.3300000   2.521103e-04  1.063590e-07
    303    304   2   0.50000     0.0600000    0.0300000   3.930919e-05  8.704828e-09
    303    305   2   0.50000     0.0600000    0.0300000   3.930919e-05  8.704828e-09
    285    288   2   0.50000    -0.1200000    0.6250000   1.575021e-03  3.561100e-06
    304    288   2   0.50000     0.0300000    0.6250000   2.482000e-04  1.854991e-07
    305    288   2   0.50000     0.0300000    0.6250000   2.482000e-04  1.854991e-07
    286    289   2   0.50000     0.1900000   -0.4300000   1.095425e-03  1.218041e-06
    286    290   2   0.50000     0.1900000   -0.1150000   1.091018e-03  2.092768e-06
    287    291   2   0.50000    -0.3300000   -0.1150000   1.102666e-03  1.331965e-06
    287    297   2   0.50000    -0.3300000   -0.1150000   1.102666e-03  1.331965e-06
    289    291   2   0.50000    -0.4300000   -0.1150000   1.177174e-03  1.365843e-06
    289    297   2   0.50000    -0.4300000   -0.1150000   1.177174e-03  1.365843e-06
    288    292   2   0.50000     0.6250000   -0.1150000   1.692561e-03  3.993218e-06
    288    306   2   0.50000     0.6250000    0.1150000   3.510079e-04  2.623353e-07
    297    292   2   0.50000    -0.1150000   -0.1150000   1.172438e-03  2.346713e-06
    297    306   2   0.50000    -0.1150000    0.1150000   2.431434e-04  1.541678e-07
    288    296   2   0.50000     0.6250000   -0.1150000   1.692561e-03  3.993218e-06
    288    309   2   0.50000     0.6250000    0.1150000   3.510079e-04  2.623353e-07
    291    296   2   0.50000    -0.1150000   -0.1150000   1.172438e-03  2.346713e-06
    291    309   2   0.50000    -0.1150000    0.1150000   2.431434e-04  1.541678e-07
    290    293   2   0.50000    -0.1150000   -0.1150000   1.172438e-03  2.346713e-06
    290    307   2   0.50000    -0.1150000    0.1150000   2.431434e-04  1.541678e-07
    306    293   2   0.50000     0.1150000   -0.1150000   2.431434e-04  1.541678e-07
    306    307   2   0.50000     0.1150000    0.1150000   5.042375e-05  1.012808e-08
    291    294   2   0.50000    -0.1150000    0.6250000   1.692561e-03  3.993218e-06
    307    294   2   0.50000     0.1150000    0.6250000   3.510079e-04  2.623353e-07
    307    296   2   0.50000     0.1150000   -0.1150000   2.431434e-04  1.541678e-07
    292    295   2   0.50000    -0.1150000   -0.4300000   1.177174e-03  1.365843e-06
    292    310   2   0.50000    -0.1150000   -0.3300000   1.102666e-03  1.331965e-06
    296    295   2   0.50000    -0.1150000   -0.4300000   1.177174e-03  1.365843e-06
    296    310   2   0.50000    -0.1150000   -0.3300000   1.102666e-03  1.331965e-06
    292    308   2   0.50000    -0.1150000    0.1150000   2.431434e-04  1.541678e-07
    294    297   2   0.50000     0.6250000   -0.1150000   1.692561e-03  3.993218e-06
    294    308   2   0.50000     0.6250000    0.1150000   3.510079e-04  2.623353e-07
    293    311   2   0.50000    -0.1150000    0.1900000   1.091018e-03  2.092768e-06
    295    311   2   0.50000    -0.4300000    0.1900000   1.095425e-03  1.218041e-06
    293    309   2   0.50000    -0.1150000    0.1150000   2.431434e-04  1.541678e-07
    308    290   2   0.50000     0.1150000   -0.1150000   2.431434e-04  1.541678e-07
    308    309   2   0.50000     0.1150000    0.1150000   5.042375e-05  1.012808e-08
    294    312   2   0.50000     0.6250000   -0.1200000   1.575021e-03  3.561100e-06
    294    326   2   0.50000     0.6250000    0.0300000   2.482000e-04  1.854991e-07
    294    327   2   0.50000     0.6250000    0.0300000   2.482000e-04  1.854991e-07
    310    313   2   0.50000    -0.3300000   -0.1200000   1.026091e-03  1.187829e-06
    310    328   2   0.50000    -0.3300000    0.0600000   2.521103e-04  1.063590e-07
    310    329   2   0.50000    -0.3300000    0.0600000   2.521103e-04  1.063590e-07
    326    313   2   0.50000     0.0300000   -0.1200000   1.599888e-04  9.721644e-08
    326    328   2   0.50000     0.0300000    0.0600000   3.930919e-05  8.704828e-09
    326    329   2   0.50000     0.0300000    0.0600000   3.930919e-05  8.704828e-09
    327    313   2   0.50000     0.0300000   -0.1200000   1.599888e-04  9.721644e-08
    327    328   2   0.50000     0.0300000    0.0600000   3.930919e-05  8.704828e-09
    327    329   2   0.50000     0.0300000    0.0600000   3.930919e-05  8.704828e-09
    311    314   2   0.50000     0.1900000    0.1900000   1.015252e-03  1.866303e-06
    311    330   2   0.50000     0.1900000    0.0600000   2.494471e-04  1.671101e-07
    311    331   2   0.50000     0.1900000    0.0600000   2.494471e-04  1.671101e-07
    328    314   2   0.50000     0.0600000    0.1900000   2.494471e-04  1.671101e-07
    328    330   2   0.50000     0.0600000    0.0600000   6.128906e-05  1.496315e-08
    328    331   2   0.50000     0.0600000    0.0600000   6.128906e-05  1.496315e-08
    329    314   2   0.50000     0.0600000    0.1900000   2.494471e-04  1.671101e-07
    329    330   2   0.50000     0.0600000    0.0600000   6.128906e-05  1.496315e-08
    329    331   2   0.50000     0.0600000    0.0600000   6.128906e-05  1.496315e-08
    312    315   2   0.50000    -0.1200000   -0.3300000   1.026091e-03  1.187829e-06
    312    332   2   0.50000    -0.1200000    0.0300000   1.599888e-04  9.721644e-08
    312    333   2   0.50000    -0.1200000    0.0300000   1.599888e-04  9.721644e-08
    330    315   2   0.50000     0.0600000   -0.3300000   2.521103e-04  1.063590e-07
    330    332   2   0.50000     0.0600000    0.0300000   3.930919e-05  8.704828e-09
    330    333   2   0.50000     0.0600000    0.0300000   3.930919e-05  8.704828e-09
    331    315   2   0.50000     0.0600000   -0.3300000   2.521103e-04  1.063590e-07
    331    332   2   0.50000     0.0600000    0.0300000   3.930919e-05  8.704828e-09
    331    333   2   0.50000     0.0600000    0.0300000   3.930919e-05  8.704828e-09
    313    316   2   0.50000    -0.1200000    0.6250000   1.575021e-03  3.561100e-06
    332    316   2   0.50000     0.0300000    0.6250000   2.482000e-04  1.854991e-07
    333    316   2   0.50000     0.0300000    0.6250000   2.482000e-04  1.854991e-07
    314    317   2   0.50000     0.1900000   -0.4300000   1.095425e-03  1.218041e-06
    314    318   2   0.50000     0.1900000   -0.1150000   1.091018e-03  2.092768e-06
    315    319   2   0.50000    -0.3300000   -0.1150000   1.102666e-03  1.331965e-06
    315    325   2   0.50000    -0.3300000   -0.1150000   1.102666e-03  1.331965e-06
    317    319   2   0.50000    -0.4300000   -0.1150000   1.177174e-03  1.365843e-06
    317    325   2   0.50000    -0.4300000   -0.1150000   1.177174e-03  1.365843e-06
    316    320   2   0.50000     0.6250000   -0.1150000   1.692561e-03  3.993218e-06
    316    334   2   0.50000     0.6250000    0.1150000   3.510079e-04  2.623353e-07
    325    320   2   0.50000    -0.1150000   -0.1150000   1.172438e-03  2.346713e-06
    325    334   2   0.50000    -0.1150000    0.1150000   2.431434e-04  1.541678e-07
    316    324   2   0.50000     0.6250000   -0.1150000   1.692561e-03  3.993218e-06
    316    337   2   0.50000     0.6250000    0.1150000   3.510079e-04  2.623353e-07
    319    324   2   0.50000    -0.1150000   -0.1150000   1.172438e-03  2.346713e-06
    319    337   2   0.50000    -0.1150000    0.1150000   2.431434e-04  1.541678e-07
    318    321   2   0.50000    -0.1150000   -0.1150000   1.172438e-03  2.346713e-06
    318    335   2   0.50000    -0.1150000    0.1150000   2.431434e-04  1.541678e-07
    334    321   2   0.50000     0.1150000   -0.1150000   2.431434e-04  1.541678e-07
    334    335   2   0.50000     0.1150000    0.1150000   5.042375e-05  1.012808e-08
    319    322   2   0.50000    -0.1150000    0.6250000   1.692561e-03  3.993218e-06
    335    322   2   0.50000     0.1150000    0.6250000   3.510079e-04  2.623353e-07
    335    324   2   0.50000     0.1150000   -0.1150000   2.431434e-04  1.541678e-07
    320    323   2   0.50000    -0.1150000   -0.4300000   1.177174e-03  1.365843e-06
    320    338   2   0.50000    -0.1150000   -0.3300000   1.102666e-03  1.331965e-06
    324    323   2   0.50000    -0.1150000   -0.4300000   1.177174e-03  1.365843e-06
    324    338   2   0.50000    -0.1150000   -0.3300000   1.102666e-03  1.331965e-06
    320    336   2   0.50000    -0.1150000    0.1150000   2.431434e-04  1.541678e-07
    322    325   2   0.50000     0.6250000   -0.1150000   1.692561e-03  3.993218e-06
    322    336   2   0.50000     0.6250000    0.1150000   3.510079e-04  2.623353e-07
    321    339   2   0.50000    -0.1150000    0.1900000   1.091018e-03  2.092768e-06
    323    339   2   0.50000    -0.4300000    0.1900000   1.095425e-03  1.218041e-06
    321    337   2   0.50000    -0.1150000    0.1150000   2.431434e-04  1.541678e-07
    336    318   2   0.50000     0.1150000   -0.1150000   2.431434e-04  1.541678e-07
    336    337   2   0.50000     0.1150000    0.1150000   5.042375e-05  1.012808e-08
    322    340   2   0.50000     0.6250000   -0.1200000   1.575021e-03  3.561100e-06
    322    354   2   0.50000     0.6250000    0.0300000   2.482000e-04  1.854991e-07
    322    355   2   0.50000     0.6250000    0.0300000   2.482000e-04  1.854991e-07
    338    341   2   0.50000    -0.3300000   -0.1200000   1.026091e-03  1.187829e-06
    338    356   2   0.50000    -0.3300000    0.0600000   2.521103e-04  1.063590e-07
    338    357   2   0.50000    -0.3300000    0.0600000   2.521103e-04  1.063590e-07
    354    341   2   0.50000     0.0300000   -0.1200000   1.599888e-04  9.721644e-08
    354    356   2   0.50000     0.0300000    0.0600000   3.930919e-05  8.704828e-09
    354    357   2   0.50000     0.0300000    0.0600000   3.930919e-05  8.704828e-09
    355    341   2   0.50000     0.0300000   -0.1200000   1.599888e-04  9.721644e-08
    355    356   2   0.50000     0.0300000    0.0600000   3.930919e-05  8.704828e-09
    355    357   2   0.50000     0.0300000    0.0600000   3.930919e-05  8.704828e-09
    339    342   2   0.50000     0.1900000    0.1900000   1.015252e-03  1.866303e-06
    339    358   2   0.50000     0.1900000    0.0600000   2.494471e-04  1.671101e-07
    339    359   2   0.50000     0.1900000    0.0600000   2.494471e-04  1.671101e-07
    356    342   2   0.50000     0.0600000    0.1900000   2.494471e-04  1.671101e-07
    356    358   2   0.50000     0.0600000    0.0600000   6.128906e-05  1.496315e-08
    356    359   2   0.50000     0.0600000    0.0600000   6.128906e-05  1.496315e-08
    357    342   2   0.50000     0.0600000    0.1900000   2.494471e-04  1.671101e-07
    357    358   2   0.50000     0.0600000    0.0600000   6.128906e-05  1.496315e-08
    357    359   2   0.50000     0.0600000    0.0600000   6.128906e-05  1.496315e-08
    340    343   2   0.50000    -0.1200000   -0.3300000   1.026091e-03  1.187829e-06
    340    360   2   0.50000    -0.1200000    0.0300000   1.599888e-04  9.721644e-08
    340    361   2   0.50000    -0.1200000    0.0300000   1.599888e-04  9.721644e-08
    358    343   2   0.50000     0.0600000   -0.3300000   2.521103e-04  1.063590e-07
    358    360   2   0.50000     0.0600000    0.0300000   3.930919e-05  8.704828e-09
    358    361   2   0.50000     0.0600000    0.0300000   3.930919e-05  8.704828e-09
    359    343   2   0.50000     0.0600000   -0.3300000   2.521103e-04  1.063590e-07
    359    360   2   0.50000     0.0600000    0.0300000   3.930919e-05  8.704828e-09
    359    361   2   0.50000     0.0600000    0.0300000   3.930919e-05  8.704828e-09
    341    344   2   0.50000    -0.1200000    0.6250000   1.575021e-03  3.561100e-06
    360    344   2   0.50000     0.0300000    0.6250000   2.482000e-04  1.854991e-07
    361    344   2   0.50000     0.0300000    0.6250000   2.482000e-04  1.854991e-07
    342    345   2   0.50000     0.1900000   -0.4300000   1.095425e-03  1.218041e-06
    342    346   2   0.50000     0.1900000   -0.1150000   1.091018e-03  2.092768e-06
    343    347   2   0.50000    -0.3300000   -0.1150000   1.102666e-03  1.331965e-06
    343    353   2   0.50000    -0.3300000   -0.1150000   1.102666e-03  1.331965e-06
    345    347   2   0.50000    -0.4300000   -0.1150000   1.177174e-03  1.365843e-06
    345    353   2   0.50000    -0.4300000   -0.1150000   1.177174e-03  1.365843e-06
    344    348   2   0.50000     0.6250000   -0.1150000   1.692561e-03  3.993218e-06
    344    362   2   0.50000     0.6250000    0.1150000   3.510079e-04  2.623353e-07
    353    348   2   0.50000    -0.1150000   -0.1150000   1.172438e-03  2.346713e-06
    353    362   2   0.50000    -0.1150000    0.1150000   2.431434e-04  1.541678e-07
    344    352   2   0.50000     0.6250000   -0.1150000   1.692561e-03  3.993218e-06
    344    365   2   0.50000     0.6250000    0.1150000   3.510079e-04  2.623353e-07
    347    352   2   0.50000    -0.1150000   -0.1150000   1.172438e-03  2.346713e-06
    347    365   2   0.50000    -0.1150000    0.1150000   2.431434e-04  1.541678e-07
    346    349   2   0.50000    -0.1150000   -0.1150000   1.172438e-03  2.346713e-06
    346    363   2   0.50000    -0.1150000    0.1150000   2.431434e-04  1.541678e-07
    362    349   2   0.50000     0.1150000   -0.1150000   2.431434e-04  1.541678e-07
    362    363   2   0.50000     0.1150000    0.1150000   5.042375e-05  1.012808e-08
    347    350   2   0.50000    -0.1150000    0.6250000   1.692561e-03  3.993218e-06
    363    350   2   0.50000     0.1150000    0.6250000   3.510079e-04  2.623353e-07
    363    352   2   0.50000     0.1150000   -0.1150000   2.431434e-04  1.541678e-07
    348    351   2   0.50000    -0.1150000   -0.4300000   1.177174e-03  1.365843e-06
    348    366   2   0.50000    -0.1150000   -0.3300000   1.102666e-03  1.331965e-06
    352    351   2   0.50000    -0.1150000   -0.4300000   1.177174e-03  1.365843e-06
    352    366   2   0.50000    -0.1150000   -0.3300000   1.102666e-03  1.331965e-06
    348    364   2   0.50000    -0.1150000    0.1150000   2.431434e-04  1.541678e-07
    350    353   2   0.50000     0.6250000   -0.1150000   1.692561e-03  3.993218e-06
    350    364   2   0.50000     0.6250000    0.1150000   3.510079e-04  2.623353e-07
    349    367   2   0.50000    -0.1150000    0.1900000   1.091018e-03  2.092768e-06
    351    367   2   0.50000    -0.4300000    0.1900000   1.095425e-03  1.218041e-06
    349    365   2   0.50000    -0.1150000    0.1150000   2.431434e-04  1.541678e-07
    364    346   2   0.50000     0.1150000   -0.1150000   2.431434e-04  1.541678e-07
    364    365   2   0.50000     0.1150000    0.1150000   5.042375e-05  1.012808e-08
    350    368   2   0.50000     0.6250000   -0.1200000   1.575021e-03  3.561100e-06
    350    382   2   0.50000     0.6250000    0.0300000   2.482000e-04  1.854991e-07
    350    383   2   0.50000     0.6250000    0.0300000   2.482000e-04  1.854991e-07
    366    369   2   0.50000    -0.3300000   -0.1200000   1.026091e-03  1.187829e-06
    366    384   2   0.50000    -0.3300000    0.0600000   2.521103e-04  1.063590e-07
    366    385   2   0.50000    -0.3300000    0.0600000   2.521103e-04  1.063590e-07
    382    369   2   0.50000     0.0300000   -0.1200000   1.599888e-04  9.721644e-08
    382    384   2   0.50000     0.0300000    0.0600000   3.930919e-05  8.704828e-09
    382    385   2   0.50000     0.0300000    0.0600000   3.930919e-05  8.704828e-09
    383    369   2   0.50000     0.0300000   -0.1200000   1.599888e-04  9.721644e-08
    383    384   2   0.50000     0.0300000    0.0600000   3.930919e-05  8.704828e-09
    383    385   2   0.50000     0.0300000    0.0600000   3.930919e-05  8.704828e-09
    367    370   2   0.50000     0.1900000    0.1900000   1.015252e-03  1.866303e-06
    367    386   2   0.50000     0.1900000    0.0600000   2.494471e-04  1.671101e-07
    367    387   2   0.50000     0.1900000    0.0600000   2.494471e-04  1.671101e-07
    384    370   2   0.50000     0.0600000    0.1900000   2.494471e-04  1.671101e-07
    384    386   2   0.50000     0.0600000    0.0600000   6.128906e-05  1.496315e-08
    384    387   2   0.50000     0.0600000    0.0600000   6.128906e-05  1.496315e-08
    385    370   2   0.50000     0.0600000    0.1900000   2.494471e-04  1.671101e-07
    385    386   2   0.50000     0.0600000    0.0600000   6.128906e-05  1.496315e-08
    385    387   2   0.50000     0.0600000    0.0600000   6.128906e-05  1.496315e-08
    368    371   2   0.50000    -0.1200000   -0.3300000   1.026091e-03  1.187829e-06
    368    388   2   0.50000    -0.1200000    0.0300000   1.599888e-04  9.721644e-08
    368    389   2   0.50000    -0.1200000    0.0300000   1.599888e-04  9.721644e-08
    386    371   2   0.50000     0.0600000   -0.3300000   2.521103e-04  1.063590e-07
    386    388   2   0.50000     0.0600000    0.0300000   3.930919e-05  8.704828e-09
    386    389   2   0.50000     0.0600000    0.0300000   3.930919e-05  8.704828e-09
    387    371   2   0.50000     0.0600000   -0.3300000   2.521103e-04  1.063590e-07
    387    388   2   0.50000     0.0600000    0.0300000   3.930919e-05  8.704828e-09
    387    389   2   0.50000     0.0600000    0.0300000   3.930919e-05  8.704828e-09
    369    372   2   0.50000    -0.1200000    0.6250000   1.575021e-03  3.561100e-06
    388    372   2   0.50000     0.0300000    0.6250000   2.482000e-04  1.854991e-07
    389    372   2   0.50000     0.0300000    0.6250000   2.482000e-04  1.854991e-07
    370    373   2   0.50000     0.1900000   -0.4300000   1.095425e-03  1.218041e-06
    370    374   2   0.50000     0.1900000   -0.1150000   1.091018e-03  2.092768e-06
    371    375   2   0.50000    -0.3300000   -0.1150000   1.102666e-03  1.331965e-06
    371    381   2   0.50000    -0.3300000   -0.1150000   1.102666e-03  1.331965e-06
    373    375   2   0.50000    -0.4300000   -0.1150000   1.177174e-03  1.365843e-06
    373    381   2   0.50000    -0.4300000   -0.1150000   1.177174e-03  1.365843e-06
    372    376   2   0.50000     0.6250000   -0.1150000   1.692561e-03  3.993218e-06
    372    390   2   0.50000     0.6250000    0.1150000   3.510079e-04  2.623353e-07
    381    376   2   0.50000    -0.1150000   -0.1150000   1.172438e-03  2.346713e-06
    381    390   2   0.50000    -0.1150000    0.1150000   2.431434e-04  1.541678e-07
    372    380   2   0.50000     0.6250000   -0.1150000   1.692561e-03  3.993218e-06
    372    393   2   0.50000     0.6250000    0.1150000   3.510079e-04  2.623353e-07
    375    380   2   0.50000    -0.1150000   -0.1150000   1.172438e-03  2.346713e-06
    375    393   2   0.50000    -0.1150000    0.1150000   2.431434e-04  1.541678e-07
    374    377   2   0.50000    -0.1150000   -0.1150000   1.172438e-03  2.346713e-06
    374    391   2   0.50000    -0.1150000    0.1150000   2.431434e-04  1.541678e-07
    390    377   2   0.50000     0.1150000   -0.1150000   2.431434e-04  1.541678e-07
    390    391   2   0.50000     0.1150000    0.1150000   5.042375e-05  1.012808e-08
    375    378   2   0.50000    -0.1150000    0.6250000   1.692561e-03  3.993218e-06
    391    378   2   0.50000     0.1150000    0.6250000   3.510079e-04  2.623353e-07
    391    380   2   0.50000     0.1150000   -0.1150000   2.431434e-04  1.541678e-07
    376    379   2   0.50000    -0.1150000   -0.4300000   1.177174e-03  1.365843e-06
    376    394   2   0.50000    -0.1150000   -0.3300000   1.102666e-03  1.331965e-06
    380    379   2   0.50000    -0.1150000   -0.4300000   1.177174e-03  1.365843e-06
    380    394   2   0.50000    -0.1150000   -0.3300000   1.102666e-03  1.331965e-06
    376    392   2   0.50000    -0.1150000    0.1150000   2.431434e-04  1.541678e-07
    378    381   2   0.50000     0.6250000   -0.1150000   1.692561e-03  3.993218e-06
    378    392   2   0.50000     0.6250000    0.1150000   3.510079e-04  2.623353e-07
    377    395   2   0.50000    -0.1150000    0.1900000   1.091018e-03  2.092768e-06
    379    395   2   0.50000    -0.4300000    0.1900000   1.095425e-03  1.218041e-06
    377    393   2   0.50000    -0.1150000    0.1150000   2.431434e-04  1.541678e-07
    392    374   2   0.50000     0.1150000   -0.1150000   2.431434e-04  1.541678e-07
    392    393   2   0.50000     0.1150000    0.1150000   5.042375e-05  1.012808e-08
    378    396   2   0.50000     0.6250000   -0.1200000   1.575021e-03  3.561100e-06
    378    410   2   0.50000     0.6250000    0.0300000   2.482000e-04  1.854991e-07
    378    411   2   0.50000     0.6250000    0.0300000   2.482000e-04  1.854991e-07
    394    397   2   0.50000    -0.3300000   -0.1200000   1.026091e-03  1.187829e-06
    394    412   2   0.50000    -0.3300000    0.0600000   2.521103e-04  1.063590e-07
    394    413   2   0.50000    -0.3300000    0.0600000   2.521103e-04  1.063590e-07
    410    397   2   0.50000     0.0300000   -0.1200000   1.599888e-04  9.721644e-08
    410    412   2   0.50000     0.0300000    0.0600000   3.930919e-05  8.704828e-09
    410    413   2   0.50000     0.0300000    0.0600000   3.930919e-05  8.704828e-09
    411    397   2   0.50000     0.0300000   -0.1200000   1.599888e-04  9.721644e-08
    411    412   2   0.50000     0.0300000    0.0600000   3.930919e-05  8.704828e-09
    411    413   2   0.50000     0.0300000    0.0600000   3.930919e-05  8.704828e-09
    395    398   2   0.50000     0.1900000    0.1900000   1.015252e-03  1.866303e-06
    395    414   2   0.50000     0.1900000    0.0600000   2.494471e-04  1.671101e-07
    395    415   2   0.50000     0.1900000    0.0600000   2.494471e-04  1.671101e-07
    412    398   2   0.50000     0.0600000    0.1900000   2.494471e-04  1.671101e-07
    412    414   2   0.50000     0.0600000    0.0600000   6.128906e-05  1.496315e-08
    412    415   2   0.50000     0.0600000    0.0600000   6.128906e-05  1.496315e-08
    413    398   2   0.50000     0.0600000    0.1900000   2.494471e-04  1.671101e-07
    413    414   2   0.50000     0.0600000    0.0600000   6.128906e-05  1.496315e-08
    413    415   2   0.50000     0.0600000    0.0600000   6.128906e-05  1.496315e-08
    396    399   2   0.50000    -0.1200000   -0.3300000   1.026091e-03  1.187829e-06
    396    416   2   0.50000    -0.1200000    0.0300000   1.599888e-04  9.721644e-08
    396    417   2   0.50000    -0.1200000    0.0300000   1.599888e-04  9.721644e-08
    414    399   2   0.50000     0.0600000   -0.3300000   2.521103e-04  1.063590e-07
    414    416   2   0.50000     0.0600000    0.0300000   3.930919e-05  8.704828e-09
    414    417   2   0.50000     0.0600000    0.0300000   3.930919e-05  8.704828e-09
    415    399   2   0.50000     0.0600000   -0.3300000   2.521103e-04  1.063590e-07
    415    416   2   0.50000     0.0600000    0.0300000   3.930919e-05  8.704828e-09
    415    417   2   0.50000     0.0600000    0.0300000   3.930919e-05  8.704828e-09
    397    400   2   0.50000    -0.1200000    0.6250000   1.575021e-03  3.561100e-06
    416    400   2   0.50000     0.0300000    0.6250000   2.482000e-04  1.854991e-07
    417    400   2   0.50000     0.0300000    0.6250000   2.482000e-04  1.854991e-07
    398    401   2   0.50000     0.1900000   -0.4300000   1.095425e-03  1.218041e-06
    398    402   2   0.50000     0.1900000   -0.1150000   1.091018e-03  2.092768e-06
    399    403   2   0.50000    -0.3300000   -0.1150000   1.102666e-03  1.331965e-06
    399    409   2   0.50000    -0.3300000   -0.1150000   1.102666e-03  1.331965e-06
    401    403   2   0.50000    -0.4300000   -0.1150000   1.177174e-03  1.365843e-06
    401    409   2   0.50000    -0.4300000   -0.1150000   1.177174e-03  1.365843e-06
    400    404   2   0.50000     0.6250000   -0.1150000   1.692561e-03  3.993218e-06
    400    418   2   0.50000     0.6250000    0.1150000   3.510079e-04  2.623353e-07
    409    404   2   0.50000    -0.1150000   -0.1150000   1.172438e-03  2.346713e-06
    409    418   2   0.50000    -0.1150000    0.1150000   2.431434e-04  1.541678e-07
    400    408   2   0.50000     0.6250000   -0.1150000   1.692561e-03  3.993218e-06
    400    421   2   0.50000     0.6250000    0.1150000   3.510079e-04  2.623353e-07
    403    408   2   0.50000    -0.1150000   -0.1150000   1.172438e-03  2.346713e-06
    403    421   2   0.50000    -0.1150000    0.1150000   2.431434e-04  1.541678e-07
    402    405   2   0.50000    -0.1150000   -0.1150000   1.172438e-03  2.346713e-06
    402    419   2   0.50000    -0.1150000    0.1150000   2.431434e-04  1.541678e-07
    418    405   2   0.50000     0.1150000   -0.1150000   2.431434e-04  1.541678e-07
    418    419   2   0.50000     0.1150000    0.1150000   5.042375e-05  1.012808e-08
    403    406   2   0.50000    -0.1150000    0.6250000   1.692561e-03  3.993218e-06
    419    406   2   0.50000     0.1150000    0.6250000   3.510079e-04  2.623353e-07
    419    408   2   0.50000     0.1150000   -0.1150000   2.431434e-04  1.541678e-07
    404    407   2   0.50000    -0.1150000   -0.4300000   1.177174e-03  1.365843e-06
    404    422   2   0.50000    -0.1150000   -0.3300000   1.102666e-03  1.331965e-06
    408    407   2   0.50000    -0.1150000   -0.4300000   1.177174e-03  1.365843e-06
    408    422   2   0.50000    -0.1150000   -0.3300000   1.102666e-03  1.331965e-06
    404    420   2   0.50000    -0.1150000    0.1150000   2.431434e-04  1.541678e-07
    406    409   2   0.50000     0.6250000   -0.1150000   1.692561e-03  3.993218e-06
    406    420   2   0.50000     0.6250000    0.1150000   3.510079e-04  2.623353e-07
    405    423   2   0.50000    -0.1150000    0.1900000   1.091018e-03  2.092768e-06
    407    423   2   0.50000    -0.4300000    0.1900000   1.095425e-03  1.218041e-06
    405    421   2   0.50000    -0.1150000    0.1150000   2.431434e-04  1.541678e-07
    420    402   2   0.50000     0.1150000   -0.1150000   2.431434e-04  1.541678e-07
    420    421   2   0.50000     0.1150000    0.1150000   5.042375e-05  1.012808e-08
    406    424   2   0.50000     0.6250000   -0.1200000   1.575021e-03  3.561100e-06
    406    438   2   0.50000     0.6250000    0.0300000   2.482000e-04  1.854991e-07
    406    439   2   0.50000     0.6250000    0.0300000   2.482000e-04  1.854991e-07
    422    425   2   0.50000    -0.3300000   -0.1200000   1.026091e-03  1.187829e-06
    422    440   2   0.50000    -0.3300000    0.0600000   2.521103e-04  1.063590e-07
    422    441   2   0.50000    -0.3300000    0.0600000   2.521103e-04  1.063590e-07
    438    425   2   0.50000     0.0300000   -0.1200000   1.599888e-04  9.721644e-08
    438    440   2   0.50000     0.0300000    0.0600000   3.930919e-05  8.704828e-09
    438    441   2   0.50000     0.0300000    0.0600000   3.930919e-05  8.704828e-09
    439    425   2   0.50000     0.0300000   -0.1200000   1.599888e-04  9.721644e-08
    439    440   2   0.50000     0.0300000    0.0600000   3.930919e-05  8.704828e-09
    439    441   2   0.50000     0.0300000    0.0600000   3.930919e-05  8.704828e-09
    423    426   2   0.50000     0.1900000    0.1900000   1.015252e-03  1.866303e-06
    423    442   2   0.50000     0.1900000    0.0600000   2.494471e-04  1.671101e-07
    423    443   2   0.50000     0.1900000    0.0600000   2.494471e-04  1.671101e-07
    440    426   2   0.50000     0.0600000    0.1900000   2.494471e-04  1.671101e-07
    440    442   2   0.50000     0.0600000    0.0600000   6.128906e-05  1.496315e-08
    440    443   2   0.50000     0.0600000    0.0600000   6.128906e-05  1.496315e-08
    441    426   2   0.50000     0.0600000    0.1900000   2.494471e-04  1.671101e-07
    441    442   2   0.50000     0.0600000    0.0600000   6.128906e-05  1.496315e-08
    441    443   2   0.50000     0.0600000    0.0600000   6.128906e-05  1.496315e-08
    424    427   2   0.50000    -0.1200000   -0.3300000   1.026091e-03  1.187829e-06
    424    444   2   0.50000    -0.1200000    0.0300000   1.599888e-04  9.721644e-08
    424    445   2   0.50000    -0.1200000    0.0300000   1.599888e-04  9.721644e-08
    442    427   2   0.50000     0.0600000   -0.3300000   2.521103e-04  1.063590e-07
    442    444   2   0.50000     0.0600000    0.0300000   3.930919e-05  8.704828e-09
    442    445   2   0.50000     0.0600000    0.0300000   3.930919e-05  8.704828e-09
    443    427   2   0.50000     0.0600000   -0.3300000   2.521103e-04  1.063590e-07
    443    444   2   0.50000     0.0600000    0.0300000   3.930919e-05  8.704828e-09
    443    445   2   0.50000     0.0600000    0.0300000   3.930919e-05  8.704828e-09
    425    428   2   0.50000    -0.1200000    0.6250000   1.575021e-03  3.561100e-06
    444    428   2   0.50000     0.0300000    0.6250000   2.482000e-04  1.854991e-07
    445    428   2   0.50000     0.0300000    0.6250000   2.482000e-04  1.854991e-07
    426    429   2   0.50000     0.1900000   -0.4300000   1.095425e-03  1.218041e-06
    426    430   2   0.50000     0.1900000   -0.1150000   1.091018e-03  2.092768e-06
    427    431   2   0.50000    -0.3300000   -0.1150000   1.102666e-03  1.331965e-06
    427    437   2   0.50000    -0.3300000   -0.1150000   1.102666e-03  1.331965e-06
    429    431   2   0.50000    -0.4300000   -0.1150000   1.177174e-03  1.365843e-06
    429    437   2   0.50000    -0.4300000   -0.1150000   1.177174e-03  1.365843e-06
    428    432   2   0.50000     0.6250000   -0.1150000   1.692561e-03  3.993218e-06
    428    446   2   0.50000     0.6250000    0.1150000   3.510079e-04  2.623353e-07
    437    432   2   0.50000    -0.1150000   -0.1150000   1.172438e-03  2.346713e-06
    437    446   2   0.50000    -0.1150000    0.1150000   2.431434e-04  1.541678e-07
    428    436   2   0.50000     0.6250000   -0.1150000   1.692561e-03  3.993218e-06
    428    449   2   0.50000     0.6250000    0.1150000   3.510079e-04  2.623353e-07
    431    436   2   0.50000    -0.1150000   -0.1150000   1.172438e-03  2.346713e-06
    431    449   2   0.50000    -0.1150000    0.1150000   2.431434e-04  1.541678e-07
    430    433   2   0.50000    -0.1150000   -0.1150000   1.172438e-03  2.346713e-06
    430    447   2   0.50000    -0.1150000    0.1150000   2.431434e-04  1.541678e-07
    446    433   2   0.50000     0.1150000   -0.1150000   2.431434e-04  1.541678e-07
    446    447   2   0.50000     0.1150000    0.1150000   5.042375e-05  1.012808e-08
    431    434   2   0.50000    -0.1150000    0.6250000   1.692561e-03  3.993218e-06
    447    434   2   0.50000     0.1150000    0.6250000   3.510079e-04  2.623353e-07
    447    436   2   0.50000     0.1150000   -0.1150000   2.431434e-04  1.541678e-07
    432    435   2   0.50000    -0.1150000   -0.4300000   1.177174e-03  1.365843e-06
    432    450   2   0.50000    -0.1150000   -0.3300000   1.102666e-03  1.331965e-06
    436    435   2   0.50000    -0.1150000   -0.4300000   1.177174e-03  1.365843e-06
    436    450   2   0.50000    -0.1150000   -0.3300000   1.102666e-03  1.331965e-06
    432    448   2   0.50000    -0.1150000    0.1150000   2.431434e-04  1.541678e-07
    434    437   2   0.50000     0.6250000   -0.1150000   1.692561e-03  3.993218e-06
    434    448   2   0.50000     0.6250000    0.1150000   3.510079e-04  2.623353e-07
    433    451   2   0.50000    -0.1150000    0.1900000   1.091018e-03  2.092768e-06
    435    451   2   0.50000    -0.4300000    0.1900000   1.095425e-03  1.218041e-06
    433    449   2   0.50000    -0.1150000    0.1150000   2.431434e-04  1.541678e-07
    448    430   2   0.50000     0.1150000   -0.1150000   2.431434e-04  1.541678e-07
    448    449   2   0.50000     0.1150000    0.1150000   5.042375e-05  1.012808e-08
    434    452   2   0.50000     0.6250000   -0.1200000   1.575021e-03  3.561100e-06
    434    466   2   0.50000     0.6250000    0.0300000   2.482000e-04  1.854991e-07
    434    467   2   0.50000     0.6250000    0.0300000   2.482000e-04  1.854991e-07
    450    453   2   0.50000    -0.3300000   -0.1200000   1.026091e-03  1.187829e-06
    450    468   2   0.50000    -0.3300000    0.0600000   2.521103e-04  1.063590e-07
    450    469   2   0.50000    -0.3300000    0.0600000   2.521103e-04  1.063590e-07
    466    453   2   0.50000     0.0300000   -0.1200000   1.599888e-04  9.721644e-08
    466    468   2   0.50000     0.0300000    0.0600000   3.930919e-05  8.704828e-09
    466    469   2   0.50000     0.0300000    0.0600000   3.930919e-05  8.704828e-09
    467    453   2   0.50000     0.0300000   -0.1200000   1.599888e-04  9.721644e-08
    467    468   2   0.50000     0.0300000    0.0600000   3.930919e-05  8.704828e-09
    467    469   2   0.50000     0.0300000    0.0600000   3.930919e-05  8.704828e-09
    451    454   2   0.50000     0.1900000    0.1900000   1.015252e-03  1.866303e-06
    451    470   2   0.50000     0.1900000    0.0600000   2.494471e-04  1.671101e-07
    451    471   2   0.50000     0.1900000    0.0600000   2.494471e-04  1.671101e-07
    468    454   2   0.50000     0.0600000    0.1900000   2.494471e-04  1.671101e-07
    468    470   2   0.50000     0.0600000    0.0600000   6.128906e-05  1.496315e-08
    468    471   2   0.50000     0.0600000    0.0600000   6.128906e-05  1.496315e-08
    469    454   2   0.50000     0.0600000    0.1900000   2.494471e-04  1.671101e-07
    469    470   2   0.50000     0.0600000    0.0600000   6.128906e-05  1.496315e-08
    469    471   2   0.50000     0.0600000    0.0600000   6.128906e-05  1.496315e-08
    452    455   2   0.50000    -0.1200000   -0.3300000   1.026091e-03  1.187829e-06
    452    472   2   0.50000    -0.1200000    0.0300000   1.599888e-04  9.721644e-08
    452    473   2   0.50000    -0.1200000    0.0300000   1.599888e-04  9.721644e-08
    470    455   2   0.50000     0.0600000   -0.3300000   2.521103e-04  1.063590e-07
    470    472   2   0.50000     0.0600000    0.0300000   3.930919e-05  8.704828e-09
    470    473   2   0.50000     0.0600000    0.0300000   3.930919e-05  8.704828e-09
    471    455   2   0.50000     0.0600000   -0.3300000   2.521103e-04  1.063590e-07
    471    472   2   0.50000     0.0600000    0.0300000   3.930919e-05  8.704828e-09
    471    473   2   0.50000     0.0600000    0.0300000   3.930919e-05  8.704828e-09
    453    456   2   0.50000    -0.1200000    0.6250000   1.575021e-03  3.561100e-06
    472    456   2   0.50000     0.0300000    0.6250000   2.482000e-04  1.854991e-07
    473    456   2   0.50000     0.0300000    0.6250000   2.482000e-04  1.854991e-07
    454    457   2   0.50000     0.1900000   -0.4300000   1.095425e-03  1.218041e-06
    454    458   2   0.50000     0.1900000   -0.1150000   1.091018e-03  2.092768e-06
    455    459   2   0.50000    -0.3300000   -0.1150000   1.102666e-03  1.331965e-06
    455    465   2   0.50000    -0.3300000   -0.1150000   1.102666e-03  1.331965e-06
    457    459   2   0.50000    -0.4300000   -0.1150000   1.177174e-03  1.365843e-06
    457    465   2   0.50000    -0.4300000   -0.1150000   1.177174e-03  1.365843e-06
    456    460   2   0.50000     0.6250000   -0.1150000   1.692561e-03  3.993218e-06
    456    474   2   0.50000     0.6250000    0.1150000   3.510079e-04  2.623353e-07
    465    460   2   0.50000    -0.1150000   -0.1150000   1.172438e-03  2.346713e-06
    465    474   2   0.50000    -0.1150000    0.1150000   2.431434e-04  1.541678e-07
    456    464   2   0.50000     0.6250000   -0.1150000   1.692561e-03  3.993218e-06
    456    477   2   0.50000     0.6250000    0.1150000   3.510079e-04  2.623353e-07
    459    464   2   0.50000    -0.1150000   -0.1150000   1.172438e-03  2.346713e-06
    459    477   2   0.50000    -0.1150000    0.1150000   2.431434e-04  1.541678e-07
    458    461   2   0.50000    -0.1150000   -0.1150000   1.172438e-03  2.346713e-06
    458    475   2   0.50000    -0.1150000    0.1150000   2.431434e-04  1.541678e-07
    474    461   2   0.50000     0.1150000   -0.1150000   2.431434e-04  1.541678e-07
    474    475   2   0.50000     0.1150000    0.1150000   5.042375e-05  1.012808e-08
    459    462   2   0.50000    -0.1150000    0.6250000   1.692561e-03  3.993218e-06
    475    462   2   0.50000     0.1150000    0.6250000   3.510079e-04  2.623353e-07
    475    464   2   0.50000     0.1150000   -0.1150000   2.431434e-04  1.541678e-07
    460    463   2   0.50000    -0.1150000   -0.4300000   1.177174e-03  1.365843e-06
    460    478   2   0.50000    -0.1150000   -0.3300000   1.102666e-03  1.331965e-06
    464    463   2   0.50000    -0.1150000   -0.4300000   1.177174e-03  1.365843e-06
    464    478   2   0.50000    -0.1150000   -0.3300000   1.102666e-03  1.331965e-06
    460    476   2   0.50000    -0.1150000    0.1150000   2.431434e-04  1.541678e-07
    462    465   2   0.50000     0.6250000   -0.1150000   1.692561e-03  3.993218e-06
    462    476   2   0.50000     0.6250000    0.1150000   3.510079e-04  2.623353e-07
    461    479   2   0.50000    -0.1150000    0.1900000   1.091018e-03  2.092768e-06
    463    479   2   0.50000    -0.4300000    0.1900000   1.095425e-03  1.218041e-06
    461    477   2   0.50000    -0.1150000    0.1150000   2.431434e-04  1.541678e-07
    476    458   2   0.50000     0.1150000   -0.1150000   2.431434e-04  1.541678e-07
    476    477   2   0.50000     0.1150000    0.1150000   5.042375e-05  1.012808e-08
    462    480   2   0.50000     0.6250000   -0.1200000   1.575021e-03  3.561100e-06
    462    494   2   0.50000     0.6250000    0.0300000   2.482000e-04  1.854991e-07
    462    495   2   0.50000     0.6250000    0.0300000   2.482000e-04  1.854991e-07
    478    481   2   0.50000    -0.3300000   -0.1200000   1.026091e-03  1.187829e-06
    478    496   2   0.50000    -0.3300000    0.0600000   2.521103e-04  1.063590e-07
    478    497   2   0.50000    -0.3300000    0.0600000   2.521103e-04  1.063590e-07
    494    481   2   0.50000     0.0300000   -0.1200000   1.599888e-04  9.721644e-08
    494    496   2   0.50000     0.0300000    0.0600000   3.930919e-05  8.704828e-09
    494    497   2   0.50000     0.0300000    0.0600000   3.930919e-05  8.704828e-09
    495    481   2   0.50000     0.0300000   -0.1200000   1.599888e-04  9.721644e-08
    495    496   2   0.50000     0.0300000    0.0600000   3.930919e-05  8.704828e-09
    495    497   2   0.50000     0.0300000    0.0600000   3.930919e-05  8.704828e-09
    479    482   2   0.50000     0.1900000    0.1900000   1.015252e-03  1.866303e-06
    479    498   2   0.50000     0.1900000    0.0600000   2.494471e-04  1.671101e-07
    479    499   2   0.50000     0.1900000    0.0600000   2.494471e-04  1.671101e-07
    496    482   2   0.50000     0.0600000    0.1900000   2.494471e-04  1.671101e-07
    496    498   2   0.50000     0.0600000    0.0600000   6.128906e-05  1.496315e-08
    496    499   2   0.50000     0.0600000    0.0600000   6.128906e-05  1.496315e-08
    497    482   2   0.50000     0.0600000    0.1900000   2.494471e-04  1.671101e-07
    497    498   2   0.50000     0.0600000    0.0600000   6.128906e-05  1.496315e-08
    497    499   2   0.50000     0.0600000    0.0600000   6.128906e-05  1.496315e-08
    480    483   2   0.50000    -0.1200000   -0.3300000   1.026091e-03  1.187829e-06
    480    500   2   0.50000    -0.1200000    0.0300000   1.599888e-04  9.721644e-08
    480    501   2   0.50000    -0.1200000    0.0300000   1.599888e-04  9.721644e-08
    498    483   2   0.50000     0.0600000   -0.3300000   2.521103e-04  1.063590e-07
    498    500   2   0.50000     0.0600000    0.0300000   3.930919e-05  8.704828e-09
    498    501   2   0.50000     0.0600000    0.0300000   3.930919e-05  8.704828e-09
    499    483   2   0.50000     0.0600000   -0.3300000   2.521103e-04  1.063590e-07
    499    500   2   0.50000     0.0600000    0.0300000   3.930919e-05  8.704828e-09
    499    501   2   0.50000     0.0600000    0.0300000   3.930919e-05  8.704828e-09
    481    484   2   0.50000    -0.1200000    0.6250000   1.575021e-03  3.561100e-06
    500    484   2   0.50000     0.0300000    0.6250000   2.482000e-04  1.854991e-07
    501    484   2   0.50000     0.0300000    0.6250000   2.482000e-04  1.854991e-07
    482    485   2   0.50000     0.1900000   -0.4300000   1.095425e-03  1.218041e-06
    482    486   2   0.50000     0.1900000   -0.1150000   1.091018e-03  2.092768e-06
    483    487   2   0.50000    -0.3300000   -0.1150000   1.102666e-03  1.331965e-06
    483    493   2   0.50000    -0.3300000   -0.1150000   1.102666e-03  1.331965e-06
    485    487   2   0.50000    -0.4300000   -0.1150000   1.177174e-03  1.365843e-06
    485    493   2   0.50000    -0.4300000   -0.1150000   1.177174e-03  1.365843e-06
    484    488   2   0.50000     0.6250000   -0.1150000   1.692561e-03  3.993218e-06
    484    502   2   0.50000     0.6250000    0.1150000   3.510079e-04  2.623353e-07
    493    488   2   0.50000    -0.1150000   -0.1150000   1.172438e-03  2.346713e-06
    493    502   2   0.50000    -0.1150000    0.1150000   2.431434e-04  1.541678e-07
    484    492   2   0.50000     0.6250000   -0.1150000   1.692561e-03  3.993218e-06
    484    505   2   0.50000     0.6250000    0.1150000   3.510079e-04  2.623353e-07
    487    492   2   0.50000    -0.1150000   -0.1150000   1.172438e-03  2.346713e-06
    487    505   2   0.50000    -0.1150000    0.1150000   2.431434e-04  1.541678e-07
    486    489   2   0.50000    -0.1150000   -0.1150000   1.172438e-03  2.346713e-06
    486    503   2   0.50000    -0.1150000    0.1150000   2.431434e-04  1.541678e-07
    502    489   2   0.50000     0.1150000   -0.1150000   2.431434e-04  1.541678e-07
    502    503   2   0.50000     0.1150000    0.1150000   5.042375e-05  1.012808e-08
    487    490   2   0.50000    -0.1150000    0.6250000   1.692561e-03  3.993218e-06
    503    490   2   0.50000     0.1150000    0.6250000   3.510079e-04  2.623353e-07
    503    492   2   0.50000     0.1150000   -0.1150000   2.431434e-04  1.541678e-07
    488    491   2   0.50000    -0.1150000   -0.4300000   1.177174e-03  1.365843e-06
    488    506   2   0.50000    -0.1150000   -0.3300000   1.102666e-03  1.331965e-06
    492    491   2   0.50000    -0.1150000   -0.4300000   1.177174e-03  1.365843e-06
    492    506   2   0.50000    -0.1150000   -0.3300000   1.102666e-03  1.331965e-06
    488    504   2   0.50000    -0.1150000    0.1150000   2.431434e-04  1.541678e-07
    490    493   2   0.50000     0.6250000   -0.1150000   1.692561e-03  3.993218e-06
    490    504   2   0.50000     0.6250000    0.1150000   3.510079e-04  2.623353e-07
    489    507   2   0.50000    -0.1150000    0.1900000   1.091018e-03  2.092768e-06
    491    507   2   0.50000    -0.4300000    0.1900000   1.095425e-03  1.218041e-06
    489    505   2   0.50000    -0.1150000    0.1150000   2.431434e-04  1.541678e-07
    504    486   2   0.50000     0.1150000   -0.1150000   2.431434e-04  1.541678e-07
    504    505   2   0.50000     0.1150000    0.1150000   5.042375e-05  1.012808e-08
    490    508   2   0.50000     0.6250000   -0.1200000   1.575021e-03  3.561100e-06
    490    522   2   0.50000     0.6250000    0.0300000   2.482000e-04  1.854991e-07
    490    523   2   0.50000     0.6250000    0.0300000   2.482000e-04  1.854991e-07
    506    509   2   0.50000    -0.3300000   -0.1200000   1.026091e-03  1.187829e-06
    506    524   2   0.50000    -0.3300000    0.0600000   2.521103e-04  1.063590e-07
    506    525   2   0.50000    -0.3300000    0.0600000   2.521103e-04  1.063590e-07
    522    509   2   0.50000     0.0300000   -0.1200000   1.599888e-04  9.721644e-08
    522    524   2   0.50000     0.0300000    0.0600000   3.930919e-05  8.704828e-09
    522    525   2   0.50000     0.0300000    0.0600000   3.930919e-05  8.704828e-09
    523    509   2   0.50000     0.0300000   -0.1200000   1.599888e-04  9.721644e-08
    523    524   2   0.50000     0.0300000    0.0600000   3.930919e-05  8.704828e-09
    523    525   2   0.50000     0.0300000    0.0600000   3.930919e-05  8.704828e-09
    507    510   2   0.50000     0.1900000    0.1900000   1.015252e-03  1.866303e-06
    507    526   2   0.50000     0.1900000    0.0600000   2.494471e-04  1.671101e-07
    507    527   2   0.50000     0.1900000    0.0600000   2.494471e-04  1.671101e-07
    524    510   2   0.50000     0.0600000    0.1900000   2.494471e-04  1.671101e-07
    524    526   2   0.50000     0.0600000    0.0600000   6.128906e-05  1.496315e-08
    524    527   2   0.50000     0.0600000    0.0600000   6.128906e-05  1.496315e-08
    525    510   2   0.50000     0.0600000    0.1900000   2.494471e-04  1.671101e-07
    525    526   2   0.50000     0.0600000    0.0600000   6.128906e-05  1.496315e-08
    525    527   2   0.50000     0.0600000    0.0600000   6.128906e-05  1.496315e-08
    508    511   2   0.50000    -0.1200000   -0.3300000   1.026091e-03  1.187829e-06
    508    528   2   0.50000    -0.1200000    0.0300000   1.599888e-04  9.721644e-08
    508    529   2   0.50000    -0.1200000    0.0300000   1.599888e-04  9.721644e-08
    526    511   2   0.50000     0.0600000   -0.3300000   2.521103e-04  1.063590e-07
    526    528   2   0.50000     0.0600000    0.0300000   3.930919e-05  8.704828e-09
    526    529   2   0.50000     0.0600000    0.0300000   3.930919e-05  8.704828e-09
    527    511   2   0.50000     0.0600000   -0.3300000   2.521103e-04  1.063590e-07
    527    528   2   0.50000     0.0600000    0.0300000   3.930919e-05  8.704828e-09
    527    529   2   0.50000     0.0600000    0.0300000   3.930919e-05  8.704828e-09
    509    512   2   0.50000    -0.1200000    0.6250000   1.575021e-03  3.561100e-06
    528    512   2   0.50000     0.0300000    0.6250000   2.482000e-04  1.854991e-07
    529    512   2   0.50000     0.0300000    0.6250000   2.482000e-04  1.854991e-07
    510    513   2   0.50000     0.1900000   -0.4300000   1.095425e-03  1.218041e-06
    510    514   2   0.50000     0.1900000   -0.1150000   1.091018e-03  2.092768e-06
    511    515   2   0.50000    -0.3300000   -0.1150000   1.102666e-03  1.331965e-06
    511    521   2   0.50000    -0.3300000   -0.1150000   1.102666e-03  1.331965e-06
    513    515   2   0.50000    -0.4300000   -0.1150000   1.177174e-03  1.365843e-06
    513    521   2   0.50000    -0.4300000   -0.1150000   1.177174e-03  1.365843e-06
    512    516   2   0.50000     0.6250000   -0.1150000   1.692561e-03  3.993218e-06
    512    530   2   0.50000     0.6250000    0.1150000   3.510079e-04  2.623353e-07
    521    516   2   0.50000    -0.1150000   -0.1150000   1.172438e-03  2.346713e-06
    521    530   2   0.50000    -0.1150000    0.1150000   2.431434e-04  1.541678e-07
    512    520   2   0.50000     0.6250000   -0.1150000   1.692561e-03  3.993218e-06
    512    533   2   0.50000     0.6250000    0.1150000   3.510079e-04  2.623353e-07
    515    520   2   0.50000    -0.1150000   -0.1150000   1.172438e-03  2.346713e-06
    515    533   2   0.50000    -0.1150000    0.1150000   2.431434e-04  1.541678e-07
    514    517   2   0.50000    -0.1150000   -0.1150000   1.172438e-03  2.346713e-06
    514    531   2   0.50000    -0.1150000    0.1150000   2.431434e-04  1.541678e-07
    530    517   2   0.50000     0.1150000   -0.1150000   2.431434e-04  1.541678e-07
    530    531   2   0.50000     0.1150000    0.1150000   5.042375e-05  1.012808e-08
    515    518   2   0.50000    -0.1150000    0.6250000   1.692561e-03  3.993218e-06
    531    518   2   0.50000     0.1150000    0.6250000   3.510079e-04  2.623353e-07
    531    520   2   0.50000     0.1150000   -0.1150000   2.431434e-04  1.541678e-07
    516    519   2   0.50000    -0.1150000   -0.4300000   1.177174e-03  1.365843e-06
    516    534   2   0.50000    -0.1150000   -0.3300000   1.102666e-03  1.331965e-06
    520    519   2   0.50000    -0.1150000   -0.4300000   1.177174e-03  1.365843e-06
    520    534   2   0.50000    -0.1150000   -0.3300000   1.102666e-03  1.331965e-06
    516    532   2   0.50000    -0.1150000    0.1150000   2.431434e-04  1.541678e-07
    518    521   2   0.50000     0.6250000   -0.1150000   1.692561e-03  3.993218e-06
    518    532   2   0.50000     0.6250000    0.1150000   3.510079e-04  2.623353e-07
    517    535   2   0.50000    -0.1150000    0.1900000   1.091018e-03  2.092768e-06
    519    535   2   0.50000    -0.4300000    0.1900000   1.095425e-03  1.218041e-06
    517    533   2   0.50000    -0.1150000    0.1150000   2.431434e-04  1.541678e-07
    532    514   2   0.50000     0.1150000   -0.1150000   2.431434e-04  1.541678e-07
    532    533   2   0.50000     0.1150000    0.1150000   5.042375e-05  1.012808e-08
    518    536   2   0.50000     0.6250000   -0.1200000   1.575021e-03  3.561100e-06
    518    550   2   0.50000     0.6250000    0.0300000   2.482000e-04  1.854991e-07
    518    551   2   0.50000     0.6250000    0.0300000   2.482000e-04  1.854991e-07
    534    537   2   0.50000    -0.3300000   -0.1200000   1.026091e-03  1.187829e-06
    534    552   2   0.50000    -0.3300000    0.0600000   2.521103e-04  1.063590e-07
    534    553   2   0.50000    -0.3300000    0.0600000   2.521103e-04  1.063590e-07
    550    537   2   0.50000     0.0300000   -0.1200000   1.599888e-04  9.721644e-08
    550    552   2   0.50000     0.0300000    0.0600000   3.930919e-05  8.704828e-09
    550    553   2   0.50000     0.0300000    0.0600000   3.930919e-05  8.704828e-09
    551    537   2   0.50000     0.0300000   -0.1200000   1.599888e-04  9.721644e-08
    551    552   2   0.50000     0.0300000    0.0600000   3.930919e-05  8.704828e-09
    551    553   2   0.50000     0.0300000    0.0600000   3.930919e-05  8.704828e-09
    535    538   2   0.50000     0.1900000    0.1900000   1.015252e-03  1.866303e-06
    535    554   2   0.50000     0.1900000    0.0600000   2.494471e-04  1.671101e-07
    535    555   2   0.50000     0.1900000    0.0600000   2.494471e-04  1.671101e-07
    552    538   2   0.50000     0.0600000    0.1900000   2.494471e-04  1.671101e-07
    552    554   2   0.50000     0.0600000    0.0600000   6.128906e-05  1.496315e-08
    552    555   2   0.50000     0.0600000    0.0600000   6.128906e-05  1.496315e-08
    553    538   2   0.50000     0.0600000    0.1900000   2.494471e-04  1.671101e-07
    553    554   2   0.50000     0.0600000    0.0600000   6.128906e-05  1.496315e-08
    553    555   2   0.50000     0.0600000    0.0600000   6.128906e-05  1.496315e-08
    536    539   2   0.50000    -0.1200000   -0.3300000   1.026091e-03  1.187829e-06
    536    556   2   0.50000    -0.1200000    0.0300000   1.599888e-04  9.721644e-08
    536    557   2   0.50000    -0.1200000    0.0300000   1.599888e-04  9.721644e-08
    554    539   2   0.50000     0.0600000   -0.3300000   2.521103e-04  1.063590e-07
    554    556   2   0.50000     0.0600000    0.0300000   3.930919e-05  8.704828e-09
    554    557   2   0.50000     0.0600000    0.0300000   3.930919e-05  8.704828e-09
    555    539   2   0.50000     0.0600000   -0.3300000   2.521103e-04  1.063590e-07
    555    556   2   0.50000     0.0600000    0.0300000   3.930919e-05  8.704828e-09
    555    557   2   0.50000     0.0600000    0.0300000   3.930919e-05  8.704828e-09
    537    540   2   0.50000    -0.1200000    0.6250000   1.575021e-03  3.561100e-06
    556    540   2   0.50000     0.0300000    0.6250000   2.482000e-04  1.854991e-07
    557    540   2   0.50000     0.0300000    0.6250000   2.482000e-04  1.854991e-07
    538    541   2   0.50000     0.1900000   -0.4300000   1.095425e-03  1.218041e-06
    538    542   2   0.50000     0.1900000   -0.1150000   1.091018e-03  2.092768e-06
    539    543   2   0.50000    -0.3300000   -0.1150000   1.102666e-03  1.331965e-06
    539    549   2   0.50000    -0.3300000   -0.1150000   1.102666e-03  1.331965e-06
    541    543   2   0.50000    -0.4300000   -0.1150000   1.177174e-03  1.365843e-06
    541    549   2   0.50000    -0.4300000   -0.1150000   1.177174e-03  1.365843e-06
    540    544   2   0.50000     0.6250000   -0.1150000   1.692561e-03  3.993218e-06
    540    558   2   0.50000     0.6250000    0.1150000   3.510079e-04  2.623353e-07
    549    544   2   0.50000    -0.1150000   -0.1150000   1.172438e-03  2.346713e-06
    549    558   2   0.50000    -0.1150000    0.1150000   2.431434e-04  1.541678e-07
    540    548   2   0.50000     0.6250000   -0.1150000   1.692561e-03  3.993218e-06
    540    561   2   0.50000     0.6250000    0.1150000   3.510079e-04  2.623353e-07
    543    548   2   0.50000    -0.1150000   -0.1150000   1.172438e-03  2.346713e-06
    543    561   2   0.50000    -0.1150000    0.1150000   2.431434e-04  1.541678e-07
    542    545   2   0.50000    -0.1150000   -0.1150000   1.172438e-03  2.346713e-06
    542    559   2   0.50000    -0.1150000    0.1150000   2.431434e-04  1.541678e-07
    558    545   2   0.50000     0.1150000   -0.1150000   2.431434e-04  1.541678e-07
    558    559   2   0.50000     0.1150000    0.1150000   5.042375e-05  1.012808e-08
    543    546   2   0.50000    -0.1150000    0.5650000   1.692561e-03  3.993218e-06
    559    546   2   0.50000     0.1150000    0.5650000   3.510079e-04  2.623353e-07
    559    548   2   0.50000     0.1150000   -0.1150000   2.431434e-04  1.541678e-07
    544    547   2   0.50000    -0.1150000   -0.4500000   1.177174e-03  1.365843e-06
    544    562   2   0.50000    -0.1150000    0.0000000   1.719283e-04  1.090131e-07
    548    547   2   0.50000    -0.1150000   -0.4500000   1.177174e-03  1.365843e-06
    548    562   2   0.50000    -0.1150000    0.0000000   1.719283e-04  1.090131e-07
    544    560   2   0.50000    -0.1150000    0.1150000   2.431434e-04  1.541678e-07
    546    549   2   0.50000     0.5650000   -0.1150000   1.692561e-03  3.993218e-06
    546    560   2   0.50000     0.5650000    0.1150000   3.510079e-04  2.623353e-07
    545    561   2   0.50000    -0.1150000    0.1150000   2.431434e-04  1.541678e-07
    560    542   2   0.50000     0.1150000   -0.1150000   2.431434e-04  1.541678e-07
    560    561   2   0.50000     0.1150000    0.1150000   5.042375e-05  1.012808e-08

[ angles ]
; ai  aj  ak
      2      1     29   1    108.5000    460.2400
      1      2      3   1    109.5000    418.4000
      1      2     17   1    109.5000    292.8800
      1      2     18   1    109.5000    292.8800
      3      2     17   1    110.7000    313.8000
      3      2     18   1    110.7000    313.8000
     17      2     18   1    107.8000    276.1440
      2      3      4   1    112.7000    488.2728
      2      3     19   1    110.7000    313.8000
      2      3     20   1    110.7000    313.8000
      4      3     19   1    110.7000    313.8000
      4      3     20   1    110.7000    313.8000
     19      3     20   1    107.8000    276.1440
      3      4      5   1    112.7000    488.2728
      3      4     21   1    110.7000    313.8000
      3      4     22   1    110.7000    313.8000
      5      4     21   1    110.7000    313.8000
      5      4     22   1    110.7000    313.8000
     21      4     22   1    107.8000    276.1440
      4      5      6   1    109.5000    418.4000
      4      5     23   1    110.7000    313.8000
      4      5     24   1    110.7000    313.8000
      6      5     23   1    109.5000    292.8800
      6      5     24   1    109.5000    292.8800
     23      5     24   1    107.8000    276.1440
      5      6      7   1    116.9000    694.5440
      6      7      8   1    123.4000    694.5440
      6      7      9   1    111.4000    677.8080
      8      7      9   1    123.7840    627.6000
      7      9     10   1    119.5260    502.0800
      7      9     16   1    119.5260    502.0800
     10      9     16   1    120.0000    527.1840
      9     10     11   1    120.0000    527.1840
      9     10     25   1    120.0000    292.8800
     11     10     25   1    120.0000    292.8800
     10     11     12   1    120.0000    527.1840
     10     11     26   1    120.0000    292.8800
     12     11     26   1    120.0000    292.8800
     11     12     13   1    119.5260    502.0800
     11     12     15   1    120.0000    527.1840
     13     12     15   1    119.5260    502.0800
     12     13     14   1    123.7840    627.6000
     12     13     30   1    111.4000    677.8080
     14     13     30   1    123.4000    694.5440
     12     15     16   1    120.0000    527.1840
     12     15     27   1    120.0000    292.8800
     16     15     27   1    120.0000    292.8800
      9     16     15   1    120.0000    527.1840
      9     16     28   1    120.0000    292.8800
     15     16     28   1    120.0000    292.8800
     13     30     31   1    116.9000    694.5440
     30     31     32   1    109.5000    418.4000
     30     31     46   1    109.5000    292.8800
     30     31     47   1    109.5000    292.8800
     32     31     46   1    110.7000    313.8000
     32     31     47   1    110.7000    313.8000
     46     31     47   1    107.8000    276.1440
     31     32     33   1    112.7000    488.2728
     31     32     48   1    110.7000    313.8000
     31     32     49   1    110.7000    313.8000
     33     32     48   1    110.7000    313.8000
     33     32     49   1    110.7000    313.8000
     48     32     49   1    107.8000    276.1440
     32     33     34   1    112.7000    488.2728
     32     33     50   1    110.7000    313.8000
     32     33     51   1    110.7000    313.8000
     34     33     50   1    110.7000    313.8000
     34     33     51   1    110.7000    313.8000
     50     33     51   1    107.8000    276.1440
     33     34     35   1    109.5000    418.4000
     33     34     52   1    110.7000    313.8000
     33     34     53   1    110.7000    313.8000
     35     34     52   1    109.5000    292.8800
     35     34     53   1    109.5000    292.8800
     52     34     53   1    107.8000    276.1440
     34     35     36   1    116.9000    694.5440
     35     36     37   1    123.4000    694.5440
     35     36     38   1    111.4000    677.8080
     37     36     38   1    123.7840    627.6000
     36     38     39   1    119.5260    502.0800
     36     38     45   1    119.5260    502.0800
     39     38     45   1    120.0000    527.1840
     38     39     40   1    120.0000    527.1840
     38     39     54   1    120.0000    292.8800
     40     39     54   1    120.0000    292.8800
     39     40     41   1    120.0000    527.1840
     39     40     55   1    120.0000    292.8800
     41     40     55   1    120.0000    292.8800
     40     41     42   1    119.5260    502.0800
     40     41     44   1    120.0000    527.1840
     42     41     44   1    119.5260    502.0800
     41     42     43   1    123.7840    627.6000
     41     42     58   1    111.4000    677.8080
     43     42     58   1    123.4000    694.5440
     41     44     45   1    120.0000    527.1840
     41     44     56   1    120.0000    292.8800
     45     44     56   1    120.0000    292.8800
     38     45     44   1    120.0000    527.1840
     38     45     57   1    120.0000    292.8800
     44     45     57   1    120.0000    292.8800
     42     58     59   1    116.9000    694.5440
     58     59     60   1    109.5000    418.4000
     58     59     74   1    109.5000    292.8800
     58     59     75   1    109.5000    292.8800
     60     59     74   1    110.7000    313.8000
     60     59     75   1    110.7000    313.8000
     74     59     75   1    107.8000    276.1440
     59     60     61   1    112.7000    488.2728
     59     60     76   1    110.7000    313.8000
     59     60     77   1    110.7000    313.8000
     61     60     76   1    110.7000    313.8000
     61     60     77   1    110.7000    313.8000
     76     60     77   1    107.8000    276.1440
     60     61     62   1    112.7000    488.2728
     60     61     78   1    110.7000    313.8000
     60     61     79   1    110.7000    313.8000
     62     61     78   1    110.7000    313.8000
     62     61     79   1    110.7000    313.8000
     78     61     79   1    107.8000    276.1440
     61     62     63   1    109.5000    418.4000
     61     62     80   1    110.7000    313.8000
     61     62     81   1    110.7000    313.8000
     63     62     80   1    109.5000    292.8800
     63     62     81   1    109.5000    292.8800
     80     62     81   1    107.8000    276.1440
     62     63     64   1    116.9000    694.5440
     63     64     65   1    123.4000    694.5440
     63     64     66   1    111.4000    677.8080
     65     64     66   1    123.7840    627.6000
     64     66     67   1    119.5260    502.0800
     64     66     73   1    119.5260    502.0800
     67     66     73   1    120.0000    527.1840
     66     67     68   1    120.0000    527.1840
     66     67     82   1    120.0000    292.8800
     68     67     82   1    120.0000    292.8800
     67     68     69   1    120.0000    527.1840
     67     68     83   1    120.0000    292.8800
     69     68     83   1    120.0000    292.8800
     68     69     70   1    119.5260    502.0800
     68     69     72   1    120.0000    527.1840
     70     69     72   1    119.5260    502.0800
     69     70     71   1    123.7840    627.6000
     69     70     86   1    111.4000    677.8080
     71     70     86   1    123.4000    694.5440
     69     72     73   1    120.0000    527.1840
     69     72     84   1    120.0000    292.8800
     73     72     84   1    120.0000    292.8800
     66     73     72   1    120.0000    527.1840
     66     73     85   1    120.0000    292.8800
     72     73     85   1    120.0000    292.8800
     70     86     87   1    116.9000    694.5440
     86     87     88   1    109.5000    418.4000
     86     87    102   1    109.5000    292.8800
     86     87    103   1    109.5000    292.8800
     88     87    102   1    110.7000    313.8000
     88     87    103   1    110.7000    313.8000
    102     87    103   1    107.8000    276.1440
     87     88     89   1    112.7000    488.2728
     87     88    104   1    110.7000    313.8000
     87     88    105   1    110.7000    313.8000
     89     88    104   1    110.7000    313.8000
     89     88    105   1    110.7000    313.8000
    104     88    105   1    107.8000    276.1440
     88     89     90   1    112.7000    488.2728
     88     89    106   1    110.7000    313.8000
     88     89    107   1    110.7000    313.8000
     90     89    106   1    110.7000    313.8000
     90     89    107   1    110.7000    313.8000
    106     89    107   1    107.8000    276.1440
     89     90     91   1    109.5000    418.4000
     89     90    108   1    110.7000    313.8000
     89     90    109   1    110.7000    313.8000
     91     90    108   1    109.5000    292.8800
     91     90    109   1    109.5000    292.8800
    108     90    109   1    107.8000    276.1440
     90     91     92   1    116.9000    694.5440
     91     92     93   1    123.4000    694.5440
     91     92     94   1    111.4000    677.8080
     93     92     94   1    123.7840    627.6000
     92     94     95   1    119.5260    502.0800
     92     94    101   1    119.5260    502.0800
     95     94    101   1    120.0000    527.1840
     94     95     96   1    120.0000    527.1840
     94     95    110   1    120.0000    292.8800
     96     95    110   1    120.0000    292.8800
     95     96     97   1    120.0000    527.1840
     95     96    111   1    120.0000    292.8800
     97     96    111   1    120.0000    292.8800
     96     97     98   1    119.5260    502.0800
     96     97    100   1    120.0000    527.1840
     98     97    100   1    119.5260    502.0800
     97     98     99   1    123.7840    627.6000
     97     98    114   1    111.4000    677.8080
     99     98    114   1    123.4000    694.5440
     97    100    101   1    120.0000    527.1840
     97    100    112   1    120.0000    292.8800
    101    100    112   1    120.0000    292.8800
     94    101    100   1    120.0000    527.1840
     94    101    113   1    120.0000    292.8800
    100    101    113   1    120.0000    292.8800
     98    114    115   1    116.9000    694.5440
    114    115    116   1    109.5000    418.4000
    114    115    130   1    109.5000    292.8800
    114    115    131   1    109.5000    292.8800
    116    115    130   1    110.7000    313.8000
    116    115    131   1    110.7000    313.8000
    130    115    131   1    107.8000    276.1440
    115    116    117   1    112.7000    488.2728
    115    116    132   1    110.7000    313.8000
    115    116    133   1    110.7000    313.8000
    117    116    132   1    110.7000    313.8000
    117    116    133   1    110.7000    313.8000
    132    116    133   1    107.8000    276.1440
    116    117    118   1    112.7000    488.2728
    116    117    134   1    110.7000    313.8000
    116    117    135   1    110.7000    313.8000
    118    117    134   1    110.7000    313.8000
    118    117    135   1    110.7000    313.8000
    134    117    135   1    107.8000    276.1440
    117    118    119   1    109.5000    418.4000
    117    118    136   1    110.7000    313.8000
    117    118    137   1    110.7000    313.8000
    119    118    136   1    109.5000    292.8800
    119    118    137   1    109.5000    292.8800
    136    118    137   1    107.8000    276.1440
    118    119    120   1    116.9000    694.5440
    119    120    121   1    123.4000    694.5440
    119    120    122   1    111.4000    677.8080
    121    120    122   1    123.7840    627.6000
    120    122    123   1    119.5260    502.0800
    120    122    129   1    119.5260    502.0800
    123    122    129   1    120.0000    527.1840
    122    123    124   1    120.0000    527.1840
    122    123    138   1    120.0000    292.8800
    124    123    138   1    120.0000    292.8800
    123    124    125   1    120.0000    527.1840
    123    124    139   1    120.0000    292.8800
    125    124    139   1    120.0000    292.8800
    124    125    126   1    119.5260    502.0800
    124    125    128   1    120.0000    527.1840
    126    125    128   1    119.5260    502.0800
    125    126    127   1    123.7840    627.6000
    125    126    142   1    111.4000    677.8080
    127    126    142   1    123.4000    694.5440
    125    128    129   1    120.0000    527.1840
    125    128    140   1    120.0000    292.8800
    129    128    140   1    120.0000    292.8800
    122    129    128   1    120.0000    527.1840
    122    129    141   1    120.0000    292.8800
    128    129    141   1    120.0000    292.8800
    126    142    143   1    116.9000    694.5440
    142    143    144   1    109.5000    418.4000
    142    143    158   1    109.5000    292.8800
    142    143    159   1    109.5000    292.8800
    144    143    158   1    110.7000    313.8000
    144    143    159   1    110.7000    313.8000
    158    143    159   1    107.8000    276.1440
    143    144    145   1    112.7000    488.2728
    143    144    160   1    110.7000    313.8000
    143    144    161   1    110.7000    313.8000
    145    144    160   1    110.7000    313.8000
    145    144    161   1    110.7000    313.8000
    160    144    161   1    107.8000    276.1440
    144    145    146   1    112.7000    488.2728
    144    145    162   1    110.7000    313.8000
    144    145    163   1    110.7000    313.8000
    146    145    162   1    110.7000    313.8000
    146    145    163   1    110.7000    313.8000
    162    145    163   1    107.8000    276.1440
    145    146    147   1    109.5000    418.4000
    145    146    164   1    110.7000    313.8000
    145    146    165   1    110.7000    313.8000
    147    146    164   1    109.5000    292.8800
    147    146    165   1    109.5000    292.8800
    164    146    165   1    107.8000    276.1440
    146    147    148   1    116.9000    694.5440
    147    148    149   1    123.4000    694.5440
    147    148    150   1    111.4000    677.8080
    149    148    150   1    123.7840    627.6000
    148    150    151   1    119.5260    502.0800
    148    150    157   1    119.5260    502.0800
    151    150    157   1    120.0000    527.1840
    150    151    152   1    120.0000    527.1840
    150    151    166   1    120.0000    292.8800
    152    151    166   1    120.0000    292.8800
    151    152    153   1    120.0000    527.1840
    151    152    167   1    120.0000    292.8800
    153    152    167   1    120.0000    292.8800
    152    153    154   1    119.5260    502.0800
    152    153    156   1    120.0000    527.1840
    154    153    156   1    119.5260    502.0800
    153    154    155   1    123.7840    627.6000
    153    154    170   1    111.4000    677.8080
    155    154    170   1    123.4000    694.5440
    153    156    157   1    120.0000    527.1840
    153    156    168   1    120.0000    292.8800
    157    156    168   1    120.0000    292.8800
    150    157    156   1    120.0000    527.1840
    150    157    169   1    120.0000    292.8800
    156    157    169   1    120.0000    292.8800
    154    170    171   1    116.9000    694.5440
    170    171    172   1    109.5000    418.4000
    170    171    186   1    109.5000    292.8800
    170    171    187   1    109.5000    292.8800
    172    171    186   1    110.7000    313.8000
    172    171    187   1    110.7000    313.8000
    186    171    187   1    107.8000    276.1440
    171    172    173   1    112.7000    488.2728
    171    172    188   1    110.7000    313.8000
    171    172    189   1    110.7000    313.8000
    173    172    188   1    110.7000    313.8000
    173    172    189   1    110.7000    313.8000
    188    172    189   1    107.8000    276.1440
    172    173    174   1    112.7000    488.2728
    172    173    190   1    110.7000    313.8000
    172    173    191   1    110.7000    313.8000
    174    173    190   1    110.7000    313.8000
    174    173    191   1    110.7000    313.8000
    190    173    191   1    107.8000    276.1440
    173    174    175   1    109.5000    418.4000
    173    174    192   1    110.7000    313.8000
    173    174    193   1    110.7000    313.8000
    175    174    192   1    109.5000    292.8800
    175    174    193   1    109.5000    292.8800
    192    174    193   1    107.8000    276.1440
    174    175    176   1    116.9000    694.5440
    175    176    177   1    123.4000    694.5440
    175    176    178   1    111.4000    677.8080
    177    176    178   1    123.7840    627.6000
    176    178    179   1    119.5260    502.0800
    176    178    185   1    119.5260    502.0800
    179    178    185   1    120.0000    527.1840
    178    179    180   1    120.0000    527.1840
    178    179    194   1    120.0000    292.8800
    180    179    194   1    120.0000    292.8800
    179    180    181   1    120.0000    527.1840
    179    180    195   1    120.0000    292.8800
    181    180    195   1    120.0000    292.8800
    180    181    182   1    119.5260    502.0800
    180    181    184   1    120.0000    527.1840
    182    181    184   1    119.5260    502.0800
    181    182    183   1    123.7840    627.6000
    181    182    198   1    111.4000    677.8080
    183    182    198   1    123.4000    694.5440
    181    184    185   1    120.0000    527.1840
    181    184    196   1    120.0000    292.8800
    185    184    196   1    120.0000    292.8800
    178    185    184   1    120.0000    527.1840
    178    185    197   1    120.0000    292.8800
    184    185    197   1    120.0000    292.8800
    182    198    199   1    116.9000    694.5440
    198    199    200   1    109.5000    418.4000
    198    199    214   1    109.5000    292.8800
    198    199    215   1    109.5000    292.8800
    200    199    214   1    110.7000    313.8000
    200    199    215   1    110.7000    313.8000
    214    199    215   1    107.8000    276.1440
    199    200    201   1    112.7000    488.2728
    199    200    216   1    110.7000    313.8000
    199    200    217   1    110.7000    313.8000
    201    200    216   1    110.7000    313.8000
    201    200    217   1    110.7000    313.8000
    216    200    217   1    107.8000    276.1440
    200    201    202   1    112.7000    488.2728
    200    201    218   1    110.7000    313.8000
    200    201    219   1    110.7000    313.8000
    202    201    218   1    110.7000    313.8000
    202    201    219   1    110.7000    313.8000
    218    201    219   1    107.8000    276.1440
    201    202    203   1    109.5000    418.4000
    201    202    220   1    110.7000    313.8000
    201    202    221   1    110.7000    313.8000
    203    202    220   1    109.5000    292.8800
    203    202    221   1    109.5000    292.8800
    220    202    221   1    107.8000    276.1440
    202    203    204   1    116.9000    694.5440
    203    204    205   1    123.4000    694.5440
    203    204    206   1    111.4000    677.8080
    205    204    206   1    123.7840    627.6000
    204    206    207   1    119.5260    502.0800
    204    206    213   1    119.5260    502.0800
    207    206    213   1    120.0000    527.1840
    206    207    208   1    120.0000    527.1840
    206    207    222   1    120.0000    292.8800
    208    207    222   1    120.0000    292.8800
    207    208    209   1    120.0000    527.1840
    207    208    223   1    120.0000    292.8800
    209    208    223   1    120.0000    292.8800
    208    209    210   1    119.5260    502.0800
    208    209    212   1    120.0000    527.1840
    210    209    212   1    119.5260    502.0800
    209    210    211   1    123.7840    627.6000
    209    210    226   1    111.4000    677.8080
    211    210    226   1    123.4000    694.5440
    209    212    213   1    120.0000    527.1840
    209    212    224   1    120.0000    292.8800
    213    212    224   1    120.0000    292.8800
    206    213    212   1    120.0000    527.1840
    206    213    225   1    120.0000    292.8800
    212    213    225   1    120.0000    292.8800
    210    226    227   1    116.9000    694.5440
    226    227    228   1    109.5000    418.4000
    226    227    242   1    109.5000    292.8800
    226    227    243   1    109.5000    292.8800
    228    227    242   1    110.7000    313.8000
    228    227    243   1    110.7000    313.8000
    242    227    243   1    107.8000    276.1440
    227    228    229   1    112.7000    488.2728
    227    228    244   1    110.7000    313.8000
    227    228    245   1    110.7000    313.8000
    229    228    244   1    110.7000    313.8000
    229    228    245   1    110.7000    313.8000
    244    228    245   1    107.8000    276.1440
    228    229    230   1    112.7000    488.2728
    228    229    246   1    110.7000    313.8000
    228    229    247   1    110.7000    313.8000
    230    229    246   1    110.7000    313.8000
    230    229    247   1    110.7000    313.8000
    246    229    247   1    107.8000    276.1440
    229    230    231   1    109.5000    418.4000
    229    230    248   1    110.7000    313.8000
    229    230    249   1    110.7000    313.8000
    231    230    248   1    109.5000    292.8800
    231    230    249   1    109.5000    292.8800
    248    230    249   1    107.8000    276.1440
    230    231    232   1    116.9000    694.5440
    231    232    233   1    123.4000    694.5440
    231    232    234   1    111.4000    677.8080
    233    232    234   1    123.7840    627.6000
    232    234    235   1    119.5260    502.0800
    232    234    241   1    119.5260    502.0800
    235    234    241   1    120.0000    527.1840
    234    235    236   1    120.0000    527.1840
    234    235    250   1    120.0000    292.8800
    236    235    250   1    120.0000    292.8800
    235    236    237   1    120.0000    527.1840
    235    236    251   1    120.0000    292.8800
    237    236    251   1    120.0000    292.8800
    236    237    238   1    119.5260    502.0800
    236    237    240   1    120.0000    527.1840
    238    237    240   1    119.5260    502.0800
    237    238    239   1    123.7840    627.6000
    237    238    254   1    111.4000    677.8080
    239    238    254   1    123.4000    694.5440
    237    240    241   1    120.0000    527.1840
    237    240    252   1    120.0000    292.8800
    241    240    252   1    120.0000    292.8800
    234    241    240   1    120.0000    527.1840
    234    241    253   1    120.0000    292.8800
    240    241    253   1    120.0000    292.8800
    238    254    255   1    116.9000    694.5440
    254    255    256   1    109.5000    418.4000
    254    255    270   1    109.5000    292.8800
    254    255    271   1    109.5000    292.8800
    256    255    270   1    110.7000    313.8000
    256    255    271   1    110.7000    313.8000
    270    255    271   1    107.8000    276.1440
    255    256    257   1    112.7000    488.2728
    255    256    272   1    110.7000    313.8000
    255    256    273   1    110.7000    313.8000
    257    256    272   1    110.7000    313.8000
    257    256    273   1    110.7000    313.8000
    272    256    273   1    107.8000    276.1440
    256    257    258   1    112.7000    488.2728
    256    257    274   1    110.7000    313.8000
    256    257    275   1    110.7000    313.8000
    258    257    274   1    110.7000    313.8000
    258    257    275   1    110.7000    313.8000
    274    257    275   1    107.8000    276.1440
    257    258    259   1    109.5000    418.4000
    257    258    276   1    110.7000    313.8000
    257    258    277   1    110.7000    313.8000
    259    258    276   1    109.5000    292.8800
    259    258    277   1    109.5000    292.8800
    276    258    277   1    107.8000    276.1440
    258    259    260   1    116.9000    694.5440
    259    260    261   1    123.4000    694.5440
    259    260    262   1    111.4000    677.8080
    261    260    262   1    123.7840    627.6000
    260    262    263   1    119.5260    502.0800
    260    262    269   1    119.5260    502.0800
    263    262    269   1    120.0000    527.1840
    262    263    264   1    120.0000    527.1840
    262    263    278   1    120.0000    292.8800
    264    263    278   1    120.0000    292.8800
    263    264    265   1    120.0000    527.1840
    263    264    279   1    120.0000    292.8800
    265    264    279   1    120.0000    292.8800
    264    265    266   1    119.5260    502.0800
    264    265    268   1    120.0000    527.1840
    266    265    268   1    119.5260    502.0800
    265    266    267   1    123.7840    627.6000
    265    266    282   1    111.4000    677.8080
    267    266    282   1    123.4000    694.5440
    265    268    269   1    120.0000    527.1840
    265    268    280   1    120.0000    292.8800
    269    268    280   1    120.0000    292.8800
    262    269    268   1    120.0000    527.1840
    262    269    281   1    120.0000    292.8800
    268    269    281   1    120.0000    292.8800
    266    282    283   1    116.9000    694.5440
    282    283    284   1    109.5000    418.4000
    282    283    298   1    109.5000    292.8800
    282    283    299   1    109.5000    292.8800
    284    283    298   1    110.7000    313.8000
    284    283    299   1    110.7000    313.8000
    298    283    299   1    107.8000    276.1440
    283    284    285   1    112.7000    488.2728
    283    284    300   1    110.7000    313.8000
    283    284    301   1    110.7000    313.8000
    285    284    300   1    110.7000    313.8000
    285    284    301   1    110.7000    313.8000
    300    284    301   1    107.8000    276.1440
    284    285    286   1    112.7000    488.2728
    284    285    302   1    110.7000    313.8000
    284    285    303   1    110.7000    313.8000
    286    285    302   1    110.7000    313.8000
    286    285    303   1    110.7000    313.8000
    302    285    303   1    107.8000    276.1440
    285    286    287   1    109.5000    418.4000
    285    286    304   1    110.7000    313.8000
    285    286    305   1    110.7000    313.8000
    287    286    304   1    109.5000    292.8800
    287    286    305   1    109.5000    292.8800
    304    286    305   1    107.8000    276.1440
    286    287    288   1    116.9000    694.5440
    287    288    289   1    123.4000    694.5440
    287    288    290   1    111.4000    677.8080
    289    288    290   1    123.7840    627.6000
    288    290    291   1    119.5260    502.0800
    288    290    297   1    119.5260    502.0800
    291    290    297   1    120.0000    527.1840
    290    291    292   1    120.0000    527.1840
    290    291    306   1    120.0000    292.8800
    292    291    306   1    120.0000    292.8800
    291    292    293   1    120.0000    527.1840
    291    292    307   1    120.0000    292.8800
    293    292    307   1    120.0000    292.8800
    292    293    294   1    119.5260    502.0800
    292    293    296   1    120.0000    527.1840
    294    293    296   1    119.5260    502.0800
    293    294    295   1    123.7840    627.6000
    293    294    310   1    111.4000    677.8080
    295    294    310   1    123.4000    694.5440
    293    296    297   1    120.0000    527.1840
    293    296    308   1    120.0000    292.8800
    297    296    308   1    120.0000    292.8800
    290    297    296   1    120.0000    527.1840
    290    297    309   1    120.0000    292.8800
    296    297    309   1    120.0000    292.8800
    294    310    311   1    116.9000    694.5440
    310    311    312   1    109.5000    418.4000
    310    311    326   1    109.5000    292.8800
    310    311    327   1    109.5000    292.8800
    312    311    326   1    110.7000    313.8000
    312    311    327   1    110.7000    313.8000
    326    311    327   1    107.8000    276.1440
    311    312    313   1    112.7000    488.2728
    311    312    328   1    110.7000    313.8000
    311    312    329   1    110.7000    313.8000
    313    312    328   1    110.7000    313.8000
    313    312    329   1    110.7000    313.8000
    328    312    329   1    107.8000    276.1440
    312    313    314   1    112.7000    488.2728
    312    313    330   1    110.7000    313.8000
    312    313    331   1    110.7000    313.8000
    314    313    330   1    110.7000    313.8000
    314    313    331   1    110.7000    313.8000
    330    313    331   1    107.8000    276.1440
    313    314    315   1    109.5000    418.4000
    313    314    332   1    110.7000    313.8000
    313    314    333   1    110.7000    313.8000
    315    314    332   1    109.5000    292.8800
    315    314    333   1    109.5000    292.8800
    332    314    333   1    107.8000    276.1440
    314    315    316   1    116.9000    694.5440
    315    316    317   1    123.4000    694.5440
    315    316    318   1    111.4000    677.8080
    317    316    318   1    123.7840    627.6000
    316    318    319   1    119.5260    502.0800
    316    318    325   1    119.5260    502.0800
    319    318    325   1    120.0000    527.1840
    318    319    320   1    120.0000    527.1840
    318    319    334   1    120.0000    292.8800
    320    319    334   1    120.0000    292.8800
    319    320    321   1    120.0000    527.1840
    319    320    335   1    120.0000    292.8800
    321    320    335   1    120.0000    292.8800
    320    321    322   1    119.5260    502.0800
    320    321    324   1    120.0000    527.1840
    322    321    324   1    119.5260    502.0800
    321    322    323   1    123.7840    627.6000
    321    322    338   1    111.4000    677.8080
    323    322    338   1    123.4000    694.5440
    321    324    325   1    120.0000    527.1840
    321    324    336   1    120.0000    292.8800
    325    324    336   1    120.0000    292.8800
    318    325    324   1    120.0000    527.1840
    318    325    337   1    120.0000    292.8800
    324    325    337   1    120.0000    292.8800
    322    338    339   1    116.9000    694.5440
    338    339    340   1    109.5000    418.4000
    338    339    354   1    109.5000    292.8800
    338    339    355   1    109.5000    292.8800
    340    339    354   1    110.7000    313.8000
    340    339    355   1    110.7000    313.8000
    354    339    355   1    107.8000    276.1440
    339    340    341   1    112.7000    488.2728
    339    340    356   1    110.7000    313.8000
    339    340    357   1    110.7000    313.8000
    341    340    356   1    110.7000    313.8000
    341    340    357   1    110.7000    313.8000
    356    340    357   1    107.8000    276.1440
    340    341    342   1    112.7000    488.2728
    340    341    358   1    110.7000    313.8000
    340    341    359   1    110.7000    313.8000
    342    341    358   1    110.7000    313.8000
    342    341    359   1    110.7000    313.8000
    358    341    359   1    107.8000    276.1440
    341    342    343   1    109.5000    418.4000
    341    342    360   1    110.7000    313.8000
    341    342    361   1    110.7000    313.8000
    343    342    360   1    109.5000    292.8800
    343    342    361   1    109.5000    292.8800
    360    342    361   1    107.8000    276.1440
    342    343    344   1    116.9000    694.5440
    343    344    345   1    123.4000    694.5440
    343    344    346   1    111.4000    677.8080
    345    344    346   1    123.7840    627.6000
    344    346    347   1    119.5260    502.0800
    344    346    353   1    119.5260    502.0800
    347    346    353   1    120.0000    527.1840
    346    347    348   1    120.0000    527.1840
    346    347    362   1    120.0000    292.8800
    348    347    362   1    120.0000    292.8800
    347    348    349   1    120.0000    527.1840
    347    348    363   1    120.0000    292.8800
    349    348    363   1    120.0000    292.8800
    348    349    350   1    119.5260    502.0800
    348    349    352   1    120.0000    527.1840
    350    349    352   1    119.5260    502.0800
    349    350    351   1    123.7840    627.6000
    349    350    366   1    111.4000    677.8080
    351    350    366   1    123.4000    694.5440
    349    352    353   1    120.0000    527.1840
    349    352    364   1    120.0000    292.8800
    353    352    364   1    120.0000    292.8800
    346    353    352   1    120.0000    527.1840
    346    353    365   1    120.0000    292.8800
    352    353    365   1    120.0000    292.8800
    350    366    367   1    116.9000    694.5440
    366    367    368   1    109.5000    418.4000
    366    367    382   1    109.5000    292.8800
    366    367    383   1    109.5000    292.8800
    368    367    382   1    110.7000    313.8000
    368    367    383   1    110.7000    313.8000
    382    367    383   1    107.8000    276.1440
    367    368    369   1    112.7000    488.2728
    367    368    384   1    110.7000    313.8000
    367    368    385   1    110.7000    313.8000
    369    368    384   1    110.7000    313.8000
    369    368    385   1    110.7000    313.8000
    384    368    385   1    107.8000    276.1440
    368    369    370   1    112.7000    488.2728
    368    369    386   1    110.7000    313.8000
    368    369    387   1    110.7000    313.8000
    370    369    386   1    110.7000    313.8000
    370    369    387   1    110.7000    313.8000
    386    369    387   1    107.8000    276.1440
    369    370    371   1    109.5000    418.4000
    369    370    388   1    110.7000    313.8000
    369    370    389   1    110.7000    313.8000
    371    370    388   1    109.5000    292.8800
    371    370    389   1    109.5000    292.8800
    388    370    389   1    107.8000    276.1440
    370    371    372   1    116.9000    694.5440
    371    372    373   1    123.4000    694.5440
    371    372    374   1    111.4000    677.8080
    373    372    374   1    123.7840    627.6000
    372    374    375   1    119.5260    502.0800
    372    374    381   1    119.5260    502.0800
    375    374    381   1    120.0000    527.1840
    374    375    376   1    120.0000    527.1840
    374    375    390   1    120.0000    292.8800
    376    375    390   1    120.0000    292.8800
    375    376    377   1    120.0000    527.1840
    375    376    391   1    120.0000    292.8800
    377    376    391   1    120.0000    292.8800
    376    377    378   1    119.5260    502.0800
    376    377    380   1    120.0000    527.1840
    378    377    380   1    119.5260    502.0800
    377    378    379   1    123.7840    627.6000
    377    378    394   1    111.4000    677.8080
    379    378    394   1    123.4000    694.5440
    377    380    381   1    120.0000    527.1840
    377    380    392   1    120.0000    292.8800
    381    380    392   1    120.0000    292.8800
    374    381    380   1    120.0000    527.1840
    374    381    393   1    120.0000    292.8800
    380    381    393   1    120.0000    292.8800
    378    394    395   1    116.9000    694.5440
    394    395    396   1    109.5000    418.4000
    394    395    410   1    109.5000    292.8800
    394    395    411   1    109.5000    292.8800
    396    395    410   1    110.7000    313.8000
    396    395    411   1    110.7000    313.8000
    410    395    411   1    107.8000    276.1440
    395    396    397   1    112.7000    488.2728
    395    396    412   1    110.7000    313.8000
    395    396    413   1    110.7000    313.8000
    397    396    412   1    110.7000    313.8000
    397    396    413   1    110.7000    313.8000
    412    396    413   1    107.8000    276.1440
    396    397    398   1    112.7000    488.2728
    396    397    414   1    110.7000    313.8000
    396    397    415   1    110.7000    313.8000
    398    397    414   1    110.7000    313.8000
    398    397    415   1    110.7000    313.8000
    414    397    415   1    107.8000    276.1440
    397    398    399   1    109.5000    418.4000
    397    398    416   1    110.7000    313.8000
    397    398    417   1    110.7000    313.8000
    399    398    416   1    109.5000    292.8800
    399    398    417   1    109.5000    292.8800
    416    398    417   1    107.8000    276.1440
    398    399    400   1    116.9000    694.5440
    399    400    401   1    123.4000    694.5440
    399    400    402   1    111.4000    677.8080
    401    400    402   1    123.7840    627.6000
    400    402    403   1    119.5260    502.0800
    400    402    409   1    119.5260    502.0800
    403    402    409   1    120.0000    527.1840
    402    403    404   1    120.0000    527.1840
    402    403    418   1    120.0000    292.8800
    404    403    418   1    120.0000    292.8800
    403    404    405   1    120.0000    527.1840
    403    404    419   1    120.0000    292.8800
    405    404    419   1    120.0000    292.8800
    404    405    406   1    119.5260    502.0800
    404    405    408   1    120.0000    527.1840
    406    405    408   1    119.5260    502.0800
    405    406    407   1    123.7840    627.6000
    405    406    422   1    111.4000    677.8080
    407    406    422   1    123.4000    694.5440
    405    408    409   1    120.0000    527.1840
    405    408    420   1    120.0000    292.8800
    409    408    420   1    120.0000    292.8800
    402    409    408   1    120.0000    527.1840
    402    409    421   1    120.0000    292.8800
    408    409    421   1    120.0000    292.8800
    406    422    423   1    116.9000    694.5440
    422    423    424   1    109.5000    418.4000
    422    423    438   1    109.5000    292.8800
    422    423    439   1    109.5000    292.8800
    424    423    438   1    110.7000    313.8000
    424    423    439   1    110.7000    313.8000
    438    423    439   1    107.8000    276.1440
    423    424    425   1    112.7000    488.2728
    423    424    440   1    110.7000    313.8000
    423    424    441   1    110.7000    313.8000
    425    424    440   1    110.7000    313.8000
    425    424    441   1    110.7000    313.8000
    440    424    441   1    107.8000    276.1440
    424    425    426   1    112.7000    488.2728
    424    425    442   1    110.7000    313.8000
    424    425    443   1    110.7000    313.8000
    426    425    442   1    110.7000    313.8000
    426    425    443   1    110.7000    313.8000
    442    425    443   1    107.8000    276.1440
    425    426    427   1    109.5000    418.4000
    425    426    444   1    110.7000    313.8000
    425    426    445   1    110.7000    313.8000
    427    426    444   1    109.5000    292.8800
    427    426    445   1    109.5000    292.8800
    444    426    445   1    107.8000    276.1440
    426    427    428   1    116.9000    694.5440
    427    428    429   1    123.4000    694.5440
    427    428    430   1    111.4000    677.8080
    429    428    430   1    123.7840    627.6000
    428    430    431   1    119.5260    502.0800
    428    430    437   1    119.5260    502.0800
    431    430    437   1    120.0000    527.1840
    430    431    432   1    120.0000    527.1840
    430    431    446   1    120.0000    292.8800
    432    431    446   1    120.0000    292.8800
    431    432    433   1    120.0000    527.1840
    431    432    447   1    120.0000    292.8800
    433    432    447   1    120.0000    292.8800
    432    433    434   1    119.5260    502.0800
    432    433    436   1    120.0000    527.1840
    434    433    436   1    119.5260    502.0800
    433    434    435   1    123.7840    627.6000
    433    434    450   1    111.4000    677.8080
    435    434    450   1    123.4000    694.5440
    433    436    437   1    120.0000    527.1840
    433    436    448   1    120.0000    292.8800
    437    436    448   1    120.0000    292.8800
    430    437    436   1    120.0000    527.1840
    430    437    449   1    120.0000    292.8800
    436    437    449   1    120.0000    292.8800
    434    450    451   1    116.9000    694.5440
    450    451    452   1    109.5000    418.4000
    450    451    466   1    109.5000    292.8800
    450    451    467   1    109.5000    292.8800
    452    451    466   1    110.7000    313.8000
    452    451    467   1    110.7000    313.8000
    466    451    467   1    107.8000    276.1440
    451    452    453   1    112.7000    488.2728
    451    452    468   1    110.7000    313.8000
    451    452    469   1    110.7000    313.8000
    453    452    468   1    110.7000    313.8000
    453    452    469   1    110.7000    313.8000
    468    452    469   1    107.8000    276.1440
    452    453    454   1    112.7000    488.2728
    452    453    470   1    110.7000    313.8000
    452    453    471   1    110.7000    313.8000
    454    453    470   1    110.7000    313.8000
    454    453    471   1    110.7000    313.8000
    470    453    471   1    107.8000    276.1440
    453    454    455   1    109.5000    418.4000
    453    454    472   1    110.7000    313.8000
    453    454    473   1    110.7000    313.8000
    455    454    472   1    109.5000    292.8800
    455    454    473   1    109.5000    292.8800
    472    454    473   1    107.8000    276.1440
    454    455    456   1    116.9000    694.5440
    455    456    457   1    123.4000    694.5440
    455    456    458   1    111.4000    677.8080
    457    456    458   1    123.7840    627.6000
    456    458    459   1    119.5260    502.0800
    456    458    465   1    119.5260    502.0800
    459    458    465   1    120.0000    527.1840
    458    459    460   1    120.0000    527.1840
    458    459    474   1    120.0000    292.8800
    460    459    474   1    120.0000    292.8800
    459    460    461   1    120.0000    527.1840
    459    460    475   1    120.0000    292.8800
    461    460    475   1    120.0000    292.8800
    460    461    462   1    119.5260    502.0800
    460    461    464   1    120.0000    527.1840
    462    461    464   1    119.5260    502.0800
    461    462    463   1    123.7840    627.6000
    461    462    478   1    111.4000    677.8080
    463    462    478   1    123.4000    694.5440
    461    464    465   1    120.0000    527.1840
    461    464    476   1    120.0000    292.8800
    465    464    476   1    120.0000    292.8800
    458    465    464   1    120.0000    527.1840
    458    465    477   1    120.0000    292.8800
    464    465    477   1    120.0000    292.8800
    462    478    479   1    116.9000    694.5440
    478    479    480   1    109.5000    418.4000
    478    479    494   1    109.5000    292.8800
    478    479    495   1    109.5000    292.8800
    480    479    494   1    110.7000    313.8000
    480    479    495   1    110.7000    313.8000
    494    479    495   1    107.8000    276.1440
    479    480    481   1    112.7000    488.2728
    479    480    496   1    110.7000    313.8000
    479    480    497   1    110.7000    313.8000
    481    480    496   1    110.7000    313.8000
    481    480    497   1    110.7000    313.8000
    496    480    497   1    107.8000    276.1440
    480    481    482   1    112.7000    488.2728
    480    481    498   1    110.7000    313.8000
    480    481    499   1    110.7000    313.8000
    482    481    498   1    110.7000    313.8000
    482    481    499   1    110.7000    313.8000
    498    481    499   1    107.8000    276.1440
    481    482    483   1    109.5000    418.4000
    481    482    500   1    110.7000    313.8000
    481    482    501   1    110.7000    313.8000
    483    482    500   1    109.5000    292.8800
    483    482    501   1    109.5000    292.8800
    500    482    501   1    107.8000    276.1440
    482    483    484   1    116.9000    694.5440
    483    484    485   1    123.4000    694.5440
    483    484    486   1    111.4000    677.8080
    485    484    486   1    123.7840    627.6000
    484    486    487   1    119.5260    502.0800
    484    486    493   1    119.5260    502.0800
    487    486    493   1    120.0000    527.1840
    486    487    488   1    120.0000    527.1840
    486    487    502   1    120.0000    292.8800
    488    487    502   1    120.0000    292.8800
    487    488    489   1    120.0000    527.1840
    487    488    503   1    120.0000    292.8800
    489    488    503   1    120.0000    292.8800
    488    489    490   1    119.5260    502.0800
    488    489    492   1    120.0000    527.1840
    490    489    492   1    119.5260    502.0800
    489    490    491   1    123.7840    627.6000
    489    490    506   1    111.4000    677.8080
    491    490    506   1    123.4000    694.5440
    489    492    493   1    120.0000    527.1840
    489    492    504   1    120.0000    292.8800
    493    492    504   1    120.0000    292.8800
    486    493    492   1    120.0000    527.1840
    486    493    505   1    120.0000    292.8800
    492    493    505   1    120.0000    292.8800
    490    506    507   1    116.9000    694.5440
    506    507    508   1    109.5000    418.4000
    506    507    522   1    109.5000    292.8800
    506    507    523   1    109.5000    292.8800
    508    507    522   1    110.7000    313.8000
    508    507    523   1    110.7000    313.8000
    522    507    523   1    107.8000    276.1440
    507    508    509   1    112.7000    488.2728
    507    508    524   1    110.7000    313.8000
    507    508    525   1    110.7000    313.8000
    509    508    524   1    110.7000    313.8000
    509    508    525   1    110.7000    313.8000
    524    508    525   1    107.8000    276.1440
    508    509    510   1    112.7000    488.2728
    508    509    526   1    110.7000    313.8000
    508    509    527   1    110.7000    313.8000
    510    509    526   1    110.7000    313.8000
    510    509    527   1    110.7000    313.8000
    526    509    527   1    107.8000    276.1440
    509    510    511   1    109.5000    418.4000
    509    510    528   1    110.7000    313.8000
    509    510    529   1    110.7000    313.8000
    511    510    528   1    109.5000    292.8800
    511    510    529   1    109.5000    292.8800
    528    510    529   1    107.8000    276.1440
    510    511    512   1    116.9000    694.5440
    511    512    513   1    123.4000    694.5440
    511    512    514   1    111.4000    677.8080
    513    512    514   1    123.7840    627.6000
    512    514    515   1    119.5260    502.0800
    512    514    521   1    119.5260    502.0800
    515    514    521   1    120.0000    527.1840
    514    515    516   1    120.0000    527.1840
    514    515    530   1    120.0000    292.8800
    516    515    530   1    120.0000    292.8800
    515    516    517   1    120.0000    527.1840
    515    516    531   1    120.0000    292.8800
    517    516    531   1    120.0000    292.8800
    516    517    518   1    119.5260    502.0800
    516    517    520   1    120.0000    527.1840
    518    517    520   1    119.5260    502.0800
    517    518    519   1    123.7840    627.6000
    517    518    534   1    111.4000    677.8080
    519    518    534   1    123.4000    694.5440
    517    520    521   1    120.0000    527.1840
    517    520    532   1    120.0000    292.8800
    521    520    532   1    120.0000    292.8800
    514    521    520   1    120.0000    527.1840
    514    521    533   1    120.0000    292.8800
    520    521    533   1    120.0000    292.8800
    518    534    535   1    116.9000    694.5440
    534    535    536   1    109.5000    418.4000
    534    535    550   1    109.5000    292.8800
    534    535    551   1    109.5000    292.8800
    536    535    550   1    110.7000    313.8000
    536    535    551   1    110.7000    313.8000
    550    535    551   1    107.8000    276.1440
    535    536    537   1    112.7000    488.2728
    535    536    552   1    110.7000    313.8000
    535    536    553   1    110.7000    313.8000
    537    536    552   1    110.7000    313.8000
    537    536    553   1    110.7000    313.8000
    552    536    553   1    107.8000    276.1440
    536    537    538   1    112.7000    488.2728
    536    537    554   1    110.7000    313.8000
    536    537    555   1    110.7000    313.8000
    538    537    554   1    110.7000    313.8000
    538    537    555   1    110.7000    313.8000
    554    537    555   1    107.8000    276.1440
    537    538    539   1    109.5000    418.4000
    537    538    556   1    110.7000    313.8000
    537    538    557   1    110.7000    313.8000
    539    538    556   1    109.5000    292.8800
    539    538    557   1    109.5000    292.8800
    556    538    557   1    107.8000    276.1440
    538    539    540   1    116.9000    694.5440
    539    540    541   1    123.4000    694.5440
    539    540    542   1    111.4000    677.8080
    541    540    542   1    123.7840    627.6000
    540    542    543   1    119.5260    502.0800
    540    542    549   1    119.5260    502.0800
    543    542    549   1    120.0000    527.1840
    542    543    544   1    120.0000    527.1840
    542    543    558   1    120.0000    292.8800
    544    543    558   1    120.0000    292.8800
    543    544    545   1    120.0000    527.1840
    543    544    559   1    120.0000    292.8800
    545    544    559   1    120.0000    292.8800
    544    545    546   1    119.5260    502.0800
    544    545    548   1    120.0000    527.1840
    546    545    548   1    119.5260    502.0800
    545    546    547   1    123.7840    627.6000
    545    546    562   1    115.0000    292.8800
    547    546    562   1    123.0000    292.8800
    545    548    549   1    120.0000    527.1840
    545    548    560   1    120.0000    292.8800
    549    548    560   1    120.0000    292.8800
    542    549    548   1    120.0000    527.1840
    542    549    561   1    120.0000    292.8800
    548    549    561   1    120.0000    292.8800

[ dihedrals ]
; Proper dihedrals
     29      1      2      3   5    -0.97069    -0.79078     1.77820  0.0
     29      1      2     17   5     0.00000     0.00000     1.62758  0.0
     29      1      2     18   5     0.00000     0.00000     1.62758  0.0
      1      2      3      4   5     7.23832    -1.46440     1.74054  0.0
      1      2      3     19   5     0.00000     0.00000     1.95811  0.0
      1      2      3     20   5     0.00000     0.00000     1.95811  0.0
     17      2      3      4   5     0.00000     0.00000     1.25520  0.0
     17      2      3     19   5     0.00000     0.00000     1.25520  0.0
     17      2      3     20   5     0.00000     0.00000     1.25520  0.0
     18      2      3      4   5     0.00000     0.00000     1.25520  0.0
     18      2      3     19   5     0.00000     0.00000     1.25520  0.0
     18      2      3     20   5     0.00000     0.00000     1.25520  0.0
      2      3      4      5   5     4.74884    -0.63178     1.67360  0.0
      2      3      4     21   5     0.00000     0.00000     1.25520  0.0
      2      3      4     22   5     0.00000     0.00000     1.25520  0.0
     19      3      4      5   5     0.00000     0.00000     1.25520  0.0
     19      3      4     21   5     0.00000     0.00000     1.25520  0.0
     19      3      4     22   5     0.00000     0.00000     1.25520  0.0
     20      3      4      5   5     0.00000     0.00000     1.25520  0.0
     20      3      4     21   5     0.00000     0.00000     1.25520  0.0
     20      3      4     22   5     0.00000     0.00000     1.25520  0.0
      3      4      5      6   5     5.25092    -2.58990     2.28446  0.0
      3      4      5     23   5     0.00000     0.00000     1.25520  0.0
      3      4      5     24   5     0.00000     0.00000     1.25520  0.0
     21      4      5      6   5     0.00000     0.00000     1.95811  0.0
     21      4      5     23   5     0.00000     0.00000     1.25520  0.0
     21      4      5     24   5     0.00000     0.00000     1.25520  0.0
     22      4      5      6   5     0.00000     0.00000     1.95811  0.0
     22      4      5     23   5     0.00000     0.00000     1.25520  0.0
     22      4      5     24   5     0.00000     0.00000     1.25520  0.0
      4      5      6      7   5    -2.16731    -3.93296     0.98324  0.0
     23      5      6      7   5     0.00000     0.00000     0.67362  0.0
     24      5      6      7   5     0.00000     0.00000     0.67362  0.0
      5      6      7      8   5     0.00000    25.10400     0.00000  0.0
      5      6      7      9   5     5.01662    27.18345     0.00000  0.0
      6      7      9     10   5     0.00000     8.26340     0.00000  0.0
      6      7      9     16   5     0.00000     8.26340     0.00000  0.0
      8      7      9     10   5     0.00000     8.78640     0.00000  0.0
      8      7      9     16   5     0.00000     8.78640     0.00000  0.0
      7      9     10     11   5     0.00000    30.33400     0.00000  0.0
      7      9     10     25   5     0.00000    30.33400     0.00000  0.0
     16      9     10     11   5     0.00000    30.33400     0.00000  0.0
     16      9     10     25   5     0.00000    30.33400     0.00000  0.0
      7      9     16     15   5     0.00000    30.33400     0.00000  0.0
      7      9     16     28   5     0.00000    30.33400     0.00000  0.0
     10      9     16     15   5     0.00000    30.33400     0.00000  0.0
     10      9     16     28   5     0.00000    30.33400     0.00000  0.0
      9     10     11     12   5     0.00000    30.33400     0.00000  0.0
      9     10     11     26   5     0.00000    30.33400     0.00000  0.0
     25     10     11     12   5     0.00000    30.33400     0.00000  0.0
     25     10     11     26   5     0.00000    30.33400     0.00000  0.0
     10     11     12     13   5     0.00000    30.33400     0.00000  0.0
     10     11     12     15   5     0.00000    30.33400     0.00000  0.0
     26     11     12     13   5     0.00000    30.33400     0.00000  0.0
     26     11     12     15   5     0.00000    30.33400     0.00000  0.0
     11     12     13     14   5     0.00000     8.78640     0.00000  0.0
     11     12     13     30   5     0.00000     8.26340     0.00000  0.0
     15     12     13     14   5     0.00000     8.78640     0.00000  0.0
     15     12     13     30   5     0.00000     8.26340     0.00000  0.0
     11     12     15     16   5     0.00000    30.33400     0.00000  0.0
     11     12     15     27   5     0.00000    30.33400     0.00000  0.0
     13     12     15     16   5     0.00000    30.33400     0.00000  0.0
     13     12     15     27   5     0.00000    30.33400     0.00000  0.0
     12     13     30     31   5     5.01662    27.18345     0.00000  0.0
     14     13     30     31   5     0.00000    25.10400     0.00000  0.0
     12     15     16      9   5     0.00000    30.33400     0.00000  0.0
     12     15     16     28   5     0.00000    30.33400     0.00000  0.0
     27     15     16      9   5     0.00000    30.33400     0.00000  0.0
     27     15     16     28   5     0.00000    30.33400     0.00000  0.0
     13     30     31     32   5    -2.16731    -3.93296     0.98324  0.0
     13     30     31     46   5     0.00000     0.00000     0.67362  0.0
     13     30     31     47   5     0.00000     0.00000     0.67362  0.0
     30     31     32     33   5     5.25092    -2.58990     2.28446  0.0
     30     31     32     48   5     0.00000     0.00000     1.95811  0.0
     30     31     32     49   5     0.00000     0.00000     1.95811  0.0
     46     31     32     33   5     0.00000     0.00000     1.25520  0.0
     46     31     32     48   5     0.00000     0.00000     1.25520  0.0
     46     31     32     49   5     0.00000     0.00000     1.25520  0.0
     47     31     32     33   5     0.00000     0.00000     1.25520  0.0
     47     31     32     48   5     0.00000     0.00000     1.25520  0.0
     47     31     32     49   5     0.00000     0.00000     1.25520  0.0
     31     32     33     34   5     4.74884    -0.63178     1.67360  0.0
     31     32     33     50   5     0.00000     0.00000     1.25520  0.0
     31     32     33     51   5     0.00000     0.00000     1.25520  0.0
     48     32     33     34   5     0.00000     0.00000     1.25520  0.0
     48     32     33     50   5     0.00000     0.00000     1.25520  0.0
     48     32     33     51   5     0.00000     0.00000     1.25520  0.0
     49     32     33     34   5     0.00000     0.00000     1.25520  0.0
     49     32     33     50   5     0.00000     0.00000     1.25520  0.0
     49     32     33     51   5     0.00000     0.00000     1.25520  0.0
     32     33     34     35   5     5.25092    -2.58990     2.28446  0.0
     32     33     34     52   5     0.00000     0.00000     1.25520  0.0
     32     33     34     53   5     0.00000     0.00000     1.25520  0.0
     50     33     34     35   5     0.00000     0.00000     1.95811  0.0
     50     33     34     52   5     0.00000     0.00000     1.25520  0.0
     50     33     34     53   5     0.00000     0.00000     1.25520  0.0
     51     33     34     35   5     0.00000     0.00000     1.95811  0.0
     51     33     34     52   5     0.00000     0.00000     1.25520  0.0
     51     33     34     53   5     0.00000     0.00000     1.25520  0.0
     33     34     35     36   5    -2.16731    -3.93296     0.98324  0.0
     52     34     35     36   5     0.00000     0.00000     0.67362  0.0
     53     34     35     36   5     0.00000     0.00000     0.67362  0.0
     34     35     36     37   5     0.00000    25.10400     0.00000  0.0
     34     35     36     38   5     5.01662    27.18345     0.00000  0.0
     35     36     38     39   5     0.00000     8.26340     0.00000  0.0
     35     36     38     45   5     0.00000     8.26340     0.00000  0.0
     37     36     38     39   5     0.00000     8.78640     0.00000  0.0
     37     36     38     45   5     0.00000     8.78640     0.00000  0.0
     36     38     39     40   5     0.00000    30.33400     0.00000  0.0
     36     38     39     54   5     0.00000    30.33400     0.00000  0.0
     45     38     39     40   5     0.00000    30.33400     0.00000  0.0
     45     38     39     54   5     0.00000    30.33400     0.00000  0.0
     36     38     45     44   5     0.00000    30.33400     0.00000  0.0
     36     38     45     57   5     0.00000    30.33400     0.00000  0.0
     39     38     45     44   5     0.00000    30.33400     0.00000  0.0
     39     38     45     57   5     0.00000    30.33400     0.00000  0.0
     38     39     40     41   5     0.00000    30.33400     0.00000  0.0
     38     39     40     55   5     0.00000    30.33400     0.00000  0.0
     54     39     40     41   5     0.00000    30.33400     0.00000  0.0
     54     39     40     55   5     0.00000    30.33400     0.00000  0.0
     39     40     41     42   5     0.00000    30.33400     0.00000  0.0
     39     40     41     44   5     0.00000    30.33400     0.00000  0.0
     55     40     41     42   5     0.00000    30.33400     0.00000  0.0
     55     40     41     44   5     0.00000    30.33400     0.00000  0.0
     40     41     42     43   5     0.00000     8.78640     0.00000  0.0
     40     41     42     58   5     0.00000     8.26340     0.00000  0.0
     44     41     42     43   5     0.00000     8.78640     0.00000  0.0
     44     41     42     58   5     0.00000     8.26340     0.00000  0.0
     40     41     44     45   5     0.00000    30.33400     0.00000  0.0
     40     41     44     56   5     0.00000    30.33400     0.00000  0.0
     42     41     44     45   5     0.00000    30.33400     0.00000  0.0
     42     41     44     56   5     0.00000    30.33400     0.00000  0.0
     41     42     58     59   5     5.01662    27.18345     0.00000  0.0
     43     42     58     59   5     0.00000    25.10400     0.00000  0.0
     41     44     45     38   5     0.00000    30.33400     0.00000  0.0
     41     44     45     57   5     0.00000    30.33400     0.00000  0.0
     56     44     45     38   5     0.00000    30.33400     0.00000  0.0
     56     44     45     57   5     0.00000    30.33400     0.00000  0.0
     42     58     59     60   5    -2.16731    -3.93296     0.98324  0.0
     42     58     59     74   5     0.00000     0.00000     0.67362  0.0
     42     58     59     75   5     0.00000     0.00000     0.67362  0.0
     58     59     60     61   5     5.25092    -2.58990     2.28446  0.0
     58     59     60     76   5     0.00000     0.00000     1.95811  0.0
     58     59     60     77   5     0.00000     0.00000     1.95811  0.0
     74     59     60     61   5     0.00000     0.00000     1.25520  0.0
     74     59     60     76   5     0.00000     0.00000     1.25520  0.0
     74     59     60     77   5     0.00000     0.00000     1.25520  0.0
     75     59     60     61   5     0.00000     0.00000     1.25520  0.0
     75     59     60     76   5     0.00000     0.00000     1.25520  0.0
     75     59     60     77   5     0.00000     0.00000     1.25520  0.0
     59     60     61     62   5     4.74884    -0.63178     1.67360  0.0
     59     60     61     78   5     0.00000     0.00000     1.25520  0.0
     59     60     61     79   5     0.00000     0.00000     1.25520  0.0
     76     60     61     62   5     0.00000     0.00000     1.25520  0.0
     76     60     61     78   5     0.00000     0.00000     1.25520  0.0
     76     60     61     79   5     0.00000     0.00000     1.25520  0.0
     77     60     61     62   5     0.00000     0.00000     1.25520  0.0
     77     60     61     78   5     0.00000     0.00000     1.25520  0.0
     77     60     61     79   5     0.00000     0.00000     1.25520  0.0
     60     61     62     63   5     5.25092    -2.58990     2.28446  0.0
     60     61     62     80   5     0.00000     0.00000     1.25520  0.0
     60     61     62     81   5     0.00000     0.00000     1.25520  0.0
     78     61     62     63   5     0.00000     0.00000     1.95811  0.0
     78     61     62     80   5     0.00000     0.00000     1.25520  0.0
     78     61     62     81   5     0.00000     0.00000     1.25520  0.0
     79     61     62     63   5     0.00000     0.00000     1.95811  0.0
     79     61     62     80   5     0.00000     0.00000     1.25520  0.0
     79     61     62     81   5     0.00000     0.00000     1.25520  0.0
     61     62     63     64   5    -2.16731    -3.93296     0.98324  0.0
     80     62     63     64   5     0.00000     0.00000     0.67362  0.0
     81     62     63     64   5     0.00000     0.00000     0.67362  0.0
     62     63     64     65   5     0.00000    25.10400     0.00000  0.0
     62     63     64     66   5     5.01662    27.18345     0.00000  0.0
     63     64     66     67   5     0.00000     8.26340     0.00000  0.0
     63     64     66     73   5     0.00000     8.26340     0.00000  0.0
     65     64     66     67   5     0.00000     8.78640     0.00000  0.0
     65     64     66     73   5     0.00000     8.78640     0.00000  0.0
     64     66     67     68   5     0.00000    30.33400     0.00000  0.0
     64     66     67     82   5     0.00000    30.33400     0.00000  0.0
     73     66     67     68   5     0.00000    30.33400     0.00000  0.0
     73     66     67     82   5     0.00000    30.33400     0.00000  0.0
     64     66     73     72   5     0.00000    30.33400     0.00000  0.0
     64     66     73     85   5     0.00000    30.33400     0.00000  0.0
     67     66     73     72   5     0.00000    30.33400     0.00000  0.0
     67     66     73     85   5     0.00000    30.33400     0.00000  0.0
     66     67     68     69   5     0.00000    30.33400     0.00000  0.0
     66     67     68     83   5     0.00000    30.33400     0.00000  0.0
     82     67     68     69   5     0.00000    30.33400     0.00000  0.0
     82     67     68     83   5     0.00000    30.33400     0.00000  0.0
     67     68     69     70   5     0.00000    30.33400     0.00000  0.0
     67     68     69     72   5     0.00000    30.33400     0.00000  0.0
     83     68     69     70   5     0.00000    30.33400     0.00000  0.0
     83     68     69     72   5     0.00000    30.33400     0.00000  0.0
     68     69     70     71   5     0.00000     8.78640     0.00000  0.0
     68     69     70     86   5     0.00000     8.26340     0.00000  0.0
     72     69     70     71   5     0.00000     8.78640     0.00000  0.0
     72     69     70     86   5     0.00000     8.26340     0.00000  0.0
     68     69     72     73   5     0.00000    30.33400     0.00000  0.0
     68     69     72     84   5     0.00000    30.33400     0.00000  0.0
     70     69     72     73   5     0.00000    30.33400     0.00000  0.0
     70     69     72     84   5     0.00000    30.33400     0.00000  0.0
     69     70     86     87   5     5.01662    27.18345     0.00000  0.0
     71     70     86     87   5     0.00000    25.10400     0.00000  0.0
     69     72     73     66   5     0.00000    30.33400     0.00000  0.0
     69     72     73     85   5     0.00000    30.33400     0.00000  0.0
     84     72     73     66   5     0.00000    30.33400     0.00000  0.0
     84     72     73     85   5     0.00000    30.33400     0.00000  0.0
     70     86     87     88   5    -2.16731    -3.93296     0.98324  0.0
     70     86     87    102   5     0.00000     0.00000     0.67362  0.0
     70     86     87    103   5     0.00000     0.00000     0.67362  0.0
     86     87     88     89   5     5.25092    -2.58990     2.28446  0.0
     86     87     88    104   5     0.00000     0.00000     1.95811  0.0
     86     87     88    105   5     0.00000     0.00000     1.95811  0.0
    102     87     88     89   5     0.00000     0.00000     1.25520  0.0
    102     87     88    104   5     0.00000     0.00000     1.25520  0.0
    102     87     88    105   5     0.00000     0.00000     1.25520  0.0
    103     87     88     89   5     0.00000     0.00000     1.25520  0.0
    103     87     88    104   5     0.00000     0.00000     1.25520  0.0
    103     87     88    105   5     0.00000     0.00000     1.25520  0.0
     87     88     89     90   5     4.74884    -0.63178     1.67360  0.0
     87     88     89    106   5     0.00000     0.00000     1.25520  0.0
     87     88     89    107   5     0.00000     0.00000     1.25520  0.0
    104     88     89     90   5     0.00000     0.00000     1.25520  0.0
    104     88     89    106   5     0.00000     0.00000     1.25520  0.0
    104     88     89    107   5     0.00000     0.00000     1.25520  0.0
    105     88     89     90   5     0.00000     0.00000     1.25520  0.0
    105     88     89    106   5     0.00000     0.00000     1.25520  0.0
    105     88     89    107   5     0.00000     0.00000     1.25520  0.0
     88     89     90     91   5     5.25092    -2.58990     2.28446  0.0
     88     89     90    108   5     0.00000     0.00000     1.25520  0.0
     88     89     90    109   5     0.00000     0.00000     1.25520  0.0
    106     89     90     91   5     0.00000     0.00000     1.95811  0.0
    106     89     90    108   5     0.00000     0.00000     1.25520  0.0
    106     89     90    109   5     0.00000     0.00000     1.25520  0.0
    107     89     90     91   5     0.00000     0.00000     1.95811  0.0
    107     89     90    108   5     0.00000     0.00000     1.25520  0.0
    107     89     90    109   5     0.00000     0.00000     1.25520  0.0
     89     90     91     92   5    -2.16731    -3.93296     0.98324  0.0
    108     90     91     92   5     0.00000     0.00000     0.67362  0.0
    109     90     91     92   5     0.00000     0.00000     0.67362  0.0
     90     91     92     93   5     0.00000    25.10400     0.00000  0.0
     90     91     92     94   5     5.01662    27.18345     0.00000  0.0
     91     92     94     95   5     0.00000     8.26340     0.00000  0.0
     91     92     94    101   5     0.00000     8.26340     0.00000  0.0
     93     92     94     95   5     0.00000     8.78640     0.00000  0.0
     93     92     94    101   5     0.00000     8.78640     0.00000  0.0
     92     94     95     96   5     0.00000    30.33400     0.00000  0.0
     92     94     95    110   5     0.00000    30.33400     0.00000  0.0
    101     94     95     96   5     0.00000    30.33400     0.00000  0.0
    101     94     95    110   5     0.00000    30.33400     0.00000  0.0
     92     94    101    100   5     0.00000    30.33400     0.00000  0.0
     92     94    101    113   5     0.00000    30.33400     0.00000  0.0
     95     94    101    100   5     0.00000    30.33400     0.00000  0.0
     95     94    101    113   5     0.00000    30.33400     0.00000  0.0
     94     95     96     97   5     0.00000    30.33400     0.00000  0.0
     94     95     96    111   5     0.00000    30.33400     0.00000  0.0
    110     95     96     97   5     0.00000    30.33400     0.00000  0.0
    110     95     96    111   5     0.00000    30.33400     0.00000  0.0
     95     96     97     98   5     0.00000    30.33400     0.00000  0.0
     95     96     97    100   5     0.00000    30.33400     0.00000  0.0
    111     96     97     98   5     0.00000    30.33400     0.00000  0.0
    111     96     97    100   5     0.00000    30.33400     0.00000  0.0
     96     97     98     99   5     0.00000     8.78640     0.00000  0.0
     96     97     98    114   5     0.00000     8.26340     0.00000  0.0
    100     97     98     99   5     0.00000     8.78640     0.00000  0.0
    100     97     98    114   5     0.00000     8.26340     0.00000  0.0
     96     97    100    101   5     0.00000    30.33400     0.00000  0.0
     96     97    100    112   5     0.00000    30.33400     0.00000  0.0
     98     97    100    101   5     0.00000    30.33400     0.00000  0.0
     98     97    100    112   5     0.00000    30.33400     0.00000  0.0
     97     98    114    115   5     5.01662    27.18345     0.00000  0.0
     99     98    114    115   5     0.00000    25.10400     0.00000  0.0
     97    100    101     94   5     0.00000    30.33400     0.00000  0.0
     97    100    101    113   5     0.00000    30.33400     0.00000  0.0
    112    100    101     94   5     0.00000    30.33400     0.00000  0.0
    112    100    101    113   5     0.00000    30.33400     0.00000  0.0
     98    114    115    116   5    -2.16731    -3.93296     0.98324  0.0
     98    114    115    130   5     0.00000     0.00000     0.67362  0.0
     98    114    115    131   5     0.00000     0.00000     0.67362  0.0
    114    115    116    117   5     5.25092    -2.58990     2.28446  0.0
    114    115    116    132   5     0.00000     0.00000     1.95811  0.0
    114    115    116    133   5     0.00000     0.00000     1.95811  0.0
    130    115    116    117   5     0.00000     0.00000     1.25520  0.0
    130    115    116    132   5     0.00000     0.00000     1.25520  0.0
    130    115    116    133   5     0.00000     0.00000     1.25520  0.0
    131    115    116    117   5     0.00000     0.00000     1.25520  0.0
    131    115    116    132   5     0.00000     0.00000     1.25520  0.0
    131    115    116    133   5     0.00000     0.00000     1.25520  0.0
    115    116    117    118   5     4.74884    -0.63178     1.67360  0.0
    115    116    117    134   5     0.00000     0.00000     1.25520  0.0
    115    116    117    135   5     0.00000     0.00000     1.25520  0.0
    132    116    117    118   5     0.00000     0.00000     1.25520  0.0
    132    116    117    134   5     0.00000     0.00000     1.25520  0.0
    132    116    117    135   5     0.00000     0.00000     1.25520  0.0
    133    116    117    118   5     0.00000     0.00000     1.25520  0.0
    133    116    117    134   5     0.00000     0.00000     1.25520  0.0
    133    116    117    135   5     0.00000     0.00000     1.25520  0.0
    116    117    118    119   5     5.25092    -2.58990     2.28446  0.0
    116    117    118    136   5     0.00000     0.00000     1.25520  0.0
    116    117    118    137   5     0.00000     0.00000     1.25520  0.0
    134    117    118    119   5     0.00000     0.00000     1.95811  0.0
    134    117    118    136   5     0.00000     0.00000     1.25520  0.0
    134    117    118    137   5     0.00000     0.00000     1.25520  0.0
    135    117    118    119   5     0.00000     0.00000     1.95811  0.0
    135    117    118    136   5     0.00000     0.00000     1.25520  0.0
    135    117    118    137   5     0.00000     0.00000     1.25520  0.0
    117    118    119    120   5    -2.16731    -3.93296     0.98324  0.0
    136    118    119    120   5     0.00000     0.00000     0.67362  0.0
    137    118    119    120   5     0.00000     0.00000     0.67362  0.0
    118    119    120    121   5     0.00000    25.10400     0.00000  0.0
    118    119    120    122   5     5.01662    27.18345     0.00000  0.0
    119    120    122    123   5     0.00000     8.26340     0.00000  0.0
    119    120    122    129   5     0.00000     8.26340     0.00000  0.0
    121    120    122    123   5     0.00000     8.78640     0.00000  0.0
    121    120    122    129   5     0.00000     8.78640     0.00000  0.0
    120    122    123    124   5     0.00000    30.33400     0.00000  0.0
    120    122    123    138   5     0.00000    30.33400     0.00000  0.0
    129    122    123    124   5     0.00000    30.33400     0.00000  0.0
    129    122    123    138   5     0.00000    30.33400     0.00000  0.0
    120    122    129    128   5     0.00000    30.33400     0.00000  0.0
    120    122    129    141   5     0.00000    30.33400     0.00000  0.0
    123    122    129    128   5     0.00000    30.33400     0.00000  0.0
    123    122    129    141   5     0.00000    30.33400     0.00000  0.0
    122    123    124    125   5     0.00000    30.33400     0.00000  0.0
    122    123    124    139   5     0.00000    30.33400     0.00000  0.0
    138    123    124    125   5     0.00000    30.33400     0.00000  0.0
    138    123    124    139   5     0.00000    30.33400     0.00000  0.0
    123    124    125    126   5     0.00000    30.33400     0.00000  0.0
    123    124    125    128   5     0.00000    30.33400     0.00000  0.0
    139    124    125    126   5     0.00000    30.33400     0.00000  0.0
    139    124    125    128   5     0.00000    30.33400     0.00000  0.0
    124    125    126    127   5     0.00000     8.78640     0.00000  0.0
    124    125    126    142   5     0.00000     8.26340     0.00000  0.0
    128    125    126    127   5     0.00000     8.78640     0.00000  0.0
    128    125    126    142   5     0.00000     8.26340     0.00000  0.0
    124    125    128    129   5     0.00000    30.33400     0.00000  0.0
    124    125    128    140   5     0.00000    30.33400     0.00000  0.0
    126    125    128    129   5     0.00000    30.33400     0.00000  0.0
    126    125    128    140   5     0.00000    30.33400     0.00000  0.0
    125    126    142    143   5     5.01662    27.18345     0.00000  0.0
    127    126    142    143   5     0.00000    25.10400     0.00000  0.0
    125    128    129    122   5     0.00000    30.33400     0.00000  0.0
    125    128    129    141   5     0.00000    30.33400     0.00000  0.0
    140    128    129    122   5     0.00000    30.33400     0.00000  0.0
    140    128    129    141   5     0.00000    30.33400     0.00000  0.0
    126    142    143    144   5    -2.16731    -3.93296     0.98324  0.0
    126    142    143    158   5     0.00000     0.00000     0.67362  0.0
    126    142    143    159   5     0.00000     0.00000     0.67362  0.0
    142    143    144    145   5     5.25092    -2.58990     2.28446  0.0
    142    143    144    160   5     0.00000     0.00000     1.95811  0.0
    142    143    144    161   5     0.00000     0.00000     1.95811  0.0
    158    143    144    145   5     0.00000     0.00000     1.25520  0.0
    158    143    144    160   5     0.00000     0.00000     1.25520  0.0
    158    143    144    161   5     0.00000     0.00000     1.25520  0.0
    159    143    144    145   5     0.00000     0.00000     1.25520  0.0
    159    143    144    160   5     0.00000     0.00000     1.25520  0.0
    159    143    144    161   5     0.00000     0.00000     1.25520  0.0
    143    144    145    146   5     4.74884    -0.63178     1.67360  0.0
    143    144    145    162   5     0.00000     0.00000     1.25520  0.0
    143    144    145    163   5     0.00000     0.00000     1.25520  0.0
    160    144    145    146   5     0.00000     0.00000     1.25520  0.0
    160    144    145    162   5     0.00000     0.00000     1.25520  0.0
    160    144    145    163   5     0.00000     0.00000     1.25520  0.0
    161    144    145    146   5     0.00000     0.00000     1.25520  0.0
    161    144    145    162   5     0.00000     0.00000     1.25520  0.0
    161    144    145    163   5     0.00000     0.00000     1.25520  0.0
    144    145    146    147   5     5.25092    -2.58990     2.28446  0.0
    144    145    146    164   5     0.00000     0.00000     1.25520  0.0
    144    145    146    165   5     0.00000     0.00000     1.25520  0.0
    162    145    146    147   5     0.00000     0.00000     1.95811  0.0
    162    145    146    164   5     0.00000     0.00000     1.25520  0.0
    162    145    146    165   5     0.00000     0.00000     1.25520  0.0
    163    145    146    147   5     0.00000     0.00000     1.95811  0.0
    163    145    146    164   5     0.00000     0.00000     1.25520  0.0
    163    145    146    165   5     0.00000     0.00000     1.25520  0.0
    145    146    147    148   5    -2.16731    -3.93296     0.98324  0.0
    164    146    147    148   5     0.00000     0.00000     0.67362  0.0
    165    146    147    148   5     0.00000     0.00000     0.67362  0.0
    146    147    148    149   5     0.00000    25.10400     0.00000  0.0
    146    147    148    150   5     5.01662    27.18345     0.00000  0.0
    147    148    150    151   5     0.00000     8.26340     0.00000  0.0
    147    148    150    157   5     0.00000     8.26340     0.00000  0.0
    149    148    150    151   5     0.00000     8.78640     0.00000  0.0
    149    148    150    157   5     0.00000     8.78640     0.00000  0.0
    148    150    151    152   5     0.00000    30.33400     0.00000  0.0
    148    150    151    166   5     0.00000    30.33400     0.00000  0.0
    157    150    151    152   5     0.00000    30.33400     0.00000  0.0
    157    150    151    166   5     0.00000    30.33400     0.00000  0.0
    148    150    157    156   5     0.00000    30.33400     0.00000  0.0
    148    150    157    169   5     0.00000    30.33400     0.00000  0.0
    151    150    157    156   5     0.00000    30.33400     0.00000  0.0
    151    150    157    169   5     0.00000    30.33400     0.00000  0.0
    150    151    152    153   5     0.00000    30.33400     0.00000  0.0
    150    151    152    167   5     0.00000    30.33400     0.00000  0.0
    166    151    152    153   5     0.00000    30.33400     0.00000  0.0
    166    151    152    167   5     0.00000    30.33400     0.00000  0.0
    151    152    153    154   5     0.00000    30.33400     0.00000  0.0
    151    152    153    156   5     0.00000    30.33400     0.00000  0.0
    167    152    153    154   5     0.00000    30.33400     0.00000  0.0
    167    152    153    156   5     0.00000    30.33400     0.00000  0.0
    152    153    154    155   5     0.00000     8.78640     0.00000  0.0
    152    153    154    170   5     0.00000     8.26340     0.00000  0.0
    156    153    154    155   5     0.00000     8.78640     0.00000  0.0
    156    153    154    170   5     0.00000     8.26340     0.00000  0.0
    152    153    156    157   5     0.00000    30.33400     0.00000  0.0
    152    153    156    168   5     0.00000    30.33400     0.00000  0.0
    154    153    156    157   5     0.00000    30.33400     0.00000  0.0
    154    153    156    168   5     0.00000    30.33400     0.00000  0.0
    153    154    170    171   5     5.01662    27.18345     0.00000  0.0
    155    154    170    171   5     0.00000    25.10400     0.00000  0.0
    153    156    157    150   5     0.00000    30.33400     0.00000  0.0
    153    156    157    169   5     0.00000    30.33400     0.00000  0.0
    168    156    157    150   5     0.00000    30.33400     0.00000  0.0
    168    156    157    169   5     0.00000    30.33400     0.00000  0.0
    154    170    171    172   5    -2.16731    -3.93296     0.98324  0.0
    154    170    171    186   5     0.00000     0.00000     0.67362  0.0
    154    170    171    187   5     0.00000     0.00000     0.67362  0.0
    170    171    172    173   5     5.25092    -2.58990     2.28446  0.0
    170    171    172    188   5     0.00000     0.00000     1.95811  0.0
    170    171    172    189   5     0.00000     0.00000     1.95811  0.0
    186    171    172    173   5     0.00000     0.00000     1.25520  0.0
    186    171    172    188   5     0.00000     0.00000     1.25520  0.0
    186    171    172    189   5     0.00000     0.00000     1.25520  0.0
    187    171    172    173   5     0.00000     0.00000     1.25520  0.0
    187    171    172    188   5     0.00000     0.00000     1.25520  0.0
    187    171    172    189   5     0.00000     0.00000     1.25520  0.0
    171    172    173    174   5     4.74884    -0.63178     1.67360  0.0
    171    172    173    190   5     0.00000     0.00000     1.25520  0.0
    171    172    173    191   5     0.00000     0.00000     1.25520  0.0
    188    172    173    174   5     0.00000     0.00000     1.25520  0.0
    188    172    173    190   5     0.00000     0.00000     1.25520  0.0
    188    172    173    191   5     0.00000     0.00000     1.25520  0.0
    189    172    173    174   5     0.00000     0.00000     1.25520  0.0
    189    172    173    190   5     0.00000     0.00000     1.25520  0.0
    189    172    173    191   5     0.00000     0.00000     1.25520  0.0
    172    173    174    175   5     5.25092    -2.58990     2.28446  0.0
    172    173    174    192   5     0.00000     0.00000     1.25520  0.0
    172    173    174    193   5     0.00000     0.00000     1.25520  0.0
    190    173    174    175   5     0.00000     0.00000     1.95811  0.0
    190    173    174    192   5     0.00000     0.00000     1.25520  0.0
    190    173    174    193   5     0.00000     0.00000     1.25520  0.0
    191    173    174    175   5     0.00000     0.00000     1.95811  0.0
    191    173    174    192   5     0.00000     0.00000     1.25520  0.0
    191    173    174    193   5     0.00000     0.00000     1.25520  0.0
    173    174    175    176   5    -2.16731    -3.93296     0.98324  0.0
    192    174    175    176   5     0.00000     0.00000     0.67362  0.0
    193    174    175    176   5     0.00000     0.00000     0.67362  0.0
    174    175    176    177   5     0.00000    25.10400     0.00000  0.0
    174    175    176    178   5     5.01662    27.18345     0.00000  0.0
    175    176    178    179   5     0.00000     8.26340     0.00000  0.0
    175    176    178    185   5     0.00000     8.26340     0.00000  0.0
    177    176    178    179   5     0.00000     8.78640     0.00000  0.0
    177    176    178    185   5     0.00000     8.78640     0.00000  0.0
    176    178    179    180   5     0.00000    30.33400     0.00000  0.0
    176    178    179    194   5     0.00000    30.33400     0.00000  0.0
    185    178    179    180   5     0.00000    30.33400     0.00000  0.0
    185    178    179    194   5     0.00000    30.33400     0.00000  0.0
    176    178    185    184   5     0.00000    30.33400     0.00000  0.0
    176    178    185    197   5     0.00000    30.33400     0.00000  0.0
    179    178    185    184   5     0.00000    30.33400     0.00000  0.0
    179    178    185    197   5     0.00000    30.33400     0.00000  0.0
    178    179    180    181   5     0.00000    30.33400     0.00000  0.0
    178    179    180    195   5     0.00000    30.33400     0.00000  0.0
    194    179    180    181   5     0.00000    30.33400     0.00000  0.0
    194    179    180    195   5     0.00000    30.33400     0.00000  0.0
    179    180    181    182   5     0.00000    30.33400     0.00000  0.0
    179    180    181    184   5     0.00000    30.33400     0.00000  0.0
    195    180    181    182   5     0.00000    30.33400     0.00000  0.0
    195    180    181    184   5     0.00000    30.33400     0.00000  0.0
    180    181    182    183   5     0.00000     8.78640     0.00000  0.0
    180    181    182    198   5     0.00000     8.26340     0.00000  0.0
    184    181    182    183   5     0.00000     8.78640     0.00000  0.0
    184    181    182    198   5     0.00000     8.26340     0.00000  0.0
    180    181    184    185   5     0.00000    30.33400     0.00000  0.0
    180    181    184    196   5     0.00000    30.33400     0.00000  0.0
    182    181    184    185   5     0.00000    30.33400     0.00000  0.0
    182    181    184    196   5     0.00000    30.33400     0.00000  0.0
    181    182    198    199   5     5.01662    27.18345     0.00000  0.0
    183    182    198    199   5     0.00000    25.10400     0.00000  0.0
    181    184    185    178   5     0.00000    30.33400     0.00000  0.0
    181    184    185    197   5     0.00000    30.33400     0.00000  0.0
    196    184    185    178   5     0.00000    30.33400     0.00000  0.0
    196    184    185    197   5     0.00000    30.33400     0.00000  0.0
    182    198    199    200   5    -2.16731    -3.93296     0.98324  0.0
    182    198    199    214   5     0.00000     0.00000     0.67362  0.0
    182    198    199    215   5     0.00000     0.00000     0.67362  0.0
    198    199    200    201   5     5.25092    -2.58990     2.28446  0.0
    198    199    200    216   5     0.00000     0.00000     1.95811  0.0
    198    199    200    217   5     0.00000     0.00000     1.95811  0.0
    214    199    200    201   5     0.00000     0.00000     1.25520  0.0
    214    199    200    216   5     0.00000     0.00000     1.25520  0.0
    214    199    200    217   5     0.00000     0.00000     1.25520  0.0
    215    199    200    201   5     0.00000     0.00000     1.25520  0.0
    215    199    200    216   5     0.00000     0.00000     1.25520  0.0
    215    199    200    217   5     0.00000     0.00000     1.25520  0.0
    199    200    201    202   5     4.74884    -0.63178     1.67360  0.0
    199    200    201    218   5     0.00000     0.00000     1.25520  0.0
    199    200    201    219   5     0.00000     0.00000     1.25520  0.0
    216    200    201    202   5     0.00000     0.00000     1.25520  0.0
    216    200    201    218   5     0.00000     0.00000     1.25520  0.0
    216    200    201    219   5     0.00000     0.00000     1.25520  0.0
    217    200    201    202   5     0.00000     0.00000     1.25520  0.0
    217    200    201    218   5     0.00000     0.00000     1.25520  0.0
    217    200    201    219   5     0.00000     0.00000     1.25520  0.0
    200    201    202    203   5     5.25092    -2.58990     2.28446  0.0
    200    201    202    220   5     0.00000     0.00000     1.25520  0.0
    200    201    202    221   5     0.00000     0.00000     1.25520  0.0
    218    201    202    203   5     0.00000     0.00000     1.95811  0.0
    218    201    202    220   5     0.00000     0.00000     1.25520  0.0
    218    201    202    221   5     0.00000     0.00000     1.25520  0.0
    219    201    202    203   5     0.00000     0.00000     1.95811  0.0
    219    201    202    220   5     0.00000     0.00000     1.25520  0.0
    219    201    202    221   5     0.00000     0.00000     1.25520  0.0
    201    202    203    204   5    -2.16731    -3.93296     0.98324  0.0
    220    202    203    204   5     0.00000     0.00000     0.67362  0.0
    221    202    203    204   5     0.00000     0.00000     0.67362  0.0
    202    203    204    205   5     0.00000    25.10400     0.00000  0.0
    202    203    204    206   5     5.01662    27.18345     0.00000  0.0
    203    204    206    207   5     0.00000     8.26340     0.00000  0.0
    203    204    206    213   5     0.00000     8.26340     0.00000  0.0
    205    204    206    207   5     0.00000     8.78640     0.00000  0.0
    205    204    206    213   5     0.00000     8.78640     0.00000  0.0
    204    206    207    208   5     0.00000    30.33400     0.00000  0.0
    204    206    207    222   5     0.00000    30.33400     0.00000  0.0
    213    206    207    208   5     0.00000    30.33400     0.00000  0.0
    213    206    207    222   5     0.00000    30.33400     0.00000  0.0
    204    206    213    212   5     0.00000    30.33400     0.00000  0.0
    204    206    213    225   5     0.00000    30.33400     0.00000  0.0
    207    206    213    212   5     0.00000    30.33400     0.00000  0.0
    207    206    213    225   5     0.00000    30.33400     0.00000  0.0
    206    207    208    209   5     0.00000    30.33400     0.00000  0.0
    206    207    208    223   5     0.00000    30.33400     0.00000  0.0
    222    207    208    209   5     0.00000    30.33400     0.00000  0.0
    222    207    208    223   5     0.00000    30.33400     0.00000  0.0
    207    208    209    210   5     0.00000    30.33400     0.00000  0.0
    207    208    209    212   5     0.00000    30.33400     0.00000  0.0
    223    208    209    210   5     0.00000    30.33400     0.00000  0.0
    223    208    209    212   5     0.00000    30.33400     0.00000  0.0
    208    209    210    211   5     0.00000     8.78640     0.00000  0.0
    208    209    210    226   5     0.00000     8.26340     0.00000  0.0
    212    209    210    211   5     0.00000     8.78640     0.00000  0.0
    212    209    210    226   5     0.00000     8.26340     0.00000  0.0
    208    209    212    213   5     0.00000    30.33400     0.00000  0.0
    208    209    212    224   5     0.00000    30.33400     0.00000  0.0
    210    209    212    213   5     0.00000    30.33400     0.00000  0.0
    210    209    212    224   5     0.00000    30.33400     0.00000  0.0
    209    210    226    227   5     5.01662    27.18345     0.00000  0.0
    211    210    226    227   5     0.00000    25.10400     0.00000  0.0
    209    212    213    206   5     0.00000    30.33400     0.00000  0.0
    209    212    213    225   5     0.00000    30.33400     0.00000  0.0
    224    212    213    206   5     0.00000    30.33400     0.00000  0.0
    224    212    213    225   5     0.00000    30.33400     0.00000  0.0
    210    226    227    228   5    -2.16731    -3.93296     0.98324  0.0
    210    226    227    242   5     0.00000     0.00000     0.67362  0.0
    210    226    227    243   5     0.00000     0.00000     0.67362  0.0
    226    227    228    229   5     5.25092    -2.58990     2.28446  0.0
    226    227    228    244   5     0.00000     0.00000     1.95811  0.0
    226    227    228    245   5     0.00000     0.00000     1.95811  0.0
    242    227    228    229   5     0.00000     0.00000     1.25520  0.0
    242    227    228    244   5     0.00000     0.00000     1.25520  0.0
    242    227    228    245   5     0.00000     0.00000     1.25520  0.0
    243    227    228    229   5     0.00000     0.00000     1.25520  0.0
    243    227    228    244   5     0.00000     0.00000     1.25520  0.0
    243    227    228    245   5     0.00000     0.00000     1.25520  0.0
    227    228    229    230   5     4.74884    -0.63178     1.67360  0.0
    227    228    229    246   5     0.00000     0.00000     1.25520  0.0
    227    228    229    247   5     0.00000     0.00000     1.25520  0.0
    244    228    229    230   5     0.00000     0.00000     1.25520  0.0
    244    228    229    246   5     0.00000     0.00000     1.25520  0.0
    244    228    229    247   5     0.00000     0.00000     1.25520  0.0
    245    228    229    230   5     0.00000     0.00000     1.25520  0.0
    245    228    229    246   5     0.00000     0.00000     1.25520  0.0
    245    228    229    247   5     0.00000     0.00000     1.25520  0.0
    228    229    230    231   5     5.25092    -2.58990     2.28446  0.0
    228    229    230    248   5     0.00000     0.00000     1.25520  0.0
    228    229    230    249   5     0.00000     0.00000     1.25520  0.0
    246    229    230    231   5     0.00000     0.00000     1.95811  0.0
    246    229    230    248   5     0.00000     0.00000     1.25520  0.0
    246    229    230    249   5     0.00000     0.00000     1.25520  0.0
    247    229    230    231   5     0.00000     0.00000     1.95811  0.0
    247    229    230    248   5     0.00000     0.00000     1.25520  0.0
    247    229    230    249   5     0.00000     0.00000     1.25520  0.0
    229    230    231    232   5    -2.16731    -3.93296     0.98324  0.0
    248    230    231    232   5     0.00000     0.00000     0.67362  0.0
    249    230    231    232   5     0.00000     0.00000     0.67362  0.0
    230    231    232    233   5     0.00000    25.10400     0.00000  0.0
    230    231    232    234   5     5.01662    27.18345     0.00000  0.0
    231    232    234    235   5     0.00000     8.26340     0.00000  0.0
    231    232    234    241   5     0.00000     8.26340     0.00000  0.0
    233    232    234    235   5     0.00000     8.78640     0.00000  0.0
    233    232    234    241   5     0.00000     8.78640     0.00000  0.0
    232    234    235    236   5     0.00000    30.33400     0.00000  0.0
    232    234    235    250   5     0.00000    30.33400     0.00000  0.0
    241    234    235    236   5     0.00000    30.33400     0.00000  0.0
    241    234    235    250   5     0.00000    30.33400     0.00000  0.0
    232    234    241    240   5     0.00000    30.33400     0.00000  0.0
    232    234    241    253   5     0.00000    30.33400     0.00000  0.0
    235    234    241    240   5     0.00000    30.33400     0.00000  0.0
    235    234    241    253   5     0.00000    30.33400     0.00000  0.0
    234    235    236    237   5     0.00000    30.33400     0.00000  0.0
    234    235    236    251   5     0.00000    30.33400     0.00000  0.0
    250    235    236    237   5     0.00000    30.33400     0.00000  0.0
    250    235    236    251   5     0.00000    30.33400     0.00000  0.0
    235    236    237    238   5     0.00000    30.33400     0.00000  0.0
    235    236    237    240   5     0.00000    30.33400     0.00000  0.0
    251    236    237    238   5     0.00000    30.33400     0.00000  0.0
    251    236    237    240   5     0.00000    30.33400     0.00000  0.0
    236    237    238    239   5     0.00000     8.78640     0.00000  0.0
    236    237    238    254   5     0.00000     8.26340     0.00000  0.0
    240    237    238    239   5     0.00000     8.78640     0.00000  0.0
    240    237    238    254   5     0.00000     8.26340     0.00000  0.0
    236    237    240    241   5     0.00000    30.33400     0.00000  0.0
    236    237    240    252   5     0.00000    30.33400     0.00000  0.0
    238    237    240    241   5     0.00000    30.33400     0.00000  0.0
    238    237    240    252   5     0.00000    30.33400     0.00000  0.0
    237    238    254    255   5     5.01662    27.18345     0.00000  0.0
    239    238    254    255   5     0.00000    25.10400     0.00000  0.0
    237    240    241    234   5     0.00000    30.33400     0.00000  0.0
    237    240    241    253   5     0.00000    30.33400     0.00000  0.0
    252    240    241    234   5     0.00000    30.33400     0.00000  0.0
    252    240    241    253   5     0.00000    30.33400     0.00000  0.0
    238    254    255    256   5    -2.16731    -3.93296     0.98324  0.0
    238    254    255    270   5     0.00000     0.00000     0.67362  0.0
    238    254    255    271   5     0.00000     0.00000     0.67362  0.0
    254    255    256    257   5     5.25092    -2.58990     2.28446  0.0
    254    255    256    272   5     0.00000     0.00000     1.95811  0.0
    254    255    256    273   5     0.00000     0.00000     1.95811  0.0
    270    255    256    257   5     0.00000     0.00000     1.25520  0.0
    270    255    256    272   5     0.00000     0.00000     1.25520  0.0
    270    255    256    273   5     0.00000     0.00000     1.25520  0.0
    271    255    256    257   5     0.00000     0.00000     1.25520  0.0
    271    255    256    272   5     0.00000     0.00000     1.25520  0.0
    271    255    256    273   5     0.00000     0.00000     1.25520  0.0
    255    256    257    258   5     4.74884    -0.63178     1.67360  0.0
    255    256    257    274   5     0.00000     0.00000     1.25520  0.0
    255    256    257    275   5     0.00000     0.00000     1.25520  0.0
    272    256    257    258   5     0.00000     0.00000     1.25520  0.0
    272    256    257    274   5     0.00000     0.00000     1.25520  0.0
    272    256    257    275   5     0.00000     0.00000     1.25520  0.0
    273    256    257    258   5     0.00000     0.00000     1.25520  0.0
    273    256    257    274   5     0.00000     0.00000     1.25520  0.0
    273    256    257    275   5     0.00000     0.00000     1.25520  0.0
    256    257    258    259   5     5.25092    -2.58990     2.28446  0.0
    256    257    258    276   5     0.00000     0.00000     1.25520  0.0
    256    257    258    277   5     0.00000     0.00000     1.25520  0.0
    274    257    258    259   5     0.00000     0.00000     1.95811  0.0
    274    257    258    276   5     0.00000     0.00000     1.25520  0.0
    274    257    258    277   5     0.00000     0.00000     1.25520  0.0
    275    257    258    259   5     0.00000     0.00000     1.95811  0.0
    275    257    258    276   5     0.00000     0.00000     1.25520  0.0
    275    257    258    277   5     0.00000     0.00000     1.25520  0.0
    257    258    259    260   5    -2.16731    -3.93296     0.98324  0.0
    276    258    259    260   5     0.00000     0.00000     0.67362  0.0
    277    258    259    260   5     0.00000     0.00000     0.67362  0.0
    258    259    260    261   5     0.00000    25.10400     0.00000  0.0
    258    259    260    262   5     5.01662    27.18345     0.00000  0.0
    259    260    262    263   5     0.00000     8.26340     0.00000  0.0
    259    260    262    269   5     0.00000     8.26340     0.00000  0.0
    261    260    262    263   5     0.00000     8.78640     0.00000  0.0
    261    260    262    269   5     0.00000     8.78640     0.00000  0.0
    260    262    263    264   5     0.00000    30.33400     0.00000  0.0
    260    262    263    278   5     0.00000    30.33400     0.00000  0.0
    269    262    263    264   5     0.00000    30.33400     0.00000  0.0
    269    262    263    278   5     0.00000    30.33400     0.00000  0.0
    260    262    269    268   5     0.00000    30.33400     0.00000  0.0
    260    262    269    281   5     0.00000    30.33400     0.00000  0.0
    263    262    269    268   5     0.00000    30.33400     0.00000  0.0
    263    262    269    281   5     0.00000    30.33400     0.00000  0.0
    262    263    264    265   5     0.00000    30.33400     0.00000  0.0
    262    263    264    279   5     0.00000    30.33400     0.00000  0.0
    278    263    264    265   5     0.00000    30.33400     0.00000  0.0
    278    263    264    279   5     0.00000    30.33400     0.00000  0.0
    263    264    265    266   5     0.00000    30.33400     0.00000  0.0
    263    264    265    268   5     0.00000    30.33400     0.00000  0.0
    279    264    265    266   5     0.00000    30.33400     0.00000  0.0
    279    264    265    268   5     0.00000    30.33400     0.00000  0.0
    264    265    266    267   5     0.00000     8.78640     0.00000  0.0
    264    265    266    282   5     0.00000     8.26340     0.00000  0.0
    268    265    266    267   5     0.00000     8.78640     0.00000  0.0
    268    265    266    282   5     0.00000     8.26340     0.00000  0.0
    264    265    268    269   5     0.00000    30.33400     0.00000  0.0
    264    265    268    280   5     0.00000    30.33400     0.00000  0.0
    266    265    268    269   5     0.00000    30.33400     0.00000  0.0
    266    265    268    280   5     0.00000    30.33400     0.00000  0.0
    265    266    282    283   5     5.01662    27.18345     0.00000  0.0
    267    266    282    283   5     0.00000    25.10400     0.00000  0.0
    265    268    269    262   5     0.00000    30.33400     0.00000  0.0
    265    268    269    281   5     0.00000    30.33400     0.00000  0.0
    280    268    269    262   5     0.00000    30.33400     0.00000  0.0
    280    268    269    281   5     0.00000    30.33400     0.00000  0.0
    266    282    283    284   5    -2.16731    -3.93296     0.98324  0.0
    266    282    283    298   5     0.00000     0.00000     0.67362  0.0
    266    282    283    299   5     0.00000     0.00000     0.67362  0.0
    282    283    284    285   5     5.25092    -2.58990     2.28446  0.0
    282    283    284    300   5     0.00000     0.00000     1.95811  0.0
    282    283    284    301   5     0.00000     0.00000     1.95811  0.0
    298    283    284    285   5     0.00000     0.00000     1.25520  0.0
    298    283    284    300   5     0.00000     0.00000     1.25520  0.0
    298    283    284    301   5     0.00000     0.00000     1.25520  0.0
    299    283    284    285   5     0.00000     0.00000     1.25520  0.0
    299    283    284    300   5     0.00000     0.00000     1.25520  0.0
    299    283    284    301   5     0.00000     0.00000     1.25520  0.0
    283    284    285    286   5     4.74884    -0.63178     1.67360  0.0
    283    284    285    302   5     0.00000     0.00000     1.25520  0.0
    283    284    285    303   5     0.00000     0.00000     1.25520  0.0
    300    284    285    286   5     0.00000     0.00000     1.25520  0.0
    300    284    285    302   5     0.00000     0.00000     1.25520  0.0
    300    284    285    303   5     0.00000     0.00000     1.25520  0.0
    301    284    285    286   5     0.00000     0.00000     1.25520  0.0
    301    284    285    302   5     0.00000     0.00000     1.25520  0.0
    301    284    285    303   5     0.00000     0.00000     1.25520  0.0
    284    285    286    287   5     5.25092    -2.58990     2.28446  0.0
    284    285    286    304   5     0.00000     0.00000     1.25520  0.0
    284    285    286    305   5     0.00000     0.00000     1.25520  0.0
    302    285    286    287   5     0.00000     0.00000     1.95811  0.0
    302    285    286    304   5     0.00000     0.00000     1.25520  0.0
    302    285    286    305   5     0.00000     0.00000     1.25520  0.0
    303    285    286    287   5     0.00000     0.00000     1.95811  0.0
    303    285    286    304   5     0.00000     0.00000     1.25520  0.0
    303    285    286    305   5     0.00000     0.00000     1.25520  0.0
    285    286    287    288   5    -2.16731    -3.93296     0.98324  0.0
    304    286    287    288   5     0.00000     0.00000     0.67362  0.0
    305    286    287    288   5     0.00000     0.00000     0.67362  0.0
    286    287    288    289   5     0.00000    25.10400     0.00000  0.0
    286    287    288    290   5     5.01662    27.18345     0.00000  0.0
    287    288    290    291   5     0.00000     8.26340     0.00000  0.0
    287    288    290    297   5     0.00000     8.26340     0.00000  0.0
    289    288    290    291   5     0.00000     8.78640     0.00000  0.0
    289    288    290    297   5     0.00000     8.78640     0.00000  0.0
    288    290    291    292   5     0.00000    30.33400     0.00000  0.0
    288    290    291    306   5     0.00000    30.33400     0.00000  0.0
    297    290    291    292   5     0.00000    30.33400     0.00000  0.0
    297    290    291    306   5     0.00000    30.33400     0.00000  0.0
    288    290    297    296   5     0.00000    30.33400     0.00000  0.0
    288    290    297    309   5     0.00000    30.33400     0.00000  0.0
    291    290    297    296   5     0.00000    30.33400     0.00000  0.0
    291    290    297    309   5     0.00000    30.33400     0.00000  0.0
    290    291    292    293   5     0.00000    30.33400     0.00000  0.0
    290    291    292    307   5     0.00000    30.33400     0.00000  0.0
    306    291    292    293   5     0.00000    30.33400     0.00000  0.0
    306    291    292    307   5     0.00000    30.33400     0.00000  0.0
    291    292    293    294   5     0.00000    30.33400     0.00000  0.0
    291    292    293    296   5     0.00000    30.33400     0.00000  0.0
    307    292    293    294   5     0.00000    30.33400     0.00000  0.0
    307    292    293    296   5     0.00000    30.33400     0.00000  0.0
    292    293    294    295   5     0.00000     8.78640     0.00000  0.0
    292    293    294    310   5     0.00000     8.26340     0.00000  0.0
    296    293    294    295   5     0.00000     8.78640     0.00000  0.0
    296    293    294    310   5     0.00000     8.26340     0.00000  0.0
    292    293    296    297   5     0.00000    30.33400     0.00000  0.0
    292    293    296    308   5     0.00000    30.33400     0.00000  0.0
    294    293    296    297   5     0.00000    30.33400     0.00000  0.0
    294    293    296    308   5     0.00000    30.33400     0.00000  0.0
    293    294    310    311   5     5.01662    27.18345     0.00000  0.0
    295    294    310    311   5     0.00000    25.10400     0.00000  0.0
    293    296    297    290   5     0.00000    30.33400     0.00000  0.0
    293    296    297    309   5     0.00000    30.33400     0.00000  0.0
    308    296    297    290   5     0.00000    30.33400     0.00000  0.0
    308    296    297    309   5     0.00000    30.33400     0.00000  0.0
    294    310    311    312   5    -2.16731    -3.93296     0.98324  0.0
    294    310    311    326   5     0.00000     0.00000     0.67362  0.0
    294    310    311    327   5     0.00000     0.00000     0.67362  0.0
    310    311    312    313   5     5.25092    -2.58990     2.28446  0.0
    310    311    312    328   5     0.00000     0.00000     1.95811  0.0
    310    311    312    329   5     0.00000     0.00000     1.95811  0.0
    326    311    312    313   5     0.00000     0.00000     1.25520  0.0
    326    311    312    328   5     0.00000     0.00000     1.25520  0.0
    326    311    312    329   5     0.00000     0.00000     1.25520  0.0
    327    311    312    313   5     0.00000     0.00000     1.25520  0.0
    327    311    312    328   5     0.00000     0.00000     1.25520  0.0
    327    311    312    329   5     0.00000     0.00000     1.25520  0.0
    311    312    313    314   5     4.74884    -0.63178     1.67360  0.0
    311    312    313    330   5     0.00000     0.00000     1.25520  0.0
    311    312    313    331   5     0.00000     0.00000     1.25520  0.0
    328    312    313    314   5     0.00000     0.00000     1.25520  0.0
    328    312    313    330   5     0.00000     0.00000     1.25520  0.0
    328    312    313    331   5     0.00000     0.00000     1.25520  0.0
    329    312    313    314   5     0.00000     0.00000     1.25520  0.0
    329    312    313    330   5     0.00000     0.00000     1.25520  0.0
    329    312    313    331   5     0.00000     0.00000     1.25520  0.0
    312    313    314    315   5     5.25092    -2.58990     2.28446  0.0
    312    313    314    332   5     0.00000     0.00000     1.25520  0.0
    312    313    314    333   5     0.00000     0.00000     1.25520  0.0
    330    313    314    315   5     0.00000     0.00000     1.95811  0.0
    330    313    314    332   5     0.00000     0.00000     1.25520  0.0
    330    313    314    333   5     0.00000     0.00000     1.25520  0.0
    331    313    314    315   5     0.00000     0.00000     1.95811  0.0
    331    313    314    332   5     0.00000     0.00000     1.25520  0.0
    331    313    314    333   5     0.00000     0.00000     1.25520  0.0
    313    314    315    316   5    -2.16731    -3.93296     0.98324  0.0
    332    314    315    316   5     0.00000     0.00000     0.67362  0.0
    333    314    315    316   5     0.00000     0.00000     0.67362  0.0
    314    315    316    317   5     0.00000    25.10400     0.00000  0.0
    314    315    316    318   5     5.01662    27.18345     0.00000  0.0
    315    316    318    319   5     0.00000     8.26340     0.00000  0.0
    315    316    318    325   5     0.00000     8.26340     0.00000  0.0
    317    316    318    319   5     0.00000     8.78640     0.00000  0.0
    317    316    318    325   5     0.00000     8.78640     0.00000  0.0
    316    318    319    320   5     0.00000    30.33400     0.00000  0.0
    316    318    319    334   5     0.00000    30.33400     0.00000  0.0
    325    318    319    320   5     0.00000    30.33400     0.00000  0.0
    325    318    319    334   5     0.00000    30.33400     0.00000  0.0
    316    318    325    324   5     0.00000    30.33400     0.00000  0.0
    316    318    325    337   5     0.00000    30.33400     0.00000  0.0
    319    318    325    324   5     0.00000    30.33400     0.00000  0.0
    319    318    325    337   5     0.00000    30.33400     0.00000  0.0
    318    319    320    321   5     0.00000    30.33400     0.00000  0.0
    318    319    320    335   5     0.00000    30.33400     0.00000  0.0
    334    319    320    321   5     0.00000    30.33400     0.00000  0.0
    334    319    320    335   5     0.00000    30.33400     0.00000  0.0
    319    320    321    322   5     0.00000    30.33400     0.00000  0.0
    319    320    321    324   5     0.00000    30.33400     0.00000  0.0
    335    320    321    322   5     0.00000    30.33400     0.00000  0.0
    335    320    321    324   5     0.00000    30.33400     0.00000  0.0
    320    321    322    323   5     0.00000     8.78640     0.00000  0.0
    320    321    322    338   5     0.00000     8.26340     0.00000  0.0
    324    321    322    323   5     0.00000     8.78640     0.00000  0.0
    324    321    322    338   5     0.00000     8.26340     0.00000  0.0
    320    321    324    325   5     0.00000    30.33400     0.00000  0.0
    320    321    324    336   5     0.00000    30.33400     0.00000  0.0
    322    321    324    325   5     0.00000    30.33400     0.00000  0.0
    322    321    324    336   5     0.00000    30.33400     0.00000  0.0
    321    322    338    339   5     5.01662    27.18345     0.00000  0.0
    323    322    338    339   5     0.00000    25.10400     0.00000  0.0
    321    324    325    318   5     0.00000    30.33400     0.00000  0.0
    321    324    325    337   5     0.00000    30.33400     0.00000  0.0
    336    324    325    318   5     0.00000    30.33400     0.00000  0.0
    336    324    325    337   5     0.00000    30.33400     0.00000  0.0
    322    338    339    340   5    -2.16731    -3.93296     0.98324  0.0
    322    338    339    354   5     0.00000     0.00000     0.67362  0.0
    322    338    339    355   5     0.00000     0.00000     0.67362  0.0
    338    339    340    341   5     5.25092    -2.58990     2.28446  0.0
    338    339    340    356   5     0.00000     0.00000     1.95811  0.0
    338    339    340    357   5     0.00000     0.00000     1.95811  0.0
    354    339    340    341   5     0.00000     0.00000     1.25520  0.0
    354    339    340    356   5     0.00000     0.00000     1.25520  0.0
    354    339    340    357   5     0.00000     0.00000     1.25520  0.0
    355    339    340    341   5     0.00000     0.00000     1.25520  0.0
    355    339    340    356   5     0.00000     0.00000     1.25520  0.0
    355    339    340    357   5     0.00000     0.00000     1.25520  0.0
    339    340    341    342   5     4.74884    -0.63178     1.67360  0.0
    339    340    341    358   5     0.00000     0.00000     1.25520  0.0
    339    340    341    359   5     0.00000     0.00000     1.25520  0.0
    356    340    341    342   5     0.00000     0.00000     1.25520  0.0
    356    340    341    358   5     0.00000     0.00000     1.25520  0.0
    356    340    341    359   5     0.00000     0.00000     1.25520  0.0
    357    340    341    342   5     0.00000     0.00000     1.25520  0.0
    357    340    341    358   5     0.00000     0.00000     1.25520  0.0
    357    340    341    359   5     0.00000     0.00000     1.25520  0.0
    340    341    342    343   5     5.25092    -2.58990     2.28446  0.0
    340    341    342    360   5     0.00000     0.00000     1.25520  0.0
    340    341    342    361   5     0.00000     0.00000     1.25520  0.0
    358    341    342    343   5     0.00000     0.00000     1.95811  0.0
    358    341    342    360   5     0.00000     0.00000     1.25520  0.0
    358    341    342    361   5     0.00000     0.00000     1.25520  0.0
    359    341    342    343   5     0.00000     0.00000     1.95811  0.0
    359    341    342    360   5     0.00000     0.00000     1.25520  0.0
    359    341    342    361   5     0.00000     0.00000     1.25520  0.0
    341    342    343    344   5    -2.16731    -3.93296     0.98324  0.0
    360    342    343    344   5     0.00000     0.00000     0.67362  0.0
    361    342    343    344   5     0.00000     0.00000     0.67362  0.0
    342    343    344    345   5     0.00000    25.10400     0.00000  0.0
    342    343    344    346   5     5.01662    27.18345     0.00000  0.0
    343    344    346    347   5     0.00000     8.26340     0.00000  0.0
    343    344    346    353   5     0.00000     8.26340     0.00000  0.0
    345    344    346    347   5     0.00000     8.78640     0.00000  0.0
    345    344    346    353   5     0.00000     8.78640     0.00000  0.0
    344    346    347    348   5     0.00000    30.33400     0.00000  0.0
    344    346    347    362   5     0.00000    30.33400     0.00000  0.0
    353    346    347    348   5     0.00000    30.33400     0.00000  0.0
    353    346    347    362   5     0.00000    30.33400     0.00000  0.0
    344    346    353    352   5     0.00000    30.33400     0.00000  0.0
    344    346    353    365   5     0.00000    30.33400     0.00000  0.0
    347    346    353    352   5     0.00000    30.33400     0.00000  0.0
    347    346    353    365   5     0.00000    30.33400     0.00000  0.0
    346    347    348    349   5     0.00000    30.33400     0.00000  0.0
    346    347    348    363   5     0.00000    30.33400     0.00000  0.0
    362    347    348    349   5     0.00000    30.33400     0.00000  0.0
    362    347    348    363   5     0.00000    30.33400     0.00000  0.0
    347    348    349    350   5     0.00000    30.33400     0.00000  0.0
    347    348    349    352   5     0.00000    30.33400     0.00000  0.0
    363    348    349    350   5     0.00000    30.33400     0.00000  0.0
    363    348    349    352   5     0.00000    30.33400     0.00000  0.0
    348    349    350    351   5     0.00000     8.78640     0.00000  0.0
    348    349    350    366   5     0.00000     8.26340     0.00000  0.0
    352    349    350    351   5     0.00000     8.78640     0.00000  0.0
    352    349    350    366   5     0.00000     8.26340     0.00000  0.0
    348    349    352    353   5     0.00000    30.33400     0.00000  0.0
    348    349    352    364   5     0.00000    30.33400     0.00000  0.0
    350    349    352    353   5     0.00000    30.33400     0.00000  0.0
    350    349    352    364   5     0.00000    30.33400     0.00000  0.0
    349    350    366    367   5     5.01662    27.18345     0.00000  0.0
    351    350    366    367   5     0.00000    25.10400     0.00000  0.0
    349    352    353    346   5     0.00000    30.33400     0.00000  0.0
    349    352    353    365   5     0.00000    30.33400     0.00000  0.0
    364    352    353    346   5     0.00000    30.33400     0.00000  0.0
    364    352    353    365   5     0.00000    30.33400     0.00000  0.0
    350    366    367    368   5    -2.16731    -3.93296     0.98324  0.0
    350    366    367    382   5     0.00000     0.00000     0.67362  0.0
    350    366    367    383   5     0.00000     0.00000     0.67362  0.0
    366    367    368    369   5     5.25092    -2.58990     2.28446  0.0
    366    367    368    384   5     0.00000     0.00000     1.95811  0.0
    366    367    368    385   5     0.00000     0.00000     1.95811  0.0
    382    367    368    369   5     0.00000     0.00000     1.25520  0.0
    382    367    368    384   5     0.00000     0.00000     1.25520  0.0
    382    367    368    385   5     0.00000     0.00000     1.25520  0.0
    383    367    368    369   5     0.00000     0.00000     1.25520  0.0
    383    367    368    384   5     0.00000     0.00000     1.25520  0.0
    383    367    368    385   5     0.00000     0.00000     1.25520  0.0
    367    368    369    370   5     4.74884    -0.63178     1.67360  0.0
    367    368    369    386   5     0.00000     0.00000     1.25520  0.0
    367    368    369    387   5     0.00000     0.00000     1.25520  0.0
    384    368    369    370   5     0.00000     0.00000     1.25520  0.0
    384    368    369    386   5     0.00000     0.00000     1.25520  0.0
    384    368    369    387   5     0.00000     0.00000     1.25520  0.0
    385    368    369    370   5     0.00000     0.00000     1.25520  0.0
    385    368    369    386   5     0.00000     0.00000     1.25520  0.0
    385    368    369    387   5     0.00000     0.00000     1.25520  0.0
    368    369    370    371   5     5.25092    -2.58990     2.28446  0.0
    368    369    370    388   5     0.00000     0.00000     1.25520  0.0
    368    369    370    389   5     0.00000     0.00000     1.25520  0.0
    386    369    370    371   5     0.00000     0.00000     1.95811  0.0
    386    369    370    388   5     0.00000     0.00000     1.25520  0.0
    386    369    370    389   5     0.00000     0.00000     1.25520  0.0
    387    369    370    371   5     0.00000     0.00000     1.95811  0.0
    387    369    370    388   5     0.00000     0.00000     1.25520  0.0
    387    369    370    389   5     0.00000     0.00000     1.25520  0.0
    369    370    371    372   5    -2.16731    -3.93296     0.98324  0.0
    388    370    371    372   5     0.00000     0.00000     0.67362  0.0
    389    370    371    372   5     0.00000     0.00000     0.67362  0.0
    370    371    372    373   5     0.00000    25.10400     0.00000  0.0
    370    371    372    374   5     5.01662    27.18345     0.00000  0.0
    371    372    374    375   5     0.00000     8.26340     0.00000  0.0
    371    372    374    381   5     0.00000     8.26340     0.00000  0.0
    373    372    374    375   5     0.00000     8.78640     0.00000  0.0
    373    372    374    381   5     0.00000     8.78640     0.00000  0.0
    372    374    375    376   5     0.00000    30.33400     0.00000  0.0
    372    374    375    390   5     0.00000    30.33400     0.00000  0.0
    381    374    375    376   5     0.00000    30.33400     0.00000  0.0
    381    374    375    390   5     0.00000    30.33400     0.00000  0.0
    372    374    381    380   5     0.00000    30.33400     0.00000  0.0
    372    374    381    393   5     0.00000    30.33400     0.00000  0.0
    375    374    381    380   5     0.00000    30.33400     0.00000  0.0
    375    374    381    393   5     0.00000    30.33400     0.00000  0.0
    374    375    376    377   5     0.00000    30.33400     0.00000  0.0
    374    375    376    391   5     0.00000    30.33400     0.00000  0.0
    390    375    376    377   5     0.00000    30.33400     0.00000  0.0
    390    375    376    391   5     0.00000    30.33400     0.00000  0.0
    375    376    377    378   5     0.00000    30.33400     0.00000  0.0
    375    376    377    380   5     0.00000    30.33400     0.00000  0.0
    391    376    377    378   5     0.00000    30.33400     0.00000  0.0
    391    376    377    380   5     0.00000    30.33400     0.00000  0.0
    376    377    378    379   5     0.00000     8.78640     0.00000  0.0
    376    377    378    394   5     0.00000     8.26340     0.00000  0.0
    380    377    378    379   5     0.00000     8.78640     0.00000  0.0
    380    377    378    394   5     0.00000     8.26340     0.00000  0.0
    376    377    380    381   5     0.00000    30.33400     0.00000  0.0
    376    377    380    392   5     0.00000    30.33400     0.00000  0.0
    378    377    380    381   5     0.00000    30.33400     0.00000  0.0
    378    377    380    392   5     0.00000    30.33400     0.00000  0.0
    377    378    394    395   5     5.01662    27.18345     0.00000  0.0
    379    378    394    395   5     0.00000    25.10400     0.00000  0.0
    377    380    381    374   5     0.00000    30.33400     0.00000  0.0
    377    380    381    393   5     0.00000    30.33400     0.00000  0.0
    392    380    381    374   5     0.00000    30.33400     0.00000  0.0
    392    380    381    393   5     0.00000    30.33400     0.00000  0.0
    378    394    395    396   5    -2.16731    -3.93296     0.98324  0.0
    378    394    395    410   5     0.00000     0.00000     0.67362  0.0
    378    394    395    411   5     0.00000     0.00000     0.67362  0.0
    394    395    396    397   5     5.25092    -2.58990     2.28446  0.0
    394    395    396    412   5     0.00000     0.00000     1.95811  0.0
    394    395    396    413   5     0.00000     0.00000     1.95811  0.0
    410    395    396    397   5     0.00000     0.00000     1.25520  0.0
    410    395    396    412   5     0.00000     0.00000     1.25520  0.0
    410    395    396    413   5     0.00000     0.00000     1.25520  0.0
    411    395    396    397   5     0.00000     0.00000     1.25520  0.0
    411    395    396    412   5     0.00000     0.00000     1.25520  0.0
    411    395    396    413   5     0.00000     0.00000     1.25520  0.0
    395    396    397    398   5     4.74884    -0.63178     1.67360  0.0
    395    396    397    414   5     0.00000     0.00000     1.25520  0.0
    395    396    397    415   5     0.00000     0.00000     1.25520  0.0
    412    396    397    398   5     0.00000     0.00000     1.25520  0.0
    412    396    397    414   5     0.00000     0.00000     1.25520  0.0
    412    396    397    415   5     0.00000     0.00000     1.25520  0.0
    413    396    397    398   5     0.00000     0.00000     1.25520  0.0
    413    396    397    414   5     0.00000     0.00000     1.25520  0.0
    413    396    397    415   5     0.00000     0.00000     1.25520  0.0
    396    397    398    399   5     5.25092    -2.58990     2.28446  0.0
    396    397    398    416   5     0.00000     0.00000     1.25520  0.0
    396    397    398    417   5     0.00000     0.00000     1.25520  0.0
    414    397    398    399   5     0.00000     0.00000     1.95811  0.0
    414    397    398    416   5     0.00000     0.00000     1.25520  0.0
    414    397    398    417   5     0.00000     0.00000     1.25520  0.0
    415    397    398    399   5     0.00000     0.00000     1.95811  0.0
    415    397    398    416   5     0.00000     0.00000     1.25520  0.0
    415    397    398    417   5     0.00000     0.00000     1.25520  0.0
    397    398    399    400   5    -2.16731    -3.93296     0.98324  0.0
    416    398    399    400   5     0.00000     0.00000     0.67362  0.0
    417    398    399    400   5     0.00000     0.00000     0.67362  0.0
    398    399    400    401   5     0.00000    25.10400     0.00000  0.0
    398    399    400    402   5     5.01662    27.18345     0.00000  0.0
    399    400    402    403   5     0.00000     8.26340     0.00000  0.0
    399    400    402    409   5     0.00000     8.26340     0.00000  0.0
    401    400    402    403   5     0.00000     8.78640     0.00000  0.0
    401    400    402    409   5     0.00000     8.78640     0.00000  0.0
    400    402    403    404   5     0.00000    30.33400     0.00000  0.0
    400    402    403    418   5     0.00000    30.33400     0.00000  0.0
    409    402    403    404   5     0.00000    30.33400     0.00000  0.0
    409    402    403    418   5     0.00000    30.33400     0.00000  0.0
    400    402    409    408   5     0.00000    30.33400     0.00000  0.0
    400    402    409    421   5     0.00000    30.33400     0.00000  0.0
    403    402    409    408   5     0.00000    30.33400     0.00000  0.0
    403    402    409    421   5     0.00000    30.33400     0.00000  0.0
    402    403    404    405   5     0.00000    30.33400     0.00000  0.0
    402    403    404    419   5     0.00000    30.33400     0.00000  0.0
    418    403    404    405   5     0.00000    30.33400     0.00000  0.0
    418    403    404    419   5     0.00000    30.33400     0.00000  0.0
    403    404    405    406   5     0.00000    30.33400     0.00000  0.0
    403    404    405    408   5     0.00000    30.33400     0.00000  0.0
    419    404    405    406   5     0.00000    30.33400     0.00000  0.0
    419    404    405    408   5     0.00000    30.33400     0.00000  0.0
    404    405    406    407   5     0.00000     8.78640     0.00000  0.0
    404    405    406    422   5     0.00000     8.26340     0.00000  0.0
    408    405    406    407   5     0.00000     8.78640     0.00000  0.0
    408    405    406    422   5     0.00000     8.26340     0.00000  0.0
    404    405    408    409   5     0.00000    30.33400     0.00000  0.0
    404    405    408    420   5     0.00000    30.33400     0.00000  0.0
    406    405    408    409   5     0.00000    30.33400     0.00000  0.0
    406    405    408    420   5     0.00000    30.33400     0.00000  0.0
    405    406    422    423   5     5.01662    27.18345     0.00000  0.0
    407    406    422    423   5     0.00000    25.10400     0.00000  0.0
    405    408    409    402   5     0.00000    30.33400     0.00000  0.0
    405    408    409    421   5     0.00000    30.33400     0.00000  0.0
    420    408    409    402   5     0.00000    30.33400     0.00000  0.0
    420    408    409    421   5     0.00000    30.33400     0.00000  0.0
    406    422    423    424   5    -2.16731    -3.93296     0.98324  0.0
    406    422    423    438   5     0.00000     0.00000     0.67362  0.0
    406    422    423    439   5     0.00000     0.00000     0.67362  0.0
    422    423    424    425   5     5.25092    -2.58990     2.28446  0.0
    422    423    424    440   5     0.00000     0.00000     1.95811  0.0
    422    423    424    441   5     0.00000     0.00000     1.95811  0.0
    438    423    424    425   5     0.00000     0.00000     1.25520  0.0
    438    423    424    440   5     0.00000     0.00000     1.25520  0.0
    438    423    424    441   5     0.00000     0.00000     1.25520  0.0
    439    423    424    425   5     0.00000     0.00000     1.25520  0.0
    439    423    424    440   5     0.00000     0.00000     1.25520  0.0
    439    423    424    441   5     0.00000     0.00000     1.25520  0.0
    423    424    425    426   5     4.74884    -0.63178     1.67360  0.0
    423    424    425    442   5     0.00000     0.00000     1.25520  0.0
    423    424    425    443   5     0.00000     0.00000     1.25520  0.0
    440    424    425    426   5     0.00000     0.00000     1.25520  0.0
    440    424    425    442   5     0.00000     0.00000     1.25520  0.0
    440    424    425    443   5     0.00000     0.00000     1.25520  0.0
    441    424    425    426   5     0.00000     0.00000     1.25520  0.0
    441    424    425    442   5     0.00000     0.00000     1.25520  0.0
    441    424    425    443   5     0.00000     0.00000     1.25520  0.0
    424    425    426    427   5     5.25092    -2.58990     2.28446  0.0
    424    425    426    444   5     0.00000     0.00000     1.25520  0.0
    424    425    426    445   5     0.00000     0.00000     1.25520  0.0
    442    425    426    427   5     0.00000     0.00000     1.95811  0.0
    442    425    426    444   5     0.00000     0.00000     1.25520  0.0
    442    425    426    445   5     0.00000     0.00000     1.25520  0.0
    443    425    426    427   5     0.00000     0.00000     1.95811  0.0
    443    425    426    444   5     0.00000     0.00000     1.25520  0.0
    443    425    426    445   5     0.00000     0.00000     1.25520  0.0
    425    426    427    428   5    -2.16731    -3.93296     0.98324  0.0
    444    426    427    428   5     0.00000     0.00000     0.67362  0.0
    445    426    427    428   5     0.00000     0.00000     0.67362  0.0
    426    427    428    429   5     0.00000    25.10400     0.00000  0.0
    426    427    428    430   5     5.01662    27.18345     0.00000  0.0
    427    428    430    431   5     0.00000     8.26340     0.00000  0.0
    427    428    430    437   5     0.00000     8.26340     0.00000  0.0
    429    428    430    431   5     0.00000     8.78640     0.00000  0.0
    429    428    430    437   5     0.00000     8.78640     0.00000  0.0
    428    430    431    432   5     0.00000    30.33400     0.00000  0.0
    428    430    431    446   5     0.00000    30.33400     0.00000  0.0
    437    430    431    432   5     0.00000    30.33400     0.00000  0.0
    437    430    431    446   5     0.00000    30.33400     0.00000  0.0
    428    430    437    436   5     0.00000    30.33400     0.00000  0.0
    428    430    437    449   5     0.00000    30.33400     0.00000  0.0
    431    430    437    436   5     0.00000    30.33400     0.00000  0.0
    431    430    437    449   5     0.00000    30.33400     0.00000  0.0
    430    431    432    433   5     0.00000    30.33400     0.00000  0.0
    430    431    432    447   5     0.00000    30.33400     0.00000  0.0
    446    431    432    433   5     0.00000    30.33400     0.00000  0.0
    446    431    432    447   5     0.00000    30.33400     0.00000  0.0
    431    432    433    434   5     0.00000    30.33400     0.00000  0.0
    431    432    433    436   5     0.00000    30.33400     0.00000  0.0
    447    432    433    434   5     0.00000    30.33400     0.00000  0.0
    447    432    433    436   5     0.00000    30.33400     0.00000  0.0
    432    433    434    435   5     0.00000     8.78640     0.00000  0.0
    432    433    434    450   5     0.00000     8.26340     0.00000  0.0
    436    433    434    435   5     0.00000     8.78640     0.00000  0.0
    436    433    434    450   5     0.00000     8.26340     0.00000  0.0
    432    433    436    437   5     0.00000    30.33400     0.00000  0.0
    432    433    436    448   5     0.00000    30.33400     0.00000  0.0
    434    433    436    437   5     0.00000    30.33400     0.00000  0.0
    434    433    436    448   5     0.00000    30.33400     0.00000  0.0
    433    434    450    451   5     5.01662    27.18345     0.00000  0.0
    435    434    450    451   5     0.00000    25.10400     0.00000  0.0
    433    436    437    430   5     0.00000    30.33400     0.00000  0.0
    433    436    437    449   5     0.00000    30.33400     0.00000  0.0
    448    436    437    430   5     0.00000    30.33400     0.00000  0.0
    448    436    437    449   5     0.00000    30.33400     0.00000  0.0
    434    450    451    452   5    -2.16731    -3.93296     0.98324  0.0
    434    450    451    466   5     0.00000     0.00000     0.67362  0.0
    434    450    451    467   5     0.00000     0.00000     0.67362  0.0
    450    451    452    453   5     5.25092    -2.58990     2.28446  0.0
    450    451    452    468   5     0.00000     0.00000     1.95811  0.0
    450    451    452    469   5     0.00000     0.00000     1.95811  0.0
    466    451    452    453   5     0.00000     0.00000     1.25520  0.0
    466    451    452    468   5     0.00000     0.00000     1.25520  0.0
    466    451    452    469   5     0.00000     0.00000     1.25520  0.0
    467    451    452    453   5     0.00000     0.00000     1.25520  0.0
    467    451    452    468   5     0.00000     0.00000     1.25520  0.0
    467    451    452    469   5     0.00000     0.00000     1.25520  0.0
    451    452    453    454   5     4.74884    -0.63178     1.67360  0.0
    451    452    453    470   5     0.00000     0.00000     1.25520  0.0
    451    452    453    471   5     0.00000     0.00000     1.25520  0.0
    468    452    453    454   5     0.00000     0.00000     1.25520  0.0
    468    452    453    470   5     0.00000     0.00000     1.25520  0.0
    468    452    453    471   5     0.00000     0.00000     1.25520  0.0
    469    452    453    454   5     0.00000     0.00000     1.25520  0.0
    469    452    453    470   5     0.00000     0.00000     1.25520  0.0
    469    452    453    471   5     0.00000     0.00000     1.25520  0.0
    452    453    454    455   5     5.25092    -2.58990     2.28446  0.0
    452    453    454    472   5     0.00000     0.00000     1.25520  0.0
    452    453    454    473   5     0.00000     0.00000     1.25520  0.0
    470    453    454    455   5     0.00000     0.00000     1.95811  0.0
    470    453    454    472   5     0.00000     0.00000     1.25520  0.0
    470    453    454    473   5     0.00000     0.00000     1.25520  0.0
    471    453    454    455   5     0.00000     0.00000     1.95811  0.0
    471    453    454    472   5     0.00000     0.00000     1.25520  0.0
    471    453    454    473   5     0.00000     0.00000     1.25520  0.0
    453    454    455    456   5    -2.16731    -3.93296     0.98324  0.0
    472    454    455    456   5     0.00000     0.00000     0.67362  0.0
    473    454    455    456   5     0.00000     0.00000     0.67362  0.0
    454    455    456    457   5     0.00000    25.10400     0.00000  0.0
    454    455    456    458   5     5.01662    27.18345     0.00000  0.0
    455    456    458    459   5     0.00000     8.26340     0.00000  0.0
    455    456    458    465   5     0.00000     8.26340     0.00000  0.0
    457    456    458    459   5     0.00000     8.78640     0.00000  0.0
    457    456    458    465   5     0.00000     8.78640     0.00000  0.0
    456    458    459    460   5     0.00000    30.33400     0.00000  0.0
    456    458    459    474   5     0.00000    30.33400     0.00000  0.0
    465    458    459    460   5     0.00000    30.33400     0.00000  0.0
    465    458    459    474   5     0.00000    30.33400     0.00000  0.0
    456    458    465    464   5     0.00000    30.33400     0.00000  0.0
    456    458    465    477   5     0.00000    30.33400     0.00000  0.0
    459    458    465    464   5     0.00000    30.33400     0.00000  0.0
    459    458    465    477   5     0.00000    30.33400     0.00000  0.0
    458    459    460    461   5     0.00000    30.33400     0.00000  0.0
    458    459    460    475   5     0.00000    30.33400     0.00000  0.0
    474    459    460    461   5     0.00000    30.33400     0.00000  0.0
    474    459    460    475   5     0.00000    30.33400     0.00000  0.0
    459    460    461    462   5     0.00000    30.33400     0.00000  0.0
    459    460    461    464   5     0.00000    30.33400     0.00000  0.0
    475    460    461    462   5     0.00000    30.33400     0.00000  0.0
    475    460    461    464   5     0.00000    30.33400     0.00000  0.0
    460    461    462    463   5     0.00000     8.78640     0.00000  0.0
    460    461    462    478   5     0.00000     8.26340     0.00000  0.0
    464    461    462    463   5     0.00000     8.78640     0.00000  0.0
    464    461    462    478   5     0.00000     8.26340     0.00000  0.0
    460    461    464    465   5     0.00000    30.33400     0.00000  0.0
    460    461    464    476   5     0.00000    30.33400     0.00000  0.0
    462    461    464    465   5     0.00000    30.33400     0.00000  0.0
    462    461    464    476   5     0.00000    30.33400     0.00000  0.0
    461    462    478    479   5     5.01662    27.18345     0.00000  0.0
    463    462    478    479   5     0.00000    25.10400     0.00000  0.0
    461    464    465    458   5     0.00000    30.33400     0.00000  0.0
    461    464    465    477   5     0.00000    30.33400     0.00000  0.0
    476    464    465    458   5     0.00000    30.33400     0.00000  0.0
    476    464    465    477   5     0.00000    30.33400     0.00000  0.0
    462    478    479    480   5    -2.16731    -3.93296     0.98324  0.0
    462    478    479    494   5     0.00000     0.00000     0.67362  0.0
    462    478    479    495   5     0.00000     0.00000     0.67362  0.0
    478    479    480    481   5     5.25092    -2.58990     2.28446  0.0
    478    479    480    496   5     0.00000     0.00000     1.95811  0.0
    478    479    480    497   5     0.00000     0.00000     1.95811  0.0
    494    479    480    481   5     0.00000     0.00000     1.25520  0.0
    494    479    480    496   5     0.00000     0.00000     1.25520  0.0
    494    479    480    497   5     0.00000     0.00000     1.25520  0.0
    495    479    480    481   5     0.00000     0.00000     1.25520  0.0
    495    479    480    496   5     0.00000     0.00000     1.25520  0.0
    495    479    480    497   5     0.00000     0.00000     1.25520  0.0
    479    480    481    482   5     4.74884    -0.63178     1.67360  0.0
    479    480    481    498   5     0.00000     0.00000     1.25520  0.0
    479    480    481    499   5     0.00000     0.00000     1.25520  0.0
    496    480    481    482   5     0.00000     0.00000     1.25520  0.0
    496    480    481    498   5     0.00000     0.00000     1.25520  0.0
    496    480    481    499   5     0.00000     0.00000     1.25520  0.0
    497    480    481    482   5     0.00000     0.00000     1.25520  0.0
    497    480    481    498   5     0.00000     0.00000     1.25520  0.0
    497    480    481    499   5     0.00000     0.00000     1.25520  0.0
    480    481    482    483   5     5.25092    -2.58990     2.28446  0.0
    480    481    482    500   5     0.00000     0.00000     1.25520  0.0
    480    481    482    501   5     0.00000     0.00000     1.25520  0.0
    498    481    482    483   5     0.00000     0.00000     1.95811  0.0
    498    481    482    500   5     0.00000     0.00000     1.25520  0.0
    498    481    482    501   5     0.00000     0.00000     1.25520  0.0
    499    481    482    483   5     0.00000     0.00000     1.95811  0.0
    499    481    482    500   5     0.00000     0.00000     1.25520  0.0
    499    481    482    501   5     0.00000     0.00000     1.25520  0.0
    481    482    483    484   5    -2.16731    -3.93296     0.98324  0.0
    500    482    483    484   5     0.00000     0.00000     0.67362  0.0
    501    482    483    484   5     0.00000     0.00000     0.67362  0.0
    482    483    484    485   5     0.00000    25.10400     0.00000  0.0
    482    483    484    486   5     5.01662    27.18345     0.00000  0.0
    483    484    486    487   5     0.00000     8.26340     0.00000  0.0
    483    484    486    493   5     0.00000     8.26340     0.00000  0.0
    485    484    486    487   5     0.00000     8.78640     0.00000  0.0
    485    484    486    493   5     0.00000     8.78640     0.00000  0.0
    484    486    487    488   5     0.00000    30.33400     0.00000  0.0
    484    486    487    502   5     0.00000    30.33400     0.00000  0.0
    493    486    487    488   5     0.00000    30.33400     0.00000  0.0
    493    486    487    502   5     0.00000    30.33400     0.00000  0.0
    484    486    493    492   5     0.00000    30.33400     0.00000  0.0
    484    486    493    505   5     0.00000    30.33400     0.00000  0.0
    487    486    493    492   5     0.00000    30.33400     0.00000  0.0
    487    486    493    505   5     0.00000    30.33400     0.00000  0.0
    486    487    488    489   5     0.00000    30.33400     0.00000  0.0
    486    487    488    503   5     0.00000    30.33400     0.00000  0.0
    502    487    488    489   5     0.00000    30.33400     0.00000  0.0
    502    487    488    503   5     0.00000    30.33400     0.00000  0.0
    487    488    489    490   5     0.00000    30.33400     0.00000  0.0
    487    488    489    492   5     0.00000    30.33400     0.00000  0.0
    503    488    489    490   5     0.00000    30.33400     0.00000  0.0
    503    488    489    492   5     0.00000    30.33400     0.00000  0.0
    488    489    490    491   5     0.00000     8.78640     0.00000  0.0
    488    489    490    506   5     0.00000     8.26340     0.00000  0.0
    492    489    490    491   5     0.00000     8.78640     0.00000  0.0
    492    489    490    506   5     0.00000     8.26340     0.00000  0.0
    488    489    492    493   5     0.00000    30.33400     0.00000  0.0
    488    489    492    504   5     0.00000    30.33400     0.00000  0.0
    490    489    492    493   5     0.00000    30.33400     0.00000  0.0
    490    489    492    504   5     0.00000    30.33400     0.00000  0.0
    489    490    506    507   5     5.01662    27.18345     0.00000  0.0
    491    490    506    507   5     0.00000    25.10400     0.00000  0.0
    489    492    493    486   5     0.00000    30.33400     0.00000  0.0
    489    492    493    505   5     0.00000    30.33400     0.00000  0.0
    504    492    493    486   5     0.00000    30.33400     0.00000  0.0
    504    492    493    505   5     0.00000    30.33400     0.00000  0.0
    490    506    507    508   5    -2.16731    -3.93296     0.98324  0.0
    490    506    507    522   5     0.00000     0.00000     0.67362  0.0
    490    506    507    523   5     0.00000     0.00000     0.67362  0.0
    506    507    508    509   5     5.25092    -2.58990     2.28446  0.0
    506    507    508    524   5     0.00000     0.00000     1.95811  0.0
    506    507    508    525   5     0.00000     0.00000     1.95811  0.0
    522    507    508    509   5     0.00000     0.00000     1.25520  0.0
    522    507    508    524   5     0.00000     0.00000     1.25520  0.0
    522    507    508    525   5     0.00000     0.00000     1.25520  0.0
    523    507    508    509   5     0.00000     0.00000     1.25520  0.0
    523    507    508    524   5     0.00000     0.00000     1.25520  0.0
    523    507    508    525   5     0.00000     0.00000     1.25520  0.0
    507    508    509    510   5     4.74884    -0.63178     1.67360  0.0
    507    508    509    526   5     0.00000     0.00000     1.25520  0.0
    507    508    509    527   5     0.00000     0.00000     1.25520  0.0
    524    508    509    510   5     0.00000     0.00000     1.25520  0.0
    524    508    509    526   5     0.00000     0.00000     1.25520  0.0
    524    508    509    527   5     0.00000     0.00000     1.25520  0.0
    525    508    509    510   5     0.00000     0.00000     1.25520  0.0
    525    508    509    526   5     0.00000     0.00000     1.25520  0.0
    525    508    509    527   5     0.00000     0.00000     1.25520  0.0
    508    509    510    511   5     5.25092    -2.58990     2.28446  0.0
    508    509    510    528   5     0.00000     0.00000     1.25520  0.0
    508    509    510    529   5     0.00000     0.00000     1.25520  0.0
    526    509    510    511   5     0.00000     0.00000     1.95811  0.0
    526    509    510    528   5     0.00000     0.00000     1.25520  0.0
    526    509    510    529   5     0.00000     0.00000     1.25520  0.0
    527    509    510    511   5     0.00000     0.00000     1.95811  0.0
    527    509    510    528   5     0.00000     0.00000     1.25520  0.0
    527    509    510    529   5     0.00000     0.00000     1.25520  0.0
    509    510    511    512   5    -2.16731    -3.93296     0.98324  0.0
    528    510    511    512   5     0.00000     0.00000     0.67362  0.0
    529    510    511    512   5     0.00000     0.00000     0.67362  0.0
    510    511    512    513   5     0.00000    25.10400     0.00000  0.0
    510    511    512    514   5     5.01662    27.18345     0.00000  0.0
    511    512    514    515   5     0.00000     8.26340     0.00000  0.0
    511    512    514    521   5     0.00000     8.26340     0.00000  0.0
    513    512    514    515   5     0.00000     8.78640     0.00000  0.0
    513    512    514    521   5     0.00000     8.78640     0.00000  0.0
    512    514    515    516   5     0.00000    30.33400     0.00000  0.0
    512    514    515    530   5     0.00000    30.33400     0.00000  0.0
    521    514    515    516   5     0.00000    30.33400     0.00000  0.0
    521    514    515    530   5     0.00000    30.33400     0.00000  0.0
    512    514    521    520   5     0.00000    30.33400     0.00000  0.0
    512    514    521    533   5     0.00000    30.33400     0.00000  0.0
    515    514    521    520   5     0.00000    30.33400     0.00000  0.0
    515    514    521    533   5     0.00000    30.33400     0.00000  0.0
    514    515    516    517   5     0.00000    30.33400     0.00000  0.0
    514    515    516    531   5     0.00000    30.33400     0.00000  0.0
    530    515    516    517   5     0.00000    30.33400     0.00000  0.0
    530    515    516    531   5     0.00000    30.33400     0.00000  0.0
    515    516    517    518   5     0.00000    30.33400     0.00000  0.0
    515    516    517    520   5     0.00000    30.33400     0.00000  0.0
    531    516    517    518   5     0.00000    30.33400     0.00000  0.0
    531    516    517    520   5     0.00000    30.33400     0.00000  0.0
    516    517    518    519   5     0.00000     8.78640     0.00000  0.0
    516    517    518    534   5     0.00000     8.26340     0.00000  0.0
    520    517    518    519   5     0.00000     8.78640     0.00000  0.0
    520    517    518    534   5     0.00000     8.26340     0.00000  0.0
    516    517    520    521   5     0.00000    30.33400     0.00000  0.0
    516    517    520    532   5     0.00000    30.33400     0.00000  0.0
    518    517    520    521   5     0.00000    30.33400     0.00000  0.0
    518    517    520    532   5     0.00000    30.33400     0.00000  0.0
    517    518    534    535   5     5.01662    27.18345     0.00000  0.0
    519    518    534    535   5     0.00000    25.10400     0.00000  0.0
    517    520    521    514   5     0.00000    30.33400     0.00000  0.0
    517    520    521    533   5     0.00000    30.33400     0.00000  0.0
    532    520    521    514   5     0.00000    30.33400     0.00000  0.0
    532    520    521    533   5     0.00000    30.33400     0.00000  0.0
    518    534    535    536   5    -2.16731    -3.93296     0.98324  0.0
    518    534    535    550   5     0.00000     0.00000     0.67362  0.0
    518    534    535    551   5     0.00000     0.00000     0.67362  0.0
    534    535    536    537   5     5.25092    -2.58990     2.28446  0.0
    534    535    536    552   5     0.00000     0.00000     1.95811  0.0
    534    535    536    553   5     0.00000     0.00000     1.95811  0.0
    550    535    536    537   5     0.00000     0.00000     1.25520  0.0
    550    535    536    552   5     0.00000     0.00000     1.25520  0.0
    550    535    536    553   5     0.00000     0.00000     1.25520  0.0
    551    535    536    537   5     0.00000     0.00000     1.25520  0.0
    551    535    536    552   5     0.00000     0.00000     1.25520  0.0
    551    535    536    553   5     0.00000     0.00000     1.25520  0.0
    535    536    537    538   5     4.74884    -0.63178     1.67360  0.0
    535    536    537    554   5     0.00000     0.00000     1.25520  0.0
    535    536    537    555   5     0.00000     0.00000     1.25520  0.0
    552    536    537    538   5     0.00000     0.00000     1.25520  0.0
    552    536    537    554   5     0.00000     0.00000     1.25520  0.0
    552    536    537    555   5     0.00000     0.00000     1.25520  0.0
    553    536    537    538   5     0.00000     0.00000     1.25520  0.0
    553    536    537    554   5     0.00000     0.00000     1.25520  0.0
    553    536    537    555   5     0.00000     0.00000     1.25520  0.0
    536    537    538    539   5     5.25092    -2.58990     2.28446  0.0
    536    537    538    556   5     0.00000     0.00000     1.25520  0.0
    536    537    538    557   5     0.00000     0.00000     1.25520  0.0
    554    537    538    539   5     0.00000     0.00000     1.95811  0.0
    554    537    538    556   5     0.00000     0.00000     1.25520  0.0
    554    537    538    557   5     0.00000     0.00000     1.25520  0.0
    555    537    538    539   5     0.00000     0.00000     1.95811  0.0
    555    537    538    556   5     0.00000     0.00000     1.25520  0.0
    555    537    538    557   5     0.00000     0.00000     1.25520  0.0
    537    538    539    540   5    -2.16731    -3.93296     0.98324  0.0
    556    538    539    540   5     0.00000     0.00000     0.67362  0.0
    557    538    539    540   5     0.00000     0.00000     0.67362  0.0
    538    539    540    541   5     0.00000    25.10400     0.00000  0.0
    538    539    540    542   5     5.01662    27.18345     0.00000  0.0
    539    540    542    543   5     0.00000     8.26340     0.00000  0.0
    539    540    542    549   5     0.00000     8.26340     0.00000  0.0
    541    540    542    543   5     0.00000     8.78640     0.00000  0.0
    541    540    542    549   5     0.00000     8.78640     0.00000  0.0
    540    542    543    544   5     0.00000    30.33400     0.00000  0.0
    540    542    543    558   5     0.00000    30.33400     0.00000  0.0
    549    542    543    544   5     0.00000    30.33400     0.00000  0.0
    549    542    543    558   5     0.00000    30.33400     0.00000  0.0
    540    542    549    548   5     0.00000    30.33400     0.00000  0.0
    540    542    549    561   5     0.00000    30.33400     0.00000  0.0
    543    542    549    548   5     0.00000    30.33400     0.00000  0.0
    543    542    549    561   5     0.00000    30.33400     0.00000  0.0
    542    543    544    545   5     0.00000    30.33400     0.00000  0.0
    542    543    544    559   5     0.00000    30.33400     0.00000  0.0
    558    543    544    545   5     0.00000    30.33400     0.00000  0.0
    558    543    544    559   5     0.00000    30.33400     0.00000  0.0
    543    544    545    546   5     0.00000    30.33400     0.00000  0.0
    543    544    545    548   5     0.00000    30.33400     0.00000  0.0
    559    544    545    546   5     0.00000    30.33400     0.00000  0.0
    559    544    545    548   5     0.00000    30.33400     0.00000  0.0
    544    545    546    547   5     0.00000     8.78640     0.00000  0.0
    544    545    546    562   5     0.00000     4.73629     0.00000  0.0
    548    545    546    547   5     0.00000     8.78640     0.00000  0.0
    548    545    546    562   5     0.00000     4.73629     0.00000  0.0
    544    545    548    549   5     0.00000    30.33400     0.00000  0.0
    544    545    548    560   5     0.00000    30.33400     0.00000  0.0
    546    545    548    549   5     0.00000    30.33400     0.00000  0.0
    546    545    548    560   5     0.00000    30.33400     0.00000  0.0
    545    548    549    542   5     0.00000    30.33400     0.00000  0.0
    545    548    549    561   5     0.00000    30.33400     0.00000  0.0
    560    548    549    542   5     0.00000    30.33400     0.00000  0.0
    560    548    549    561   5     0.00000    30.33400     0.00000  0.0

[ dihedrals ]
; Improper dihedrals
; h   i   j   k   funct
      6      8      7      9   5     0.00000    87.86400     0.00000  0.0
      7     10      9     16   5     0.00000    33.47200     0.00000  0.0
      9     11     10     25   5     0.00000     9.20480     0.00000  0.0
     10     12     11     26   5     0.00000     9.20480     0.00000  0.0
     11     13     12     15   5     0.00000    33.47200     0.00000  0.0
     12     14     13     30   5     0.00000    87.86400     0.00000  0.0
     12     16     15     27   5     0.00000     9.20480     0.00000  0.0
      9     15     16     28   5     0.00000     9.20480     0.00000  0.0
     35     37     36     38   5     0.00000    87.86400     0.00000  0.0
     36     39     38     45   5     0.00000    33.47200     0.00000  0.0
     38     40     39     54   5     0.00000     9.20480     0.00000  0.0
     39     41     40     55   5     0.00000     9.20480     0.00000  0.0
     40     42     41     44   5     0.00000    33.47200     0.00000  0.0
     41     43     42     58   5     0.00000    87.86400     0.00000  0.0
     41     45     44     56   5     0.00000     9.20480     0.00000  0.0
     38     44     45     57   5     0.00000     9.20480     0.00000  0.0
     63     65     64     66   5     0.00000    87.86400     0.00000  0.0
     64     67     66     73   5     0.00000    33.47200     0.00000  0.0
     66     68     67     82   5     0.00000     9.20480     0.00000  0.0
     67     69     68     83   5     0.00000     9.20480     0.00000  0.0
     68     70     69     72   5     0.00000    33.47200     0.00000  0.0
     69     71     70     86   5     0.00000    87.86400     0.00000  0.0
     69     73     72     84   5     0.00000     9.20480     0.00000  0.0
     66     72     73     85   5     0.00000     9.20480     0.00000  0.0
     91     93     92     94   5     0.00000    87.86400     0.00000  0.0
     92     95     94    101   5     0.00000    33.47200     0.00000  0.0
     94     96     95    110   5     0.00000     9.20480     0.00000  0.0
     95     97     96    111   5     0.00000     9.20480     0.00000  0.0
     96     98     97    100   5     0.00000    33.47200     0.00000  0.0
     97     99     98    114   5     0.00000    87.86400     0.00000  0.0
     97    101    100    112   5     0.00000     9.20480     0.00000  0.0
     94    100    101    113   5     0.00000     9.20480     0.00000  0.0
    119    121    120    122   5     0.00000    87.86400     0.00000  0.0
    120    123    122    129   5     0.00000    33.47200     0.00000  0.0
    122    124    123    138   5     0.00000     9.20480     0.00000  0.0
    123    125    124    139   5     0.00000     9.20480     0.00000  0.0
    124    126    125    128   5     0.00000    33.47200     0.00000  0.0
    125    127    126    142   5     0.00000    87.86400     0.00000  0.0
    125    129    128    140   5     0.00000     9.20480     0.00000  0.0
    122    128    129    141   5     0.00000     9.20480     0.00000  0.0
    147    149    148    150   5     0.00000    87.86400     0.00000  0.0
    148    151    150    157   5     0.00000    33.47200     0.00000  0.0
    150    152    151    166   5     0.00000     9.20480     0.00000  0.0
    151    153    152    167   5     0.00000     9.20480     0.00000  0.0
    152    154    153    156   5     0.00000    33.47200     0.00000  0.0
    153    155    154    170   5     0.00000    87.86400     0.00000  0.0
    153    157    156    168   5     0.00000     9.20480     0.00000  0.0
    150    156    157    169   5     0.00000     9.20480     0.00000  0.0
    175    177    176    178   5     0.00000    87.86400     0.00000  0.0
    176    179    178    185   5     0.00000    33.47200     0.00000  0.0
    178    180    179    194   5     0.00000     9.20480     0.00000  0.0
    179    181    180    195   5     0.00000     9.20480     0.00000  0.0
    180    182    181    184   5     0.00000    33.47200     0.00000  0.0
    181    183    182    198   5     0.00000    87.86400     0.00000  0.0
    181    185    184    196   5     0.00000     9.20480     0.00000  0.0
    178    184    185    197   5     0.00000     9.20480     0.00000  0.0
    203    205    204    206   5     0.00000    87.86400     0.00000  0.0
    204    207    206    213   5     0.00000    33.47200     0.00000  0.0
    206    208    207    222   5     0.00000     9.20480     0.00000  0.0
    207    209    208    223   5     0.00000     9.20480     0.00000  0.0
    208    210    209    212   5     0.00000    33.47200     0.00000  0.0
    209    211    210    226   5     0.00000    87.86400     0.00000  0.0
    209    213    212    224   5     0.00000     9.20480     0.00000  0.0
    206    212    213    225   5     0.00000     9.20480     0.00000  0.0
    231    233    232    234   5     0.00000    87.86400     0.00000  0.0
    232    235    234    241   5     0.00000    33.47200     0.00000  0.0
    234    236    235    250   5     0.00000     9.20480     0.00000  0.0
    235    237    236    251   5     0.00000     9.20480     0.00000  0.0
    236    238    237    240   5     0.00000    33.47200     0.00000  0.0
    237    239    238    254   5     0.00000    87.86400     0.00000  0.0
    237    241    240    252   5     0.00000     9.20480     0.00000  0.0
    234    240    241    253   5     0.00000     9.20480     0.00000  0.0
    259    261    260    262   5     0.00000    87.86400     0.00000  0.0
    260    263    262    269   5     0.00000    33.47200     0.00000  0.0
    262    264    263    278   5     0.00000     9.20480     0.00000  0.0
    263    265    264    279   5     0.00000     9.20480     0.00000  0.0
    264    266    265    268   5     0.00000    33.47200     0.00000  0.0
    265    267    266    282   5     0.00000    87.86400     0.00000  0.0
    265    269    268    280   5     0.00000     9.20480     0.00000  0.0
    262    268    269    281   5     0.00000     9.20480     0.00000  0.0
    287    289    288    290   5     0.00000    87.86400     0.00000  0.0
    288    291    290    297   5     0.00000    33.47200     0.00000  0.0
    290    292    291    306   5     0.00000     9.20480     0.00000  0.0
    291    293    292    307   5     0.00000     9.20480     0.00000  0.0
    292    294    293    296   5     0.00000    33.47200     0.00000  0.0
    293    295    294    310   5     0.00000    87.86400     0.00000  0.0
    293    297    296    308   5     0.00000     9.20480     0.00000  0.0
    290    296    297    309   5     0.00000     9.20480     0.00000  0.0
    315    317    316    318   5     0.00000    87.86400     0.00000  0.0
    316    319    318    325   5     0.00000    33.47200     0.00000  0.0
    318    320    319    334   5     0.00000     9.20480     0.00000  0.0
    319    321    320    335   5     0.00000     9.20480     0.00000  0.0
    320    322    321    324   5     0.00000    33.47200     0.00000  0.0
    321    323    322    338   5     0.00000    87.86400     0.00000  0.0
    321    325    324    336   5     0.00000     9.20480     0.00000  0.0
    318    324    325    337   5     0.00000     9.20480     0.00000  0.0
    343    345    344    346   5     0.00000    87.86400     0.00000  0.0
    344    347    346    353   5     0.00000    33.47200     0.00000  0.0
    346    348    347    362   5     0.00000     9.20480     0.00000  0.0
    347    349    348    363   5     0.00000     9.20480     0.00000  0.0
    348    350    349    352   5     0.00000    33.47200     0.00000  0.0
    349    351    350    366   5     0.00000    87.86400     0.00000  0.0
    349    353    352    364   5     0.00000     9.20480     0.00000  0.0
    346    352    353    365   5     0.00000     9.20480     0.00000  0.0
    371    373    372    374   5     0.00000    87.86400     0.00000  0.0
    372    375    374    381   5     0.00000    33.47200     0.00000  0.0
    374    376    375    390   5     0.00000     9.20480     0.00000  0.0
    375    377    376    391   5     0.00000     9.20480     0.00000  0.0
    376    378    377    380   5     0.00000    33.47200     0.00000  0.0
    377    379    378    394   5     0.00000    87.86400     0.00000  0.0
    377    381    380    392   5     0.00000     9.20480     0.00000  0.0
    374    380    381    393   5     0.00000     9.20480     0.00000  0.0
    399    401    400    402   5     0.00000    87.86400     0.00000  0.0
    400    403    402    409   5     0.00000    33.47200     0.00000  0.0
    402    404    403    418   5     0.00000     9.20480     0.00000  0.0
    403    405    404    419   5     0.00000     9.20480     0.00000  0.0
    404    406    405    408   5     0.00000    33.47200     0.00000  0.0
    405    407    406    422   5     0.00000    87.86400     0.00000  0.0
    405    409    408    420   5     0.00000     9.20480     0.00000  0.0
    402    408    409    421   5     0.00000     9.20480     0.00000  0.0
    427    429    428    430   5     0.00000    87.86400     0.00000  0.0
    428    431    430    437   5     0.00000    33.47200     0.00000  0.0
    430    432    431    446   5     0.00000     9.20480     0.00000  0.0
    431    433    432    447   5     0.00000     9.20480     0.00000  0.0
    432    434    433    436   5     0.00000    33.47200     0.00000  0.0
    433    435    434    450   5     0.00000    87.86400     0.00000  0.0
    433    437    436    448   5     0.00000     9.20480     0.00000  0.0
    430    436    437    449   5     0.00000     9.20480     0.00000  0.0
    455    457    456    458   5     0.00000    87.86400     0.00000  0.0
    456    459    458    465   5     0.00000    33.47200     0.00000  0.0
    458    460    459    474   5     0.00000     9.20480     0.00000  0.0
    459    461    460    475   5     0.00000     9.20480     0.00000  0.0
    460    462    461    464   5     0.00000    33.47200     0.00000  0.0
    461    463    462    478   5     0.00000    87.86400     0.00000  0.0
    461    465    464    476   5     0.00000     9.20480     0.00000  0.0
    458    464    465    477   5     0.00000     9.20480     0.00000  0.0
    483    485    484    486   5     0.00000    87.86400     0.00000  0.0
    484    487    486    493   5     0.00000    33.47200     0.00000  0.0
    486    488    487    502   5     0.00000     9.20480     0.00000  0.0
    487    489    488    503   5     0.00000     9.20480     0.00000  0.0
    488    490    489    492   5     0.00000    33.47200     0.00000  0.0
    489    491    490    506   5     0.00000    87.86400     0.00000  0.0
    489    493    492    504   5     0.00000     9.20480     0.00000  0.0
    486    492    493    505   5     0.00000     9.20480     0.00000  0.0
    511    513    512    514   5     0.00000    87.86400     0.00000  0.0
    512    515    514    521   5     0.00000    33.47200     0.00000  0.0
    514    516    515    530   5     0.00000     9.20480     0.00000  0.0
    515    517    516    531   5     0.00000     9.20480     0.00000  0.0
    516    518    517    520   5     0.00000    33.47200     0.00000  0.0
    517    519    518    534   5     0.00000    87.86400     0.00000  0.0
    517    521    520    532   5     0.00000     9.20480     0.00000  0.0
    514    520    521    533   5     0.00000     9.20480     0.00000  0.0
    539    541    540    542   5     0.00000    87.86400     0.00000  0.0
    540    543    542    549   5     0.00000    33.47200     0.00000  0.0
    542    544    543    558   5     0.00000     9.20480     0.00000  0.0
    543    545    544    559   5     0.00000     9.20480     0.00000  0.0
    544    546    545    548   5     0.00000    33.47200     0.00000  0.0
    545    547    546    562   5     0.00000    87.86400     0.00000  0.0
    545    549    548    560   5     0.00000     9.20480     0.00000  0.0
    542    548    549    561   5     0.00000     9.20480     0.00000  0.0
