;
; Gromacs include topology (itp) file.
; For Molecular Group XYZ
; Force field scheme: opls2005
; Produced from DL_FIELD v4.11
;


[ moleculetype ]
; name    nrexcl
XYZ    3

[ atoms ]
; nr   type   resnr   residu    atom    cgnr    charge    mass
    1        CT    1  MOL      C1     1  -0.1800000   12.0115
    2        CT    1  MOL      C2     2  -0.0600000   12.0115
    3         C    1  MOL      C3     3   0.5000000   12.0115
    4         O    1  MOL      O4     4  -0.5000000   15.9994
    5         N    1  MOL      N5     5  -0.5000000   14.0067
    6        CT    1  MOL      C6     6   0.1400000   12.0115
    7        CT    1  MOL      C7     7  -0.1800000   12.0115
    8        CT    1  MOL      C8     8  -0.1800000   12.0115
    9        HC    1  MOL      H9     9   0.0600000    1.0080
   10        HC    1  MOL     H10    10   0.0600000    1.0080
   11        HC    1  MOL     H11    11   0.0600000    1.0080
   12         H    1  MOL     H12    12   0.3000000    1.0080
   13        HC    1  MOL     H13    13   0.0600000    1.0080
   14        HC    1  MOL     H14    14   0.0600000    1.0080
   15        HC    1  MOL     H15    15   0.0600000    1.0080
   16        HC    1  MOL     H16    16   0.0600000    1.0080
   17        HC    1  MOL     H17    17   0.0600000    1.0080
   18        HC    1  MOL     H18    18   0.0600000    1.0080
   19        HC    1  MOL     H19    19   0.0600000    1.0080
   20        HC    1  MOL     H20    20   0.0600000    1.0080
   21        CT    1  MOL     C21    21  -0.1200000   12.0115
   22        CT    1  MOL     C22    22  -0.0600000   12.0115
   23         C    1  MOL     C23    23   0.5000000   12.0115
   24         O    1  MOL     O24    24  -0.5000000   15.9994
   25         N    1  MOL     N25    25  -0.5000000   14.0067
   26        CT    1  MOL     C26    26   0.1400000   12.0115
   27        CT    1  MOL     C27    27  -0.1800000   12.0115
   28        CT    1  MOL     C28    28  -0.1800000   12.0115
   29        HC    1  MOL     H29    29   0.0600000    1.0080
   30        HC    1  MOL     H30    30   0.0600000    1.0080
   31        HC    1  MOL     H31    31   0.0600000    1.0080
   32         H    1  MOL     H32    32   0.3000000    1.0080
   33        HC    1  MOL     H33    33   0.0600000    1.0080
   34        HC    1  MOL     H34    34   0.0600000    1.0080
   35        HC    1  MOL     H35    35   0.0600000    1.0080
   36        HC    1  MOL     H36    36   0.0600000    1.0080
   37        HC    1  MOL     H37    37   0.0600000    1.0080
   38        HC    1  MOL     H38    38   0.0600000    1.0080
   39        HC    1  MOL     H39    39   0.0600000    1.0080
   40        CT    1  MOL     C40    40  -0.1200000   12.0115
   41        CT    1  MOL     C41    41  -0.0600000   12.0115
   42         C    1  MOL     C42    42   0.5000000   12.0115
   43         O    1  MOL     O43    43  -0.5000000   15.9994
   44         N    1  MOL     N44    44  -0.5000000   14.0067
   45        CT    1  MOL     C45    45   0.1400000   12.0115
   46        CT    1  MOL     C46    46  -0.1800000   12.0115
   47        CT    1  MOL     C47    47  -0.1800000   12.0115
   48        HC    1  MOL     H48    48   0.0600000    1.0080
   49        HC    1  MOL     H49    49   0.0600000    1.0080
   50        HC    1  MOL     H50    50   0.0600000    1.0080
   51         H    1  MOL     H51    51   0.3000000    1.0080
   52        HC    1  MOL     H52    52   0.0600000    1.0080
   53        HC    1  MOL     H53    53   0.0600000    1.0080
   54        HC    1  MOL     H54    54   0.0600000    1.0080
   55        HC    1  MOL     H55    55   0.0600000    1.0080
   56        HC    1  MOL     H56    56   0.0600000    1.0080
   57        HC    1  MOL     H57    57   0.0600000    1.0080
   58        HC    1  MOL     H58    58   0.0600000    1.0080
   59        CT    1  MOL     C59    59  -0.1200000   12.0115
   60        CT    1  MOL     C60    60  -0.0600000   12.0115
   61         C    1  MOL     C61    61   0.5000000   12.0115
   62         O    1  MOL     O62    62  -0.5000000   15.9994
   63         N    1  MOL     N63    63  -0.5000000   14.0067
   64        CT    1  MOL     C64    64   0.1400000   12.0115
   65        CT    1  MOL     C65    65  -0.1800000   12.0115
   66        CT    1  MOL     C66    66  -0.1800000   12.0115
   67        HC    1  MOL     H67    67   0.0600000    1.0080
   68        HC    1  MOL     H68    68   0.0600000    1.0080
   69        HC    1  MOL     H69    69   0.0600000    1.0080
   70         H    1  MOL     H70    70   0.3000000    1.0080
   71        HC    1  MOL     H71    71   0.0600000    1.0080
   72        HC    1  MOL     H72    72   0.0600000    1.0080
   73        HC    1  MOL     H73    73   0.0600000    1.0080
   74        HC    1  MOL     H74    74   0.0600000    1.0080
   75        HC    1  MOL     H75    75   0.0600000    1.0080
   76        HC    1  MOL     H76    76   0.0600000    1.0080
   77        HC    1  MOL     H77    77   0.0600000    1.0080
   78        CT    1  MOL     C78    78  -0.1200000   12.0115
   79        CT    1  MOL     C79    79  -0.0600000   12.0115
   80         C    1  MOL     C80    80   0.5000000   12.0115
   81         O    1  MOL     O81    81  -0.5000000   15.9994
   82         N    1  MOL     N82    82  -0.5000000   14.0067
   83        CT    1  MOL     C83    83   0.1400000   12.0115
   84        CT    1  MOL     C84    84  -0.1800000   12.0115
   85        CT    1  MOL     C85    85  -0.1800000   12.0115
   86        HC    1  MOL     H86    86   0.0600000    1.0080
   87        HC    1  MOL     H87    87   0.0600000    1.0080
   88        HC    1  MOL     H88    88   0.0600000    1.0080
   89         H    1  MOL     H89    89   0.3000000    1.0080
   90        HC    1  MOL     H90    90   0.0600000    1.0080
   91        HC    1  MOL     H91    91   0.0600000    1.0080
   92        HC    1  MOL     H92    92   0.0600000    1.0080
   93        HC    1  MOL     H93    93   0.0600000    1.0080
   94        HC    1  MOL     H94    94   0.0600000    1.0080
   95        HC    1  MOL     H95    95   0.0600000    1.0080
   96        HC    1  MOL     H96    96   0.0600000    1.0080
   97        CT    1  MOL     C97    97  -0.1200000   12.0115
   98        CT    1  MOL     C98    98  -0.0600000   12.0115
   99         C    1  MOL     C99    99   0.5000000   12.0115
  100         O    1  MOL    O100   100  -0.5000000   15.9994
  101         N    1  MOL    N101   101  -0.5000000   14.0067
  102        CT    1  MOL    C102   102   0.1400000   12.0115
  103        CT    1  MOL    C103   103  -0.1800000   12.0115
  104        CT    1  MOL    C104   104  -0.1800000   12.0115
  105        HC    1  MOL    H105   105   0.0600000    1.0080
  106        HC    1  MOL    H106   106   0.0600000    1.0080
  107        HC    1  MOL    H107   107   0.0600000    1.0080
  108         H    1  MOL    H108   108   0.3000000    1.0080
  109        HC    1  MOL    H109   109   0.0600000    1.0080
  110        HC    1  MOL    H110   110   0.0600000    1.0080
  111        HC    1  MOL    H111   111   0.0600000    1.0080
  112        HC    1  MOL    H112   112   0.0600000    1.0080
  113        HC    1  MOL    H113   113   0.0600000    1.0080
  114        HC    1  MOL    H114   114   0.0600000    1.0080
  115        HC    1  MOL    H115   115   0.0600000    1.0080
  116        CT    1  MOL    C116   116  -0.1200000   12.0115
  117        CT    1  MOL    C117   117  -0.0600000   12.0115
  118         C    1  MOL    C118   118   0.5000000   12.0115
  119         O    1  MOL    O119   119  -0.5000000   15.9994
  120         N    1  MOL    N120   120  -0.5000000   14.0067
  121        CT    1  MOL    C121   121   0.1400000   12.0115
  122        CT    1  MOL    C122   122  -0.1800000   12.0115
  123        CT    1  MOL    C123   123  -0.1800000   12.0115
  124        HC    1  MOL    H124   124   0.0600000    1.0080
  125        HC    1  MOL    H125   125   0.0600000    1.0080
  126        HC    1  MOL    H126   126   0.0600000    1.0080
  127         H    1  MOL    H127   127   0.3000000    1.0080
  128        HC    1  MOL    H128   128   0.0600000    1.0080
  129        HC    1  MOL    H129   129   0.0600000    1.0080
  130        HC    1  MOL    H130   130   0.0600000    1.0080
  131        HC    1  MOL    H131   131   0.0600000    1.0080
  132        HC    1  MOL    H132   132   0.0600000    1.0080
  133        HC    1  MOL    H133   133   0.0600000    1.0080
  134        HC    1  MOL    H134   134   0.0600000    1.0080
  135        CT    1  MOL    C135   135  -0.1200000   12.0115
  136        CT    1  MOL    C136   136  -0.0600000   12.0115
  137         C    1  MOL    C137   137   0.5000000   12.0115
  138         O    1  MOL    O138   138  -0.5000000   15.9994
  139         N    1  MOL    N139   139  -0.5000000   14.0067
  140        CT    1  MOL    C140   140   0.1400000   12.0115
  141        CT    1  MOL    C141   141  -0.1800000   12.0115
  142        CT    1  MOL    C142   142  -0.1800000   12.0115
  143        HC    1  MOL    H143   143   0.0600000    1.0080
  144        HC    1  MOL    H144   144   0.0600000    1.0080
  145        HC    1  MOL    H145   145   0.0600000    1.0080
  146         H    1  MOL    H146   146   0.3000000    1.0080
  147        HC    1  MOL    H147   147   0.0600000    1.0080
  148        HC    1  MOL    H148   148   0.0600000    1.0080
  149        HC    1  MOL    H149   149   0.0600000    1.0080
  150        HC    1  MOL    H150   150   0.0600000    1.0080
  151        HC    1  MOL    H151   151   0.0600000    1.0080
  152        HC    1  MOL    H152   152   0.0600000    1.0080
  153        HC    1  MOL    H153   153   0.0600000    1.0080
  154        CT    1  MOL    C154   154  -0.1200000   12.0115
  155        CT    1  MOL    C155   155  -0.0600000   12.0115
  156         C    1  MOL    C156   156   0.5000000   12.0115
  157         O    1  MOL    O157   157  -0.5000000   15.9994
  158         N    1  MOL    N158   158  -0.5000000   14.0067
  159        CT    1  MOL    C159   159   0.1400000   12.0115
  160        CT    1  MOL    C160   160  -0.1800000   12.0115
  161        CT    1  MOL    C161   161  -0.1800000   12.0115
  162        HC    1  MOL    H162   162   0.0600000    1.0080
  163        HC    1  MOL    H163   163   0.0600000    1.0080
  164        HC    1  MOL    H164   164   0.0600000    1.0080
  165         H    1  MOL    H165   165   0.3000000    1.0080
  166        HC    1  MOL    H166   166   0.0600000    1.0080
  167        HC    1  MOL    H167   167   0.0600000    1.0080
  168        HC    1  MOL    H168   168   0.0600000    1.0080
  169        HC    1  MOL    H169   169   0.0600000    1.0080
  170        HC    1  MOL    H170   170   0.0600000    1.0080
  171        HC    1  MOL    H171   171   0.0600000    1.0080
  172        HC    1  MOL    H172   172   0.0600000    1.0080
  173        CT    1  MOL    C173   173  -0.1200000   12.0115
  174        CT    1  MOL    C174   174  -0.0600000   12.0115
  175         C    1  MOL    C175   175   0.5000000   12.0115
  176         O    1  MOL    O176   176  -0.5000000   15.9994
  177         N    1  MOL    N177   177  -0.5000000   14.0067
  178        CT    1  MOL    C178   178   0.1400000   12.0115
  179        CT    1  MOL    C179   179  -0.1800000   12.0115
  180        CT    1  MOL    C180   180  -0.1800000   12.0115
  181        HC    1  MOL    H181   181   0.0600000    1.0080
  182        HC    1  MOL    H182   182   0.0600000    1.0080
  183        HC    1  MOL    H183   183   0.0600000    1.0080
  184         H    1  MOL    H184   184   0.3000000    1.0080
  185        HC    1  MOL    H185   185   0.0600000    1.0080
  186        HC    1  MOL    H186   186   0.0600000    1.0080
  187        HC    1  MOL    H187   187   0.0600000    1.0080
  188        HC    1  MOL    H188   188   0.0600000    1.0080
  189        HC    1  MOL    H189   189   0.0600000    1.0080
  190        HC    1  MOL    H190   190   0.0600000    1.0080
  191        HC    1  MOL    H191   191   0.0600000    1.0080
  192        CT    1  MOL    C192   192  -0.1200000   12.0115
  193        CT    1  MOL    C193   193  -0.0600000   12.0115
  194         C    1  MOL    C194   194   0.5000000   12.0115
  195         O    1  MOL    O195   195  -0.5000000   15.9994
  196         N    1  MOL    N196   196  -0.5000000   14.0067
  197        CT    1  MOL    C197   197   0.1400000   12.0115
  198        CT    1  MOL    C198   198  -0.1800000   12.0115
  199        CT    1  MOL    C199   199  -0.1800000   12.0115
  200        HC    1  MOL    H200   200   0.0600000    1.0080
  201        HC    1  MOL    H201   201   0.0600000    1.0080
  202        HC    1  MOL    H202   202   0.0600000    1.0080
  203         H    1  MOL    H203   203   0.3000000    1.0080
  204        HC    1  MOL    H204   204   0.0600000    1.0080
  205        HC    1  MOL    H205   205   0.0600000    1.0080
  206        HC    1  MOL    H206   206   0.0600000    1.0080
  207        HC    1  MOL    H207   207   0.0600000    1.0080
  208        HC    1  MOL    H208   208   0.0600000    1.0080
  209        HC    1  MOL    H209   209   0.0600000    1.0080
  210        HC    1  MOL    H210   210   0.0600000    1.0080
  211        CT    1  MOL    C211   211  -0.1200000   12.0115
  212        CT    1  MOL    C212   212  -0.0600000   12.0115
  213         C    1  MOL    C213   213   0.5000000   12.0115
  214         O    1  MOL    O214   214  -0.5000000   15.9994
  215         N    1  MOL    N215   215  -0.5000000   14.0067
  216        CT    1  MOL    C216   216   0.1400000   12.0115
  217        CT    1  MOL    C217   217  -0.1800000   12.0115
  218        CT    1  MOL    C218   218  -0.1800000   12.0115
  219        HC    1  MOL    H219   219   0.0600000    1.0080
  220        HC    1  MOL    H220   220   0.0600000    1.0080
  221        HC    1  MOL    H221   221   0.0600000    1.0080
  222         H    1  MOL    H222   222   0.3000000    1.0080
  223        HC    1  MOL    H223   223   0.0600000    1.0080
  224        HC    1  MOL    H224   224   0.0600000    1.0080
  225        HC    1  MOL    H225   225   0.0600000    1.0080
  226        HC    1  MOL    H226   226   0.0600000    1.0080
  227        HC    1  MOL    H227   227   0.0600000    1.0080
  228        HC    1  MOL    H228   228   0.0600000    1.0080
  229        HC    1  MOL    H229   229   0.0600000    1.0080
  230        CT    1  MOL    C230   230  -0.1200000   12.0115
  231        CT    1  MOL    C231   231  -0.0600000   12.0115
  232         C    1  MOL    C232   232   0.5000000   12.0115
  233         O    1  MOL    O233   233  -0.5000000   15.9994
  234         N    1  MOL    N234   234  -0.5000000   14.0067
  235        CT    1  MOL    C235   235   0.1400000   12.0115
  236        CT    1  MOL    C236   236  -0.1800000   12.0115
  237        CT    1  MOL    C237   237  -0.1800000   12.0115
  238        HC    1  MOL    H238   238   0.0600000    1.0080
  239        HC    1  MOL    H239   239   0.0600000    1.0080
  240        HC    1  MOL    H240   240   0.0600000    1.0080
  241         H    1  MOL    H241   241   0.3000000    1.0080
  242        HC    1  MOL    H242   242   0.0600000    1.0080
  243        HC    1  MOL    H243   243   0.0600000    1.0080
  244        HC    1  MOL    H244   244   0.0600000    1.0080
  245        HC    1  MOL    H245   245   0.0600000    1.0080
  246        HC    1  MOL    H246   246   0.0600000    1.0080
  247        HC    1  MOL    H247   247   0.0600000    1.0080
  248        HC    1  MOL    H248   248   0.0600000    1.0080
  249        CT    1  MOL    C249   249  -0.1200000   12.0115
  250        CT    1  MOL    C250   250  -0.0600000   12.0115
  251         C    1  MOL    C251   251   0.5000000   12.0115
  252         O    1  MOL    O252   252  -0.5000000   15.9994
  253         N    1  MOL    N253   253  -0.5000000   14.0067
  254        CT    1  MOL    C254   254   0.1400000   12.0115
  255        CT    1  MOL    C255   255  -0.1800000   12.0115
  256        CT    1  MOL    C256   256  -0.1800000   12.0115
  257        HC    1  MOL    H257   257   0.0600000    1.0080
  258        HC    1  MOL    H258   258   0.0600000    1.0080
  259        HC    1  MOL    H259   259   0.0600000    1.0080
  260         H    1  MOL    H260   260   0.3000000    1.0080
  261        HC    1  MOL    H261   261   0.0600000    1.0080
  262        HC    1  MOL    H262   262   0.0600000    1.0080
  263        HC    1  MOL    H263   263   0.0600000    1.0080
  264        HC    1  MOL    H264   264   0.0600000    1.0080
  265        HC    1  MOL    H265   265   0.0600000    1.0080
  266        HC    1  MOL    H266   266   0.0600000    1.0080
  267        HC    1  MOL    H267   267   0.0600000    1.0080
  268        CT    1  MOL    C268   268  -0.1200000   12.0115
  269        CT    1  MOL    C269   269  -0.0600000   12.0115
  270         C    1  MOL    C270   270   0.5000000   12.0115
  271         O    1  MOL    O271   271  -0.5000000   15.9994
  272         N    1  MOL    N272   272  -0.5000000   14.0067
  273        CT    1  MOL    C273   273   0.1400000   12.0115
  274        CT    1  MOL    C274   274  -0.1800000   12.0115
  275        CT    1  MOL    C275   275  -0.1800000   12.0115
  276        HC    1  MOL    H276   276   0.0600000    1.0080
  277        HC    1  MOL    H277   277   0.0600000    1.0080
  278        HC    1  MOL    H278   278   0.0600000    1.0080
  279         H    1  MOL    H279   279   0.3000000    1.0080
  280        HC    1  MOL    H280   280   0.0600000    1.0080
  281        HC    1  MOL    H281   281   0.0600000    1.0080
  282        HC    1  MOL    H282   282   0.0600000    1.0080
  283        HC    1  MOL    H283   283   0.0600000    1.0080
  284        HC    1  MOL    H284   284   0.0600000    1.0080
  285        HC    1  MOL    H285   285   0.0600000    1.0080
  286        HC    1  MOL    H286   286   0.0600000    1.0080
  287        CT    1  MOL    C287   287  -0.1200000   12.0115
  288        CT    1  MOL    C288   288  -0.0600000   12.0115
  289         C    1  MOL    C289   289   0.5000000   12.0115
  290         O    1  MOL    O290   290  -0.5000000   15.9994
  291         N    1  MOL    N291   291  -0.5000000   14.0067
  292        CT    1  MOL    C292   292   0.1400000   12.0115
  293        CT    1  MOL    C293   293  -0.1800000   12.0115
  294        CT    1  MOL    C294   294  -0.1800000   12.0115
  295        HC    1  MOL    H295   295   0.0600000    1.0080
  296        HC    1  MOL    H296   296   0.0600000    1.0080
  297        HC    1  MOL    H297   297   0.0600000    1.0080
  298         H    1  MOL    H298   298   0.3000000    1.0080
  299        HC    1  MOL    H299   299   0.0600000    1.0080
  300        HC    1  MOL    H300   300   0.0600000    1.0080
  301        HC    1  MOL    H301   301   0.0600000    1.0080
  302        HC    1  MOL    H302   302   0.0600000    1.0080
  303        HC    1  MOL    H303   303   0.0600000    1.0080
  304        HC    1  MOL    H304   304   0.0600000    1.0080
  305        HC    1  MOL    H305   305   0.0600000    1.0080
  306        CT    1  MOL    C306   306  -0.1200000   12.0115
  307        CT    1  MOL    C307   307  -0.0600000   12.0115
  308         C    1  MOL    C308   308   0.5000000   12.0115
  309         O    1  MOL    O309   309  -0.5000000   15.9994
  310         N    1  MOL    N310   310  -0.5000000   14.0067
  311        CT    1  MOL    C311   311   0.1400000   12.0115
  312        CT    1  MOL    C312   312  -0.1800000   12.0115
  313        CT    1  MOL    C313   313  -0.1800000   12.0115
  314        HC    1  MOL    H314   314   0.0600000    1.0080
  315        HC    1  MOL    H315   315   0.0600000    1.0080
  316        HC    1  MOL    H316   316   0.0600000    1.0080
  317         H    1  MOL    H317   317   0.3000000    1.0080
  318        HC    1  MOL    H318   318   0.0600000    1.0080
  319        HC    1  MOL    H319   319   0.0600000    1.0080
  320        HC    1  MOL    H320   320   0.0600000    1.0080
  321        HC    1  MOL    H321   321   0.0600000    1.0080
  322        HC    1  MOL    H322   322   0.0600000    1.0080
  323        HC    1  MOL    H323   323   0.0600000    1.0080
  324        HC    1  MOL    H324   324   0.0600000    1.0080
  325        CT    1  MOL    C325   325  -0.1200000   12.0115
  326        CT    1  MOL    C326   326  -0.0600000   12.0115
  327         C    1  MOL    C327   327   0.5000000   12.0115
  328         O    1  MOL    O328   328  -0.5000000   15.9994
  329         N    1  MOL    N329   329  -0.5000000   14.0067
  330        CT    1  MOL    C330   330   0.1400000   12.0115
  331        CT    1  MOL    C331   331  -0.1800000   12.0115
  332        CT    1  MOL    C332   332  -0.1800000   12.0115
  333        HC    1  MOL    H333   333   0.0600000    1.0080
  334        HC    1  MOL    H334   334   0.0600000    1.0080
  335        HC    1  MOL    H335   335   0.0600000    1.0080
  336         H    1  MOL    H336   336   0.3000000    1.0080
  337        HC    1  MOL    H337   337   0.0600000    1.0080
  338        HC    1  MOL    H338   338   0.0600000    1.0080
  339        HC    1  MOL    H339   339   0.0600000    1.0080
  340        HC    1  MOL    H340   340   0.0600000    1.0080
  341        HC    1  MOL    H341   341   0.0600000    1.0080
  342        HC    1  MOL    H342   342   0.0600000    1.0080
  343        HC    1  MOL    H343   343   0.0600000    1.0080
  344        CT    1  MOL    C344   344  -0.1200000   12.0115
  345        CT    1  MOL    C345   345  -0.0600000   12.0115
  346         C    1  MOL    C346   346   0.5000000   12.0115
  347         O    1  MOL    O347   347  -0.5000000   15.9994
  348         N    1  MOL    N348   348  -0.5000000   14.0067
  349        CT    1  MOL    C349   349   0.1400000   12.0115
  350        CT    1  MOL    C350   350  -0.1800000   12.0115
  351        CT    1  MOL    C351   351  -0.1800000   12.0115
  352        HC    1  MOL    H352   352   0.0600000    1.0080
  353        HC    1  MOL    H353   353   0.0600000    1.0080
  354        HC    1  MOL    H354   354   0.0600000    1.0080
  355         H    1  MOL    H355   355   0.3000000    1.0080
  356        HC    1  MOL    H356   356   0.0600000    1.0080
  357        HC    1  MOL    H357   357   0.0600000    1.0080
  358        HC    1  MOL    H358   358   0.0600000    1.0080
  359        HC    1  MOL    H359   359   0.0600000    1.0080
  360        HC    1  MOL    H360   360   0.0600000    1.0080
  361        HC    1  MOL    H361   361   0.0600000    1.0080
  362        HC    1  MOL    H362   362   0.0600000    1.0080
  363        CT    1  MOL    C363   363  -0.1200000   12.0115
  364        CT    1  MOL    C364   364  -0.1200000   12.0115
  365         C    1  MOL    C365   365   0.5000000   12.0115
  366         O    1  MOL    O366   366  -0.5000000   15.9994
  367         N    1  MOL    N367   367  -0.5000000   14.0067
  368        CT    1  MOL    C368   368   0.1400000   12.0115
  369        CT    1  MOL    C369   369  -0.1800000   12.0115
  370        CT    1  MOL    C370   370  -0.1800000   12.0115
  371        HC    1  MOL    H371   371   0.0600000    1.0080
  372        HC    1  MOL    H372   372   0.0600000    1.0080
  373        HC    1  MOL    H373   373   0.0600000    1.0080
  374         H    1  MOL    H374   374   0.3000000    1.0080
  375        HC    1  MOL    H375   375   0.0600000    1.0080
  376        HC    1  MOL    H376   376   0.0600000    1.0080
  377        HC    1  MOL    H377   377   0.0600000    1.0080
  378        HC    1  MOL    H378   378   0.0600000    1.0080
  379        HC    1  MOL    H379   379   0.0600000    1.0080
  380        HC    1  MOL    H380   380   0.0600000    1.0080
  381        HC    1  MOL    H381   381   0.0600000    1.0080
  382        HC    1  MOL    H382   382   0.0600000    1.0080

[ bonds ]
      1      2   1      0.1529 224262.4000
      1      9   1      0.1090 284512.0000
      1     10   1      0.1090 284512.0000
      1     20   1      0.1090 284512.0000
      2      3   1      0.1522 265265.6000
      2     11   1      0.1090 284512.0000
      2     21   1      0.1529 224262.4000
      3      4   1      0.1229 476976.0000
      3      5   1      0.1335 410032.0000
      5      6   1      0.1449 282001.6000
      5     12   1      0.1010 363171.2000
      6      7   1      0.1529 224262.4000
      6      8   1      0.1529 224262.4000
      6     13   1      0.1090 284512.0000
      7     14   1      0.1090 284512.0000
      7     15   1      0.1090 284512.0000
      7     16   1      0.1090 284512.0000
      8     17   1      0.1090 284512.0000
      8     18   1      0.1090 284512.0000
      8     19   1      0.1090 284512.0000
     21     22   1      0.1529 224262.4000
     21     29   1      0.1090 284512.0000
     21     30   1      0.1090 284512.0000
     22     23   1      0.1522 265265.6000
     22     31   1      0.1090 284512.0000
     22     40   1      0.1529 224262.4000
     23     24   1      0.1229 476976.0000
     23     25   1      0.1335 410032.0000
     25     26   1      0.1449 282001.6000
     25     32   1      0.1010 363171.2000
     26     27   1      0.1529 224262.4000
     26     28   1      0.1529 224262.4000
     26     33   1      0.1090 284512.0000
     27     34   1      0.1090 284512.0000
     27     35   1      0.1090 284512.0000
     27     36   1      0.1090 284512.0000
     28     37   1      0.1090 284512.0000
     28     38   1      0.1090 284512.0000
     28     39   1      0.1090 284512.0000
     40     41   1      0.1529 224262.4000
     40     48   1      0.1090 284512.0000
     40     49   1      0.1090 284512.0000
     41     42   1      0.1522 265265.6000
     41     50   1      0.1090 284512.0000
     41     59   1      0.1529 224262.4000
     42     43   1      0.1229 476976.0000
     42     44   1      0.1335 410032.0000
     44     45   1      0.1449 282001.6000
     44     51   1      0.1010 363171.2000
     45     46   1      0.1529 224262.4000
     45     47   1      0.1529 224262.4000
     45     52   1      0.1090 284512.0000
     46     53   1      0.1090 284512.0000
     46     54   1      0.1090 284512.0000
     46     55   1      0.1090 284512.0000
     47     56   1      0.1090 284512.0000
     47     57   1      0.1090 284512.0000
     47     58   1      0.1090 284512.0000
     59     60   1      0.1529 224262.4000
     59     67   1      0.1090 284512.0000
     59     68   1      0.1090 284512.0000
     60     61   1      0.1522 265265.6000
     60     69   1      0.1090 284512.0000
     60     78   1      0.1529 224262.4000
     61     62   1      0.1229 476976.0000
     61     63   1      0.1335 410032.0000
     63     64   1      0.1449 282001.6000
     63     70   1      0.1010 363171.2000
     64     65   1      0.1529 224262.4000
     64     66   1      0.1529 224262.4000
     64     71   1      0.1090 284512.0000
     65     72   1      0.1090 284512.0000
     65     73   1      0.1090 284512.0000
     65     74   1      0.1090 284512.0000
     66     75   1      0.1090 284512.0000
     66     76   1      0.1090 284512.0000
     66     77   1      0.1090 284512.0000
     78     79   1      0.1529 224262.4000
     78     86   1      0.1090 284512.0000
     78     87   1      0.1090 284512.0000
     79     80   1      0.1522 265265.6000
     79     88   1      0.1090 284512.0000
     79     97   1      0.1529 224262.4000
     80     81   1      0.1229 476976.0000
     80     82   1      0.1335 410032.0000
     82     83   1      0.1449 282001.6000
     82     89   1      0.1010 363171.2000
     83     84   1      0.1529 224262.4000
     83     85   1      0.1529 224262.4000
     83     90   1      0.1090 284512.0000
     84     91   1      0.1090 284512.0000
     84     92   1      0.1090 284512.0000
     84     93   1      0.1090 284512.0000
     85     94   1      0.1090 284512.0000
     85     95   1      0.1090 284512.0000
     85     96   1      0.1090 284512.0000
     97     98   1      0.1529 224262.4000
     97    105   1      0.1090 284512.0000
     97    106   1      0.1090 284512.0000
     98     99   1      0.1522 265265.6000
     98    107   1      0.1090 284512.0000
     98    116   1      0.1529 224262.4000
     99    100   1      0.1229 476976.0000
     99    101   1      0.1335 410032.0000
    101    102   1      0.1449 282001.6000
    101    108   1      0.1010 363171.2000
    102    103   1      0.1529 224262.4000
    102    104   1      0.1529 224262.4000
    102    109   1      0.1090 284512.0000
    103    110   1      0.1090 284512.0000
    103    111   1      0.1090 284512.0000
    103    112   1      0.1090 284512.0000
    104    113   1      0.1090 284512.0000
    104    114   1      0.1090 284512.0000
    104    115   1      0.1090 284512.0000
    116    117   1      0.1529 224262.4000
    116    124   1      0.1090 284512.0000
    116    125   1      0.1090 284512.0000
    117    118   1      0.1522 265265.6000
    117    126   1      0.1090 284512.0000
    117    135   1      0.1529 224262.4000
    118    119   1      0.1229 476976.0000
    118    120   1      0.1335 410032.0000
    120    121   1      0.1449 282001.6000
    120    127   1      0.1010 363171.2000
    121    122   1      0.1529 224262.4000
    121    123   1      0.1529 224262.4000
    121    128   1      0.1090 284512.0000
    122    129   1      0.1090 284512.0000
    122    130   1      0.1090 284512.0000
    122    131   1      0.1090 284512.0000
    123    132   1      0.1090 284512.0000
    123    133   1      0.1090 284512.0000
    123    134   1      0.1090 284512.0000
    135    136   1      0.1529 224262.4000
    135    143   1      0.1090 284512.0000
    135    144   1      0.1090 284512.0000
    136    137   1      0.1522 265265.6000
    136    145   1      0.1090 284512.0000
    136    154   1      0.1529 224262.4000
    137    138   1      0.1229 476976.0000
    137    139   1      0.1335 410032.0000
    139    140   1      0.1449 282001.6000
    139    146   1      0.1010 363171.2000
    140    141   1      0.1529 224262.4000
    140    142   1      0.1529 224262.4000
    140    147   1      0.1090 284512.0000
    141    148   1      0.1090 284512.0000
    141    149   1      0.1090 284512.0000
    141    150   1      0.1090 284512.0000
    142    151   1      0.1090 284512.0000
    142    152   1      0.1090 284512.0000
    142    153   1      0.1090 284512.0000
    154    155   1      0.1529 224262.4000
    154    162   1      0.1090 284512.0000
    154    163   1      0.1090 284512.0000
    155    156   1      0.1522 265265.6000
    155    164   1      0.1090 284512.0000
    155    173   1      0.1529 224262.4000
    156    157   1      0.1229 476976.0000
    156    158   1      0.1335 410032.0000
    158    159   1      0.1449 282001.6000
    158    165   1      0.1010 363171.2000
    159    160   1      0.1529 224262.4000
    159    161   1      0.1529 224262.4000
    159    166   1      0.1090 284512.0000
    160    167   1      0.1090 284512.0000
    160    168   1      0.1090 284512.0000
    160    169   1      0.1090 284512.0000
    161    170   1      0.1090 284512.0000
    161    171   1      0.1090 284512.0000
    161    172   1      0.1090 284512.0000
    173    174   1      0.1529 224262.4000
    173    181   1      0.1090 284512.0000
    173    182   1      0.1090 284512.0000
    174    175   1      0.1522 265265.6000
    174    183   1      0.1090 284512.0000
    174    192   1      0.1529 224262.4000
    175    176   1      0.1229 476976.0000
    175    177   1      0.1335 410032.0000
    177    178   1      0.1449 282001.6000
    177    184   1      0.1010 363171.2000
    178    179   1      0.1529 224262.4000
    178    180   1      0.1529 224262.4000
    178    185   1      0.1090 284512.0000
    179    186   1      0.1090 284512.0000
    179    187   1      0.1090 284512.0000
    179    188   1      0.1090 284512.0000
    180    189   1      0.1090 284512.0000
    180    190   1      0.1090 284512.0000
    180    191   1      0.1090 284512.0000
    192    193   1      0.1529 224262.4000
    192    200   1      0.1090 284512.0000
    192    201   1      0.1090 284512.0000
    193    194   1      0.1522 265265.6000
    193    202   1      0.1090 284512.0000
    193    211   1      0.1529 224262.4000
    194    195   1      0.1229 476976.0000
    194    196   1      0.1335 410032.0000
    196    197   1      0.1449 282001.6000
    196    203   1      0.1010 363171.2000
    197    198   1      0.1529 224262.4000
    197    199   1      0.1529 224262.4000
    197    204   1      0.1090 284512.0000
    198    205   1      0.1090 284512.0000
    198    206   1      0.1090 284512.0000
    198    207   1      0.1090 284512.0000
    199    208   1      0.1090 284512.0000
    199    209   1      0.1090 284512.0000
    199    210   1      0.1090 284512.0000
    211    212   1      0.1529 224262.4000
    211    219   1      0.1090 284512.0000
    211    220   1      0.1090 284512.0000
    212    213   1      0.1522 265265.6000
    212    221   1      0.1090 284512.0000
    212    230   1      0.1529 224262.4000
    213    214   1      0.1229 476976.0000
    213    215   1      0.1335 410032.0000
    215    216   1      0.1449 282001.6000
    215    222   1      0.1010 363171.2000
    216    217   1      0.1529 224262.4000
    216    218   1      0.1529 224262.4000
    216    223   1      0.1090 284512.0000
    217    224   1      0.1090 284512.0000
    217    225   1      0.1090 284512.0000
    217    226   1      0.1090 284512.0000
    218    227   1      0.1090 284512.0000
    218    228   1      0.1090 284512.0000
    218    229   1      0.1090 284512.0000
    230    231   1      0.1529 224262.4000
    230    238   1      0.1090 284512.0000
    230    239   1      0.1090 284512.0000
    231    232   1      0.1522 265265.6000
    231    240   1      0.1090 284512.0000
    231    249   1      0.1529 224262.4000
    232    233   1      0.1229 476976.0000
    232    234   1      0.1335 410032.0000
    234    235   1      0.1449 282001.6000
    234    241   1      0.1010 363171.2000
    235    236   1      0.1529 224262.4000
    235    237   1      0.1529 224262.4000
    235    242   1      0.1090 284512.0000
    236    243   1      0.1090 284512.0000
    236    244   1      0.1090 284512.0000
    236    245   1      0.1090 284512.0000
    237    246   1      0.1090 284512.0000
    237    247   1      0.1090 284512.0000
    237    248   1      0.1090 284512.0000
    249    250   1      0.1529 224262.4000
    249    257   1      0.1090 284512.0000
    249    258   1      0.1090 284512.0000
    250    251   1      0.1522 265265.6000
    250    259   1      0.1090 284512.0000
    250    268   1      0.1529 224262.4000
    251    252   1      0.1229 476976.0000
    251    253   1      0.1335 410032.0000
    253    254   1      0.1449 282001.6000
    253    260   1      0.1010 363171.2000
    254    255   1      0.1529 224262.4000
    254    256   1      0.1529 224262.4000
    254    261   1      0.1090 284512.0000
    255    262   1      0.1090 284512.0000
    255    263   1      0.1090 284512.0000
    255    264   1      0.1090 284512.0000
    256    265   1      0.1090 284512.0000
    256    266   1      0.1090 284512.0000
    256    267   1      0.1090 284512.0000
    268    269   1      0.1529 224262.4000
    268    276   1      0.1090 284512.0000
    268    277   1      0.1090 284512.0000
    269    270   1      0.1522 265265.6000
    269    278   1      0.1090 284512.0000
    269    287   1      0.1529 224262.4000
    270    271   1      0.1229 476976.0000
    270    272   1      0.1335 410032.0000
    272    273   1      0.1449 282001.6000
    272    279   1      0.1010 363171.2000
    273    274   1      0.1529 224262.4000
    273    275   1      0.1529 224262.4000
    273    280   1      0.1090 284512.0000
    274    281   1      0.1090 284512.0000
    274    282   1      0.1090 284512.0000
    274    283   1      0.1090 284512.0000
    275    284   1      0.1090 284512.0000
    275    285   1      0.1090 284512.0000
    275    286   1      0.1090 284512.0000
    287    288   1      0.1529 224262.4000
    287    295   1      0.1090 284512.0000
    287    296   1      0.1090 284512.0000
    288    289   1      0.1522 265265.6000
    288    297   1      0.1090 284512.0000
    288    306   1      0.1529 224262.4000
    289    290   1      0.1229 476976.0000
    289    291   1      0.1335 410032.0000
    291    292   1      0.1449 282001.6000
    291    298   1      0.1010 363171.2000
    292    293   1      0.1529 224262.4000
    292    294   1      0.1529 224262.4000
    292    299   1      0.1090 284512.0000
    293    300   1      0.1090 284512.0000
    293    301   1      0.1090 284512.0000
    293    302   1      0.1090 284512.0000
    294    303   1      0.1090 284512.0000
    294    304   1      0.1090 284512.0000
    294    305   1      0.1090 284512.0000
    306    307   1      0.1529 224262.4000
    306    314   1      0.1090 284512.0000
    306    315   1      0.1090 284512.0000
    307    308   1      0.1522 265265.6000
    307    316   1      0.1090 284512.0000
    307    325   1      0.1529 224262.4000
    308    309   1      0.1229 476976.0000
    308    310   1      0.1335 410032.0000
    310    311   1      0.1449 282001.6000
    310    317   1      0.1010 363171.2000
    311    312   1      0.1529 224262.4000
    311    313   1      0.1529 224262.4000
    311    318   1      0.1090 284512.0000
    312    319   1      0.1090 284512.0000
    312    320   1      0.1090 284512.0000
    312    321   1      0.1090 284512.0000
    313    322   1      0.1090 284512.0000
    313    323   1      0.1090 284512.0000
    313    324   1      0.1090 284512.0000
    325    326   1      0.1529 224262.4000
    325    333   1      0.1090 284512.0000
    325    334   1      0.1090 284512.0000
    326    327   1      0.1522 265265.6000
    326    335   1      0.1090 284512.0000
    326    344   1      0.1529 224262.4000
    327    328   1      0.1229 476976.0000
    327    329   1      0.1335 410032.0000
    329    330   1      0.1449 282001.6000
    329    336   1      0.1010 363171.2000
    330    331   1      0.1529 224262.4000
    330    332   1      0.1529 224262.4000
    330    337   1      0.1090 284512.0000
    331    338   1      0.1090 284512.0000
    331    339   1      0.1090 284512.0000
    331    340   1      0.1090 284512.0000
    332    341   1      0.1090 284512.0000
    332    342   1      0.1090 284512.0000
    332    343   1      0.1090 284512.0000
    344    345   1      0.1529 224262.4000
    344    352   1      0.1090 284512.0000
    344    353   1      0.1090 284512.0000
    345    346   1      0.1522 265265.6000
    345    354   1      0.1090 284512.0000
    345    363   1      0.1529 224262.4000
    346    347   1      0.1229 476976.0000
    346    348   1      0.1335 410032.0000
    348    349   1      0.1449 282001.6000
    348    355   1      0.1010 363171.2000
    349    350   1      0.1529 224262.4000
    349    351   1      0.1529 224262.4000
    349    356   1      0.1090 284512.0000
    350    357   1      0.1090 284512.0000
    350    358   1      0.1090 284512.0000
    350    359   1      0.1090 284512.0000
    351    360   1      0.1090 284512.0000
    351    361   1      0.1090 284512.0000
    351    362   1      0.1090 284512.0000
    363    364   1      0.1529 224262.4000
    363    371   1      0.1090 284512.0000
    363    372   1      0.1090 284512.0000
    364    365   1      0.1522 265265.6000
    364    373   1      0.1090 284512.0000
    364    382   1      0.1090 284512.0000
    365    366   1      0.1229 476976.0000
    365    367   1      0.1335 410032.0000
    367    368   1      0.1449 282001.6000
    367    374   1      0.1010 363171.2000
    368    369   1      0.1529 224262.4000
    368    370   1      0.1529 224262.4000
    368    375   1      0.1090 284512.0000
    369    376   1      0.1090 284512.0000
    369    377   1      0.1090 284512.0000
    369    378   1      0.1090 284512.0000
    370    379   1      0.1090 284512.0000
    370    380   1      0.1090 284512.0000
    370    381   1      0.1090 284512.0000

[ pairs ]
; ai   aj   funct   fudge_QQ  charge_i   charge_j   c6    c12
      9      3   2   0.50000     0.0600000    0.5000000   3.869820e-04  3.188634e-07
      9     11   2   0.50000     0.0600000    0.0600000   6.128906e-05  1.496315e-08
      9     21   2   0.50000     0.0600000   -0.1200000   2.494471e-04  1.671101e-07
     10      3   2   0.50000     0.0600000    0.5000000   3.869820e-04  3.188634e-07
     10     11   2   0.50000     0.0600000    0.0600000   6.128906e-05  1.496315e-08
     10     21   2   0.50000     0.0600000   -0.1200000   2.494471e-04  1.671101e-07
     20      3   2   0.50000     0.0600000    0.5000000   3.869820e-04  3.188634e-07
     20     11   2   0.50000     0.0600000    0.0600000   6.128906e-05  1.496315e-08
     20     21   2   0.50000     0.0600000   -0.1200000   2.494471e-04  1.671101e-07
      1      4   2   0.50000    -0.1800000   -0.5000000   1.095425e-03  1.218041e-06
      1      5   2   0.50000    -0.1800000   -0.5000000   1.304585e-03  1.920112e-06
     11      4   2   0.50000     0.0600000   -0.5000000   2.691455e-04  1.090642e-07
     11      5   2   0.50000     0.0600000   -0.5000000   3.205360e-04  1.719281e-07
     21      4   2   0.50000    -0.1200000   -0.5000000   1.095425e-03  1.218041e-06
     21      5   2   0.50000    -0.1200000   -0.5000000   1.304585e-03  1.920112e-06
      1     22   2   0.50000    -0.1800000   -0.0600000   1.015252e-03  1.866303e-06
      1     29   2   0.50000    -0.1800000    0.0600000   2.494471e-04  1.671101e-07
      1     30   2   0.50000    -0.1800000    0.0600000   2.494471e-04  1.671101e-07
      3     22   2   0.50000     0.5000000   -0.0600000   1.575021e-03  3.561100e-06
      3     29   2   0.50000     0.5000000    0.0600000   3.869820e-04  3.188634e-07
      3     30   2   0.50000     0.5000000    0.0600000   3.869820e-04  3.188634e-07
     11     22   2   0.50000     0.0600000   -0.0600000   2.494471e-04  1.671101e-07
     11     29   2   0.50000     0.0600000    0.0600000   6.128906e-05  1.496315e-08
     11     30   2   0.50000     0.0600000    0.0600000   6.128906e-05  1.496315e-08
      2      6   2   0.50000    -0.0600000    0.1400000   1.015252e-03  1.866303e-06
      2     12   2   0.50000    -0.0600000    0.3000000   1.995577e-06  1.069504e-11
      4      6   2   0.50000    -0.5000000    0.1400000   1.095425e-03  1.218041e-06
      4     12   2   0.50000    -0.5000000    0.3000000   2.153164e-06  6.980110e-12
      3      7   2   0.50000     0.5000000   -0.1800000   1.575021e-03  3.561100e-06
      3      8   2   0.50000     0.5000000   -0.1800000   1.575021e-03  3.561100e-06
      3     13   2   0.50000     0.5000000    0.0600000   3.869820e-04  3.188634e-07
     12      7   2   0.50000     0.3000000   -0.1800000   1.995577e-06  1.069504e-11
     12      8   2   0.50000     0.3000000   -0.1800000   1.995577e-06  1.069504e-11
     12     13   2   0.50000     0.3000000    0.0600000   4.903125e-07  9.576416e-13
      5     14   2   0.50000    -0.5000000    0.0600000   3.205360e-04  1.719281e-07
      5     15   2   0.50000    -0.5000000    0.0600000   3.205360e-04  1.719281e-07
      5     16   2   0.50000    -0.5000000    0.0600000   3.205360e-04  1.719281e-07
      8     14   2   0.50000    -0.1800000    0.0600000   2.494471e-04  1.671101e-07
      8     15   2   0.50000    -0.1800000    0.0600000   2.494471e-04  1.671101e-07
      8     16   2   0.50000    -0.1800000    0.0600000   2.494471e-04  1.671101e-07
     13     14   2   0.50000     0.0600000    0.0600000   6.128906e-05  1.496315e-08
     13     15   2   0.50000     0.0600000    0.0600000   6.128906e-05  1.496315e-08
     13     16   2   0.50000     0.0600000    0.0600000   6.128906e-05  1.496315e-08
      5     17   2   0.50000    -0.5000000    0.0600000   3.205360e-04  1.719281e-07
      5     18   2   0.50000    -0.5000000    0.0600000   3.205360e-04  1.719281e-07
      5     19   2   0.50000    -0.5000000    0.0600000   3.205360e-04  1.719281e-07
      7     17   2   0.50000    -0.1800000    0.0600000   2.494471e-04  1.671101e-07
      7     18   2   0.50000    -0.1800000    0.0600000   2.494471e-04  1.671101e-07
      7     19   2   0.50000    -0.1800000    0.0600000   2.494471e-04  1.671101e-07
     13     17   2   0.50000     0.0600000    0.0600000   6.128906e-05  1.496315e-08
     13     18   2   0.50000     0.0600000    0.0600000   6.128906e-05  1.496315e-08
     13     19   2   0.50000     0.0600000    0.0600000   6.128906e-05  1.496315e-08
      2     23   2   0.50000    -0.0600000    0.5000000   1.575021e-03  3.561100e-06
      2     31   2   0.50000    -0.0600000    0.0600000   2.494471e-04  1.671101e-07
      2     40   2   0.50000    -0.0600000   -0.1200000   1.015252e-03  1.866303e-06
     29     23   2   0.50000     0.0600000    0.5000000   3.869820e-04  3.188634e-07
     29     31   2   0.50000     0.0600000    0.0600000   6.128906e-05  1.496315e-08
     29     40   2   0.50000     0.0600000   -0.1200000   2.494471e-04  1.671101e-07
     30     23   2   0.50000     0.0600000    0.5000000   3.869820e-04  3.188634e-07
     30     31   2   0.50000     0.0600000    0.0600000   6.128906e-05  1.496315e-08
     30     40   2   0.50000     0.0600000   -0.1200000   2.494471e-04  1.671101e-07
     21     24   2   0.50000    -0.1200000   -0.5000000   1.095425e-03  1.218041e-06
     21     25   2   0.50000    -0.1200000   -0.5000000   1.304585e-03  1.920112e-06
     31     24   2   0.50000     0.0600000   -0.5000000   2.691455e-04  1.090642e-07
     31     25   2   0.50000     0.0600000   -0.5000000   3.205360e-04  1.719281e-07
     40     24   2   0.50000    -0.1200000   -0.5000000   1.095425e-03  1.218041e-06
     40     25   2   0.50000    -0.1200000   -0.5000000   1.304585e-03  1.920112e-06
     21     41   2   0.50000    -0.1200000   -0.0600000   1.015252e-03  1.866303e-06
     21     48   2   0.50000    -0.1200000    0.0600000   2.494471e-04  1.671101e-07
     21     49   2   0.50000    -0.1200000    0.0600000   2.494471e-04  1.671101e-07
     23     41   2   0.50000     0.5000000   -0.0600000   1.575021e-03  3.561100e-06
     23     48   2   0.50000     0.5000000    0.0600000   3.869820e-04  3.188634e-07
     23     49   2   0.50000     0.5000000    0.0600000   3.869820e-04  3.188634e-07
     31     41   2   0.50000     0.0600000   -0.0600000   2.494471e-04  1.671101e-07
     31     48   2   0.50000     0.0600000    0.0600000   6.128906e-05  1.496315e-08
     31     49   2   0.50000     0.0600000    0.0600000   6.128906e-05  1.496315e-08
     22     26   2   0.50000    -0.0600000    0.1400000   1.015252e-03  1.866303e-06
     22     32   2   0.50000    -0.0600000    0.3000000   1.995577e-06  1.069504e-11
     24     26   2   0.50000    -0.5000000    0.1400000   1.095425e-03  1.218041e-06
     24     32   2   0.50000    -0.5000000    0.3000000   2.153164e-06  6.980110e-12
     23     27   2   0.50000     0.5000000   -0.1800000   1.575021e-03  3.561100e-06
     23     28   2   0.50000     0.5000000   -0.1800000   1.575021e-03  3.561100e-06
     23     33   2   0.50000     0.5000000    0.0600000   3.869820e-04  3.188634e-07
     32     27   2   0.50000     0.3000000   -0.1800000   1.995577e-06  1.069504e-11
     32     28   2   0.50000     0.3000000   -0.1800000   1.995577e-06  1.069504e-11
     32     33   2   0.50000     0.3000000    0.0600000   4.903125e-07  9.576416e-13
     25     34   2   0.50000    -0.5000000    0.0600000   3.205360e-04  1.719281e-07
     25     35   2   0.50000    -0.5000000    0.0600000   3.205360e-04  1.719281e-07
     25     36   2   0.50000    -0.5000000    0.0600000   3.205360e-04  1.719281e-07
     28     34   2   0.50000    -0.1800000    0.0600000   2.494471e-04  1.671101e-07
     28     35   2   0.50000    -0.1800000    0.0600000   2.494471e-04  1.671101e-07
     28     36   2   0.50000    -0.1800000    0.0600000   2.494471e-04  1.671101e-07
     33     34   2   0.50000     0.0600000    0.0600000   6.128906e-05  1.496315e-08
     33     35   2   0.50000     0.0600000    0.0600000   6.128906e-05  1.496315e-08
     33     36   2   0.50000     0.0600000    0.0600000   6.128906e-05  1.496315e-08
     25     37   2   0.50000    -0.5000000    0.0600000   3.205360e-04  1.719281e-07
     25     38   2   0.50000    -0.5000000    0.0600000   3.205360e-04  1.719281e-07
     25     39   2   0.50000    -0.5000000    0.0600000   3.205360e-04  1.719281e-07
     27     37   2   0.50000    -0.1800000    0.0600000   2.494471e-04  1.671101e-07
     27     38   2   0.50000    -0.1800000    0.0600000   2.494471e-04  1.671101e-07
     27     39   2   0.50000    -0.1800000    0.0600000   2.494471e-04  1.671101e-07
     33     37   2   0.50000     0.0600000    0.0600000   6.128906e-05  1.496315e-08
     33     38   2   0.50000     0.0600000    0.0600000   6.128906e-05  1.496315e-08
     33     39   2   0.50000     0.0600000    0.0600000   6.128906e-05  1.496315e-08
     22     42   2   0.50000    -0.0600000    0.5000000   1.575021e-03  3.561100e-06
     22     50   2   0.50000    -0.0600000    0.0600000   2.494471e-04  1.671101e-07
     22     59   2   0.50000    -0.0600000   -0.1200000   1.015252e-03  1.866303e-06
     48     42   2   0.50000     0.0600000    0.5000000   3.869820e-04  3.188634e-07
     48     50   2   0.50000     0.0600000    0.0600000   6.128906e-05  1.496315e-08
     48     59   2   0.50000     0.0600000   -0.1200000   2.494471e-04  1.671101e-07
     49     42   2   0.50000     0.0600000    0.5000000   3.869820e-04  3.188634e-07
     49     50   2   0.50000     0.0600000    0.0600000   6.128906e-05  1.496315e-08
     49     59   2   0.50000     0.0600000   -0.1200000   2.494471e-04  1.671101e-07
     40     43   2   0.50000    -0.1200000   -0.5000000   1.095425e-03  1.218041e-06
     40     44   2   0.50000    -0.1200000   -0.5000000   1.304585e-03  1.920112e-06
     50     43   2   0.50000     0.0600000   -0.5000000   2.691455e-04  1.090642e-07
     50     44   2   0.50000     0.0600000   -0.5000000   3.205360e-04  1.719281e-07
     59     43   2   0.50000    -0.1200000   -0.5000000   1.095425e-03  1.218041e-06
     59     44   2   0.50000    -0.1200000   -0.5000000   1.304585e-03  1.920112e-06
     40     60   2   0.50000    -0.1200000   -0.0600000   1.015252e-03  1.866303e-06
     40     67   2   0.50000    -0.1200000    0.0600000   2.494471e-04  1.671101e-07
     40     68   2   0.50000    -0.1200000    0.0600000   2.494471e-04  1.671101e-07
     42     60   2   0.50000     0.5000000   -0.0600000   1.575021e-03  3.561100e-06
     42     67   2   0.50000     0.5000000    0.0600000   3.869820e-04  3.188634e-07
     42     68   2   0.50000     0.5000000    0.0600000   3.869820e-04  3.188634e-07
     50     60   2   0.50000     0.0600000   -0.0600000   2.494471e-04  1.671101e-07
     50     67   2   0.50000     0.0600000    0.0600000   6.128906e-05  1.496315e-08
     50     68   2   0.50000     0.0600000    0.0600000   6.128906e-05  1.496315e-08
     41     45   2   0.50000    -0.0600000    0.1400000   1.015252e-03  1.866303e-06
     41     51   2   0.50000    -0.0600000    0.3000000   1.995577e-06  1.069504e-11
     43     45   2   0.50000    -0.5000000    0.1400000   1.095425e-03  1.218041e-06
     43     51   2   0.50000    -0.5000000    0.3000000   2.153164e-06  6.980110e-12
     42     46   2   0.50000     0.5000000   -0.1800000   1.575021e-03  3.561100e-06
     42     47   2   0.50000     0.5000000   -0.1800000   1.575021e-03  3.561100e-06
     42     52   2   0.50000     0.5000000    0.0600000   3.869820e-04  3.188634e-07
     51     46   2   0.50000     0.3000000   -0.1800000   1.995577e-06  1.069504e-11
     51     47   2   0.50000     0.3000000   -0.1800000   1.995577e-06  1.069504e-11
     51     52   2   0.50000     0.3000000    0.0600000   4.903125e-07  9.576416e-13
     44     53   2   0.50000    -0.5000000    0.0600000   3.205360e-04  1.719281e-07
     44     54   2   0.50000    -0.5000000    0.0600000   3.205360e-04  1.719281e-07
     44     55   2   0.50000    -0.5000000    0.0600000   3.205360e-04  1.719281e-07
     47     53   2   0.50000    -0.1800000    0.0600000   2.494471e-04  1.671101e-07
     47     54   2   0.50000    -0.1800000    0.0600000   2.494471e-04  1.671101e-07
     47     55   2   0.50000    -0.1800000    0.0600000   2.494471e-04  1.671101e-07
     52     53   2   0.50000     0.0600000    0.0600000   6.128906e-05  1.496315e-08
     52     54   2   0.50000     0.0600000    0.0600000   6.128906e-05  1.496315e-08
     52     55   2   0.50000     0.0600000    0.0600000   6.128906e-05  1.496315e-08
     44     56   2   0.50000    -0.5000000    0.0600000   3.205360e-04  1.719281e-07
     44     57   2   0.50000    -0.5000000    0.0600000   3.205360e-04  1.719281e-07
     44     58   2   0.50000    -0.5000000    0.0600000   3.205360e-04  1.719281e-07
     46     56   2   0.50000    -0.1800000    0.0600000   2.494471e-04  1.671101e-07
     46     57   2   0.50000    -0.1800000    0.0600000   2.494471e-04  1.671101e-07
     46     58   2   0.50000    -0.1800000    0.0600000   2.494471e-04  1.671101e-07
     52     56   2   0.50000     0.0600000    0.0600000   6.128906e-05  1.496315e-08
     52     57   2   0.50000     0.0600000    0.0600000   6.128906e-05  1.496315e-08
     52     58   2   0.50000     0.0600000    0.0600000   6.128906e-05  1.496315e-08
     41     61   2   0.50000    -0.0600000    0.5000000   1.575021e-03  3.561100e-06
     41     69   2   0.50000    -0.0600000    0.0600000   2.494471e-04  1.671101e-07
     41     78   2   0.50000    -0.0600000   -0.1200000   1.015252e-03  1.866303e-06
     67     61   2   0.50000     0.0600000    0.5000000   3.869820e-04  3.188634e-07
     67     69   2   0.50000     0.0600000    0.0600000   6.128906e-05  1.496315e-08
     67     78   2   0.50000     0.0600000   -0.1200000   2.494471e-04  1.671101e-07
     68     61   2   0.50000     0.0600000    0.5000000   3.869820e-04  3.188634e-07
     68     69   2   0.50000     0.0600000    0.0600000   6.128906e-05  1.496315e-08
     68     78   2   0.50000     0.0600000   -0.1200000   2.494471e-04  1.671101e-07
     59     62   2   0.50000    -0.1200000   -0.5000000   1.095425e-03  1.218041e-06
     59     63   2   0.50000    -0.1200000   -0.5000000   1.304585e-03  1.920112e-06
     69     62   2   0.50000     0.0600000   -0.5000000   2.691455e-04  1.090642e-07
     69     63   2   0.50000     0.0600000   -0.5000000   3.205360e-04  1.719281e-07
     78     62   2   0.50000    -0.1200000   -0.5000000   1.095425e-03  1.218041e-06
     78     63   2   0.50000    -0.1200000   -0.5000000   1.304585e-03  1.920112e-06
     59     79   2   0.50000    -0.1200000   -0.0600000   1.015252e-03  1.866303e-06
     59     86   2   0.50000    -0.1200000    0.0600000   2.494471e-04  1.671101e-07
     59     87   2   0.50000    -0.1200000    0.0600000   2.494471e-04  1.671101e-07
     61     79   2   0.50000     0.5000000   -0.0600000   1.575021e-03  3.561100e-06
     61     86   2   0.50000     0.5000000    0.0600000   3.869820e-04  3.188634e-07
     61     87   2   0.50000     0.5000000    0.0600000   3.869820e-04  3.188634e-07
     69     79   2   0.50000     0.0600000   -0.0600000   2.494471e-04  1.671101e-07
     69     86   2   0.50000     0.0600000    0.0600000   6.128906e-05  1.496315e-08
     69     87   2   0.50000     0.0600000    0.0600000   6.128906e-05  1.496315e-08
     60     64   2   0.50000    -0.0600000    0.1400000   1.015252e-03  1.866303e-06
     60     70   2   0.50000    -0.0600000    0.3000000   1.995577e-06  1.069504e-11
     62     64   2   0.50000    -0.5000000    0.1400000   1.095425e-03  1.218041e-06
     62     70   2   0.50000    -0.5000000    0.3000000   2.153164e-06  6.980110e-12
     61     65   2   0.50000     0.5000000   -0.1800000   1.575021e-03  3.561100e-06
     61     66   2   0.50000     0.5000000   -0.1800000   1.575021e-03  3.561100e-06
     61     71   2   0.50000     0.5000000    0.0600000   3.869820e-04  3.188634e-07
     70     65   2   0.50000     0.3000000   -0.1800000   1.995577e-06  1.069504e-11
     70     66   2   0.50000     0.3000000   -0.1800000   1.995577e-06  1.069504e-11
     70     71   2   0.50000     0.3000000    0.0600000   4.903125e-07  9.576416e-13
     63     72   2   0.50000    -0.5000000    0.0600000   3.205360e-04  1.719281e-07
     63     73   2   0.50000    -0.5000000    0.0600000   3.205360e-04  1.719281e-07
     63     74   2   0.50000    -0.5000000    0.0600000   3.205360e-04  1.719281e-07
     66     72   2   0.50000    -0.1800000    0.0600000   2.494471e-04  1.671101e-07
     66     73   2   0.50000    -0.1800000    0.0600000   2.494471e-04  1.671101e-07
     66     74   2   0.50000    -0.1800000    0.0600000   2.494471e-04  1.671101e-07
     71     72   2   0.50000     0.0600000    0.0600000   6.128906e-05  1.496315e-08
     71     73   2   0.50000     0.0600000    0.0600000   6.128906e-05  1.496315e-08
     71     74   2   0.50000     0.0600000    0.0600000   6.128906e-05  1.496315e-08
     63     75   2   0.50000    -0.5000000    0.0600000   3.205360e-04  1.719281e-07
     63     76   2   0.50000    -0.5000000    0.0600000   3.205360e-04  1.719281e-07
     63     77   2   0.50000    -0.5000000    0.0600000   3.205360e-04  1.719281e-07
     65     75   2   0.50000    -0.1800000    0.0600000   2.494471e-04  1.671101e-07
     65     76   2   0.50000    -0.1800000    0.0600000   2.494471e-04  1.671101e-07
     65     77   2   0.50000    -0.1800000    0.0600000   2.494471e-04  1.671101e-07
     71     75   2   0.50000     0.0600000    0.0600000   6.128906e-05  1.496315e-08
     71     76   2   0.50000     0.0600000    0.0600000   6.128906e-05  1.496315e-08
     71     77   2   0.50000     0.0600000    0.0600000   6.128906e-05  1.496315e-08
     60     80   2   0.50000    -0.0600000    0.5000000   1.575021e-03  3.561100e-06
     60     88   2   0.50000    -0.0600000    0.0600000   2.494471e-04  1.671101e-07
     60     97   2   0.50000    -0.0600000   -0.1200000   1.015252e-03  1.866303e-06
     86     80   2   0.50000     0.0600000    0.5000000   3.869820e-04  3.188634e-07
     86     88   2   0.50000     0.0600000    0.0600000   6.128906e-05  1.496315e-08
     86     97   2   0.50000     0.0600000   -0.1200000   2.494471e-04  1.671101e-07
     87     80   2   0.50000     0.0600000    0.5000000   3.869820e-04  3.188634e-07
     87     88   2   0.50000     0.0600000    0.0600000   6.128906e-05  1.496315e-08
     87     97   2   0.50000     0.0600000   -0.1200000   2.494471e-04  1.671101e-07
     78     81   2   0.50000    -0.1200000   -0.5000000   1.095425e-03  1.218041e-06
     78     82   2   0.50000    -0.1200000   -0.5000000   1.304585e-03  1.920112e-06
     88     81   2   0.50000     0.0600000   -0.5000000   2.691455e-04  1.090642e-07
     88     82   2   0.50000     0.0600000   -0.5000000   3.205360e-04  1.719281e-07
     97     81   2   0.50000    -0.1200000   -0.5000000   1.095425e-03  1.218041e-06
     97     82   2   0.50000    -0.1200000   -0.5000000   1.304585e-03  1.920112e-06
     78     98   2   0.50000    -0.1200000   -0.0600000   1.015252e-03  1.866303e-06
     78    105   2   0.50000    -0.1200000    0.0600000   2.494471e-04  1.671101e-07
     78    106   2   0.50000    -0.1200000    0.0600000   2.494471e-04  1.671101e-07
     80     98   2   0.50000     0.5000000   -0.0600000   1.575021e-03  3.561100e-06
     80    105   2   0.50000     0.5000000    0.0600000   3.869820e-04  3.188634e-07
     80    106   2   0.50000     0.5000000    0.0600000   3.869820e-04  3.188634e-07
     88     98   2   0.50000     0.0600000   -0.0600000   2.494471e-04  1.671101e-07
     88    105   2   0.50000     0.0600000    0.0600000   6.128906e-05  1.496315e-08
     88    106   2   0.50000     0.0600000    0.0600000   6.128906e-05  1.496315e-08
     79     83   2   0.50000    -0.0600000    0.1400000   1.015252e-03  1.866303e-06
     79     89   2   0.50000    -0.0600000    0.3000000   1.995577e-06  1.069504e-11
     81     83   2   0.50000    -0.5000000    0.1400000   1.095425e-03  1.218041e-06
     81     89   2   0.50000    -0.5000000    0.3000000   2.153164e-06  6.980110e-12
     80     84   2   0.50000     0.5000000   -0.1800000   1.575021e-03  3.561100e-06
     80     85   2   0.50000     0.5000000   -0.1800000   1.575021e-03  3.561100e-06
     80     90   2   0.50000     0.5000000    0.0600000   3.869820e-04  3.188634e-07
     89     84   2   0.50000     0.3000000   -0.1800000   1.995577e-06  1.069504e-11
     89     85   2   0.50000     0.3000000   -0.1800000   1.995577e-06  1.069504e-11
     89     90   2   0.50000     0.3000000    0.0600000   4.903125e-07  9.576416e-13
     82     91   2   0.50000    -0.5000000    0.0600000   3.205360e-04  1.719281e-07
     82     92   2   0.50000    -0.5000000    0.0600000   3.205360e-04  1.719281e-07
     82     93   2   0.50000    -0.5000000    0.0600000   3.205360e-04  1.719281e-07
     85     91   2   0.50000    -0.1800000    0.0600000   2.494471e-04  1.671101e-07
     85     92   2   0.50000    -0.1800000    0.0600000   2.494471e-04  1.671101e-07
     85     93   2   0.50000    -0.1800000    0.0600000   2.494471e-04  1.671101e-07
     90     91   2   0.50000     0.0600000    0.0600000   6.128906e-05  1.496315e-08
     90     92   2   0.50000     0.0600000    0.0600000   6.128906e-05  1.496315e-08
     90     93   2   0.50000     0.0600000    0.0600000   6.128906e-05  1.496315e-08
     82     94   2   0.50000    -0.5000000    0.0600000   3.205360e-04  1.719281e-07
     82     95   2   0.50000    -0.5000000    0.0600000   3.205360e-04  1.719281e-07
     82     96   2   0.50000    -0.5000000    0.0600000   3.205360e-04  1.719281e-07
     84     94   2   0.50000    -0.1800000    0.0600000   2.494471e-04  1.671101e-07
     84     95   2   0.50000    -0.1800000    0.0600000   2.494471e-04  1.671101e-07
     84     96   2   0.50000    -0.1800000    0.0600000   2.494471e-04  1.671101e-07
     90     94   2   0.50000     0.0600000    0.0600000   6.128906e-05  1.496315e-08
     90     95   2   0.50000     0.0600000    0.0600000   6.128906e-05  1.496315e-08
     90     96   2   0.50000     0.0600000    0.0600000   6.128906e-05  1.496315e-08
     79     99   2   0.50000    -0.0600000    0.5000000   1.575021e-03  3.561100e-06
     79    107   2   0.50000    -0.0600000    0.0600000   2.494471e-04  1.671101e-07
     79    116   2   0.50000    -0.0600000   -0.1200000   1.015252e-03  1.866303e-06
    105     99   2   0.50000     0.0600000    0.5000000   3.869820e-04  3.188634e-07
    105    107   2   0.50000     0.0600000    0.0600000   6.128906e-05  1.496315e-08
    105    116   2   0.50000     0.0600000   -0.1200000   2.494471e-04  1.671101e-07
    106     99   2   0.50000     0.0600000    0.5000000   3.869820e-04  3.188634e-07
    106    107   2   0.50000     0.0600000    0.0600000   6.128906e-05  1.496315e-08
    106    116   2   0.50000     0.0600000   -0.1200000   2.494471e-04  1.671101e-07
     97    100   2   0.50000    -0.1200000   -0.5000000   1.095425e-03  1.218041e-06
     97    101   2   0.50000    -0.1200000   -0.5000000   1.304585e-03  1.920112e-06
    107    100   2   0.50000     0.0600000   -0.5000000   2.691455e-04  1.090642e-07
    107    101   2   0.50000     0.0600000   -0.5000000   3.205360e-04  1.719281e-07
    116    100   2   0.50000    -0.1200000   -0.5000000   1.095425e-03  1.218041e-06
    116    101   2   0.50000    -0.1200000   -0.5000000   1.304585e-03  1.920112e-06
     97    117   2   0.50000    -0.1200000   -0.0600000   1.015252e-03  1.866303e-06
     97    124   2   0.50000    -0.1200000    0.0600000   2.494471e-04  1.671101e-07
     97    125   2   0.50000    -0.1200000    0.0600000   2.494471e-04  1.671101e-07
     99    117   2   0.50000     0.5000000   -0.0600000   1.575021e-03  3.561100e-06
     99    124   2   0.50000     0.5000000    0.0600000   3.869820e-04  3.188634e-07
     99    125   2   0.50000     0.5000000    0.0600000   3.869820e-04  3.188634e-07
    107    117   2   0.50000     0.0600000   -0.0600000   2.494471e-04  1.671101e-07
    107    124   2   0.50000     0.0600000    0.0600000   6.128906e-05  1.496315e-08
    107    125   2   0.50000     0.0600000    0.0600000   6.128906e-05  1.496315e-08
     98    102   2   0.50000    -0.0600000    0.1400000   1.015252e-03  1.866303e-06
     98    108   2   0.50000    -0.0600000    0.3000000   1.995577e-06  1.069504e-11
    100    102   2   0.50000    -0.5000000    0.1400000   1.095425e-03  1.218041e-06
    100    108   2   0.50000    -0.5000000    0.3000000   2.153164e-06  6.980110e-12
     99    103   2   0.50000     0.5000000   -0.1800000   1.575021e-03  3.561100e-06
     99    104   2   0.50000     0.5000000   -0.1800000   1.575021e-03  3.561100e-06
     99    109   2   0.50000     0.5000000    0.0600000   3.869820e-04  3.188634e-07
    108    103   2   0.50000     0.3000000   -0.1800000   1.995577e-06  1.069504e-11
    108    104   2   0.50000     0.3000000   -0.1800000   1.995577e-06  1.069504e-11
    108    109   2   0.50000     0.3000000    0.0600000   4.903125e-07  9.576416e-13
    101    110   2   0.50000    -0.5000000    0.0600000   3.205360e-04  1.719281e-07
    101    111   2   0.50000    -0.5000000    0.0600000   3.205360e-04  1.719281e-07
    101    112   2   0.50000    -0.5000000    0.0600000   3.205360e-04  1.719281e-07
    104    110   2   0.50000    -0.1800000    0.0600000   2.494471e-04  1.671101e-07
    104    111   2   0.50000    -0.1800000    0.0600000   2.494471e-04  1.671101e-07
    104    112   2   0.50000    -0.1800000    0.0600000   2.494471e-04  1.671101e-07
    109    110   2   0.50000     0.0600000    0.0600000   6.128906e-05  1.496315e-08
    109    111   2   0.50000     0.0600000    0.0600000   6.128906e-05  1.496315e-08
    109    112   2   0.50000     0.0600000    0.0600000   6.128906e-05  1.496315e-08
    101    113   2   0.50000    -0.5000000    0.0600000   3.205360e-04  1.719281e-07
    101    114   2   0.50000    -0.5000000    0.0600000   3.205360e-04  1.719281e-07
    101    115   2   0.50000    -0.5000000    0.0600000   3.205360e-04  1.719281e-07
    103    113   2   0.50000    -0.1800000    0.0600000   2.494471e-04  1.671101e-07
    103    114   2   0.50000    -0.1800000    0.0600000   2.494471e-04  1.671101e-07
    103    115   2   0.50000    -0.1800000    0.0600000   2.494471e-04  1.671101e-07
    109    113   2   0.50000     0.0600000    0.0600000   6.128906e-05  1.496315e-08
    109    114   2   0.50000     0.0600000    0.0600000   6.128906e-05  1.496315e-08
    109    115   2   0.50000     0.0600000    0.0600000   6.128906e-05  1.496315e-08
     98    118   2   0.50000    -0.0600000    0.5000000   1.575021e-03  3.561100e-06
     98    126   2   0.50000    -0.0600000    0.0600000   2.494471e-04  1.671101e-07
     98    135   2   0.50000    -0.0600000   -0.1200000   1.015252e-03  1.866303e-06
    124    118   2   0.50000     0.0600000    0.5000000   3.869820e-04  3.188634e-07
    124    126   2   0.50000     0.0600000    0.0600000   6.128906e-05  1.496315e-08
    124    135   2   0.50000     0.0600000   -0.1200000   2.494471e-04  1.671101e-07
    125    118   2   0.50000     0.0600000    0.5000000   3.869820e-04  3.188634e-07
    125    126   2   0.50000     0.0600000    0.0600000   6.128906e-05  1.496315e-08
    125    135   2   0.50000     0.0600000   -0.1200000   2.494471e-04  1.671101e-07
    116    119   2   0.50000    -0.1200000   -0.5000000   1.095425e-03  1.218041e-06
    116    120   2   0.50000    -0.1200000   -0.5000000   1.304585e-03  1.920112e-06
    126    119   2   0.50000     0.0600000   -0.5000000   2.691455e-04  1.090642e-07
    126    120   2   0.50000     0.0600000   -0.5000000   3.205360e-04  1.719281e-07
    135    119   2   0.50000    -0.1200000   -0.5000000   1.095425e-03  1.218041e-06
    135    120   2   0.50000    -0.1200000   -0.5000000   1.304585e-03  1.920112e-06
    116    136   2   0.50000    -0.1200000   -0.0600000   1.015252e-03  1.866303e-06
    116    143   2   0.50000    -0.1200000    0.0600000   2.494471e-04  1.671101e-07
    116    144   2   0.50000    -0.1200000    0.0600000   2.494471e-04  1.671101e-07
    118    136   2   0.50000     0.5000000   -0.0600000   1.575021e-03  3.561100e-06
    118    143   2   0.50000     0.5000000    0.0600000   3.869820e-04  3.188634e-07
    118    144   2   0.50000     0.5000000    0.0600000   3.869820e-04  3.188634e-07
    126    136   2   0.50000     0.0600000   -0.0600000   2.494471e-04  1.671101e-07
    126    143   2   0.50000     0.0600000    0.0600000   6.128906e-05  1.496315e-08
    126    144   2   0.50000     0.0600000    0.0600000   6.128906e-05  1.496315e-08
    117    121   2   0.50000    -0.0600000    0.1400000   1.015252e-03  1.866303e-06
    117    127   2   0.50000    -0.0600000    0.3000000   1.995577e-06  1.069504e-11
    119    121   2   0.50000    -0.5000000    0.1400000   1.095425e-03  1.218041e-06
    119    127   2   0.50000    -0.5000000    0.3000000   2.153164e-06  6.980110e-12
    118    122   2   0.50000     0.5000000   -0.1800000   1.575021e-03  3.561100e-06
    118    123   2   0.50000     0.5000000   -0.1800000   1.575021e-03  3.561100e-06
    118    128   2   0.50000     0.5000000    0.0600000   3.869820e-04  3.188634e-07
    127    122   2   0.50000     0.3000000   -0.1800000   1.995577e-06  1.069504e-11
    127    123   2   0.50000     0.3000000   -0.1800000   1.995577e-06  1.069504e-11
    127    128   2   0.50000     0.3000000    0.0600000   4.903125e-07  9.576416e-13
    120    129   2   0.50000    -0.5000000    0.0600000   3.205360e-04  1.719281e-07
    120    130   2   0.50000    -0.5000000    0.0600000   3.205360e-04  1.719281e-07
    120    131   2   0.50000    -0.5000000    0.0600000   3.205360e-04  1.719281e-07
    123    129   2   0.50000    -0.1800000    0.0600000   2.494471e-04  1.671101e-07
    123    130   2   0.50000    -0.1800000    0.0600000   2.494471e-04  1.671101e-07
    123    131   2   0.50000    -0.1800000    0.0600000   2.494471e-04  1.671101e-07
    128    129   2   0.50000     0.0600000    0.0600000   6.128906e-05  1.496315e-08
    128    130   2   0.50000     0.0600000    0.0600000   6.128906e-05  1.496315e-08
    128    131   2   0.50000     0.0600000    0.0600000   6.128906e-05  1.496315e-08
    120    132   2   0.50000    -0.5000000    0.0600000   3.205360e-04  1.719281e-07
    120    133   2   0.50000    -0.5000000    0.0600000   3.205360e-04  1.719281e-07
    120    134   2   0.50000    -0.5000000    0.0600000   3.205360e-04  1.719281e-07
    122    132   2   0.50000    -0.1800000    0.0600000   2.494471e-04  1.671101e-07
    122    133   2   0.50000    -0.1800000    0.0600000   2.494471e-04  1.671101e-07
    122    134   2   0.50000    -0.1800000    0.0600000   2.494471e-04  1.671101e-07
    128    132   2   0.50000     0.0600000    0.0600000   6.128906e-05  1.496315e-08
    128    133   2   0.50000     0.0600000    0.0600000   6.128906e-05  1.496315e-08
    128    134   2   0.50000     0.0600000    0.0600000   6.128906e-05  1.496315e-08
    117    137   2   0.50000    -0.0600000    0.5000000   1.575021e-03  3.561100e-06
    117    145   2   0.50000    -0.0600000    0.0600000   2.494471e-04  1.671101e-07
    117    154   2   0.50000    -0.0600000   -0.1200000   1.015252e-03  1.866303e-06
    143    137   2   0.50000     0.0600000    0.5000000   3.869820e-04  3.188634e-07
    143    145   2   0.50000     0.0600000    0.0600000   6.128906e-05  1.496315e-08
    143    154   2   0.50000     0.0600000   -0.1200000   2.494471e-04  1.671101e-07
    144    137   2   0.50000     0.0600000    0.5000000   3.869820e-04  3.188634e-07
    144    145   2   0.50000     0.0600000    0.0600000   6.128906e-05  1.496315e-08
    144    154   2   0.50000     0.0600000   -0.1200000   2.494471e-04  1.671101e-07
    135    138   2   0.50000    -0.1200000   -0.5000000   1.095425e-03  1.218041e-06
    135    139   2   0.50000    -0.1200000   -0.5000000   1.304585e-03  1.920112e-06
    145    138   2   0.50000     0.0600000   -0.5000000   2.691455e-04  1.090642e-07
    145    139   2   0.50000     0.0600000   -0.5000000   3.205360e-04  1.719281e-07
    154    138   2   0.50000    -0.1200000   -0.5000000   1.095425e-03  1.218041e-06
    154    139   2   0.50000    -0.1200000   -0.5000000   1.304585e-03  1.920112e-06
    135    155   2   0.50000    -0.1200000   -0.0600000   1.015252e-03  1.866303e-06
    135    162   2   0.50000    -0.1200000    0.0600000   2.494471e-04  1.671101e-07
    135    163   2   0.50000    -0.1200000    0.0600000   2.494471e-04  1.671101e-07
    137    155   2   0.50000     0.5000000   -0.0600000   1.575021e-03  3.561100e-06
    137    162   2   0.50000     0.5000000    0.0600000   3.869820e-04  3.188634e-07
    137    163   2   0.50000     0.5000000    0.0600000   3.869820e-04  3.188634e-07
    145    155   2   0.50000     0.0600000   -0.0600000   2.494471e-04  1.671101e-07
    145    162   2   0.50000     0.0600000    0.0600000   6.128906e-05  1.496315e-08
    145    163   2   0.50000     0.0600000    0.0600000   6.128906e-05  1.496315e-08
    136    140   2   0.50000    -0.0600000    0.1400000   1.015252e-03  1.866303e-06
    136    146   2   0.50000    -0.0600000    0.3000000   1.995577e-06  1.069504e-11
    138    140   2   0.50000    -0.5000000    0.1400000   1.095425e-03  1.218041e-06
    138    146   2   0.50000    -0.5000000    0.3000000   2.153164e-06  6.980110e-12
    137    141   2   0.50000     0.5000000   -0.1800000   1.575021e-03  3.561100e-06
    137    142   2   0.50000     0.5000000   -0.1800000   1.575021e-03  3.561100e-06
    137    147   2   0.50000     0.5000000    0.0600000   3.869820e-04  3.188634e-07
    146    141   2   0.50000     0.3000000   -0.1800000   1.995577e-06  1.069504e-11
    146    142   2   0.50000     0.3000000   -0.1800000   1.995577e-06  1.069504e-11
    146    147   2   0.50000     0.3000000    0.0600000   4.903125e-07  9.576416e-13
    139    148   2   0.50000    -0.5000000    0.0600000   3.205360e-04  1.719281e-07
    139    149   2   0.50000    -0.5000000    0.0600000   3.205360e-04  1.719281e-07
    139    150   2   0.50000    -0.5000000    0.0600000   3.205360e-04  1.719281e-07
    142    148   2   0.50000    -0.1800000    0.0600000   2.494471e-04  1.671101e-07
    142    149   2   0.50000    -0.1800000    0.0600000   2.494471e-04  1.671101e-07
    142    150   2   0.50000    -0.1800000    0.0600000   2.494471e-04  1.671101e-07
    147    148   2   0.50000     0.0600000    0.0600000   6.128906e-05  1.496315e-08
    147    149   2   0.50000     0.0600000    0.0600000   6.128906e-05  1.496315e-08
    147    150   2   0.50000     0.0600000    0.0600000   6.128906e-05  1.496315e-08
    139    151   2   0.50000    -0.5000000    0.0600000   3.205360e-04  1.719281e-07
    139    152   2   0.50000    -0.5000000    0.0600000   3.205360e-04  1.719281e-07
    139    153   2   0.50000    -0.5000000    0.0600000   3.205360e-04  1.719281e-07
    141    151   2   0.50000    -0.1800000    0.0600000   2.494471e-04  1.671101e-07
    141    152   2   0.50000    -0.1800000    0.0600000   2.494471e-04  1.671101e-07
    141    153   2   0.50000    -0.1800000    0.0600000   2.494471e-04  1.671101e-07
    147    151   2   0.50000     0.0600000    0.0600000   6.128906e-05  1.496315e-08
    147    152   2   0.50000     0.0600000    0.0600000   6.128906e-05  1.496315e-08
    147    153   2   0.50000     0.0600000    0.0600000   6.128906e-05  1.496315e-08
    136    156   2   0.50000    -0.0600000    0.5000000   1.575021e-03  3.561100e-06
    136    164   2   0.50000    -0.0600000    0.0600000   2.494471e-04  1.671101e-07
    136    173   2   0.50000    -0.0600000   -0.1200000   1.015252e-03  1.866303e-06
    162    156   2   0.50000     0.0600000    0.5000000   3.869820e-04  3.188634e-07
    162    164   2   0.50000     0.0600000    0.0600000   6.128906e-05  1.496315e-08
    162    173   2   0.50000     0.0600000   -0.1200000   2.494471e-04  1.671101e-07
    163    156   2   0.50000     0.0600000    0.5000000   3.869820e-04  3.188634e-07
    163    164   2   0.50000     0.0600000    0.0600000   6.128906e-05  1.496315e-08
    163    173   2   0.50000     0.0600000   -0.1200000   2.494471e-04  1.671101e-07
    154    157   2   0.50000    -0.1200000   -0.5000000   1.095425e-03  1.218041e-06
    154    158   2   0.50000    -0.1200000   -0.5000000   1.304585e-03  1.920112e-06
    164    157   2   0.50000     0.0600000   -0.5000000   2.691455e-04  1.090642e-07
    164    158   2   0.50000     0.0600000   -0.5000000   3.205360e-04  1.719281e-07
    173    157   2   0.50000    -0.1200000   -0.5000000   1.095425e-03  1.218041e-06
    173    158   2   0.50000    -0.1200000   -0.5000000   1.304585e-03  1.920112e-06
    154    174   2   0.50000    -0.1200000   -0.0600000   1.015252e-03  1.866303e-06
    154    181   2   0.50000    -0.1200000    0.0600000   2.494471e-04  1.671101e-07
    154    182   2   0.50000    -0.1200000    0.0600000   2.494471e-04  1.671101e-07
    156    174   2   0.50000     0.5000000   -0.0600000   1.575021e-03  3.561100e-06
    156    181   2   0.50000     0.5000000    0.0600000   3.869820e-04  3.188634e-07
    156    182   2   0.50000     0.5000000    0.0600000   3.869820e-04  3.188634e-07
    164    174   2   0.50000     0.0600000   -0.0600000   2.494471e-04  1.671101e-07
    164    181   2   0.50000     0.0600000    0.0600000   6.128906e-05  1.496315e-08
    164    182   2   0.50000     0.0600000    0.0600000   6.128906e-05  1.496315e-08
    155    159   2   0.50000    -0.0600000    0.1400000   1.015252e-03  1.866303e-06
    155    165   2   0.50000    -0.0600000    0.3000000   1.995577e-06  1.069504e-11
    157    159   2   0.50000    -0.5000000    0.1400000   1.095425e-03  1.218041e-06
    157    165   2   0.50000    -0.5000000    0.3000000   2.153164e-06  6.980110e-12
    156    160   2   0.50000     0.5000000   -0.1800000   1.575021e-03  3.561100e-06
    156    161   2   0.50000     0.5000000   -0.1800000   1.575021e-03  3.561100e-06
    156    166   2   0.50000     0.5000000    0.0600000   3.869820e-04  3.188634e-07
    165    160   2   0.50000     0.3000000   -0.1800000   1.995577e-06  1.069504e-11
    165    161   2   0.50000     0.3000000   -0.1800000   1.995577e-06  1.069504e-11
    165    166   2   0.50000     0.3000000    0.0600000   4.903125e-07  9.576416e-13
    158    167   2   0.50000    -0.5000000    0.0600000   3.205360e-04  1.719281e-07
    158    168   2   0.50000    -0.5000000    0.0600000   3.205360e-04  1.719281e-07
    158    169   2   0.50000    -0.5000000    0.0600000   3.205360e-04  1.719281e-07
    161    167   2   0.50000    -0.1800000    0.0600000   2.494471e-04  1.671101e-07
    161    168   2   0.50000    -0.1800000    0.0600000   2.494471e-04  1.671101e-07
    161    169   2   0.50000    -0.1800000    0.0600000   2.494471e-04  1.671101e-07
    166    167   2   0.50000     0.0600000    0.0600000   6.128906e-05  1.496315e-08
    166    168   2   0.50000     0.0600000    0.0600000   6.128906e-05  1.496315e-08
    166    169   2   0.50000     0.0600000    0.0600000   6.128906e-05  1.496315e-08
    158    170   2   0.50000    -0.5000000    0.0600000   3.205360e-04  1.719281e-07
    158    171   2   0.50000    -0.5000000    0.0600000   3.205360e-04  1.719281e-07
    158    172   2   0.50000    -0.5000000    0.0600000   3.205360e-04  1.719281e-07
    160    170   2   0.50000    -0.1800000    0.0600000   2.494471e-04  1.671101e-07
    160    171   2   0.50000    -0.1800000    0.0600000   2.494471e-04  1.671101e-07
    160    172   2   0.50000    -0.1800000    0.0600000   2.494471e-04  1.671101e-07
    166    170   2   0.50000     0.0600000    0.0600000   6.128906e-05  1.496315e-08
    166    171   2   0.50000     0.0600000    0.0600000   6.128906e-05  1.496315e-08
    166    172   2   0.50000     0.0600000    0.0600000   6.128906e-05  1.496315e-08
    155    175   2   0.50000    -0.0600000    0.5000000   1.575021e-03  3.561100e-06
    155    183   2   0.50000    -0.0600000    0.0600000   2.494471e-04  1.671101e-07
    155    192   2   0.50000    -0.0600000   -0.1200000   1.015252e-03  1.866303e-06
    181    175   2   0.50000     0.0600000    0.5000000   3.869820e-04  3.188634e-07
    181    183   2   0.50000     0.0600000    0.0600000   6.128906e-05  1.496315e-08
    181    192   2   0.50000     0.0600000   -0.1200000   2.494471e-04  1.671101e-07
    182    175   2   0.50000     0.0600000    0.5000000   3.869820e-04  3.188634e-07
    182    183   2   0.50000     0.0600000    0.0600000   6.128906e-05  1.496315e-08
    182    192   2   0.50000     0.0600000   -0.1200000   2.494471e-04  1.671101e-07
    173    176   2   0.50000    -0.1200000   -0.5000000   1.095425e-03  1.218041e-06
    173    177   2   0.50000    -0.1200000   -0.5000000   1.304585e-03  1.920112e-06
    183    176   2   0.50000     0.0600000   -0.5000000   2.691455e-04  1.090642e-07
    183    177   2   0.50000     0.0600000   -0.5000000   3.205360e-04  1.719281e-07
    192    176   2   0.50000    -0.1200000   -0.5000000   1.095425e-03  1.218041e-06
    192    177   2   0.50000    -0.1200000   -0.5000000   1.304585e-03  1.920112e-06
    173    193   2   0.50000    -0.1200000   -0.0600000   1.015252e-03  1.866303e-06
    173    200   2   0.50000    -0.1200000    0.0600000   2.494471e-04  1.671101e-07
    173    201   2   0.50000    -0.1200000    0.0600000   2.494471e-04  1.671101e-07
    175    193   2   0.50000     0.5000000   -0.0600000   1.575021e-03  3.561100e-06
    175    200   2   0.50000     0.5000000    0.0600000   3.869820e-04  3.188634e-07
    175    201   2   0.50000     0.5000000    0.0600000   3.869820e-04  3.188634e-07
    183    193   2   0.50000     0.0600000   -0.0600000   2.494471e-04  1.671101e-07
    183    200   2   0.50000     0.0600000    0.0600000   6.128906e-05  1.496315e-08
    183    201   2   0.50000     0.0600000    0.0600000   6.128906e-05  1.496315e-08
    174    178   2   0.50000    -0.0600000    0.1400000   1.015252e-03  1.866303e-06
    174    184   2   0.50000    -0.0600000    0.3000000   1.995577e-06  1.069504e-11
    176    178   2   0.50000    -0.5000000    0.1400000   1.095425e-03  1.218041e-06
    176    184   2   0.50000    -0.5000000    0.3000000   2.153164e-06  6.980110e-12
    175    179   2   0.50000     0.5000000   -0.1800000   1.575021e-03  3.561100e-06
    175    180   2   0.50000     0.5000000   -0.1800000   1.575021e-03  3.561100e-06
    175    185   2   0.50000     0.5000000    0.0600000   3.869820e-04  3.188634e-07
    184    179   2   0.50000     0.3000000   -0.1800000   1.995577e-06  1.069504e-11
    184    180   2   0.50000     0.3000000   -0.1800000   1.995577e-06  1.069504e-11
    184    185   2   0.50000     0.3000000    0.0600000   4.903125e-07  9.576416e-13
    177    186   2   0.50000    -0.5000000    0.0600000   3.205360e-04  1.719281e-07
    177    187   2   0.50000    -0.5000000    0.0600000   3.205360e-04  1.719281e-07
    177    188   2   0.50000    -0.5000000    0.0600000   3.205360e-04  1.719281e-07
    180    186   2   0.50000    -0.1800000    0.0600000   2.494471e-04  1.671101e-07
    180    187   2   0.50000    -0.1800000    0.0600000   2.494471e-04  1.671101e-07
    180    188   2   0.50000    -0.1800000    0.0600000   2.494471e-04  1.671101e-07
    185    186   2   0.50000     0.0600000    0.0600000   6.128906e-05  1.496315e-08
    185    187   2   0.50000     0.0600000    0.0600000   6.128906e-05  1.496315e-08
    185    188   2   0.50000     0.0600000    0.0600000   6.128906e-05  1.496315e-08
    177    189   2   0.50000    -0.5000000    0.0600000   3.205360e-04  1.719281e-07
    177    190   2   0.50000    -0.5000000    0.0600000   3.205360e-04  1.719281e-07
    177    191   2   0.50000    -0.5000000    0.0600000   3.205360e-04  1.719281e-07
    179    189   2   0.50000    -0.1800000    0.0600000   2.494471e-04  1.671101e-07
    179    190   2   0.50000    -0.1800000    0.0600000   2.494471e-04  1.671101e-07
    179    191   2   0.50000    -0.1800000    0.0600000   2.494471e-04  1.671101e-07
    185    189   2   0.50000     0.0600000    0.0600000   6.128906e-05  1.496315e-08
    185    190   2   0.50000     0.0600000    0.0600000   6.128906e-05  1.496315e-08
    185    191   2   0.50000     0.0600000    0.0600000   6.128906e-05  1.496315e-08
    174    194   2   0.50000    -0.0600000    0.5000000   1.575021e-03  3.561100e-06
    174    202   2   0.50000    -0.0600000    0.0600000   2.494471e-04  1.671101e-07
    174    211   2   0.50000    -0.0600000   -0.1200000   1.015252e-03  1.866303e-06
    200    194   2   0.50000     0.0600000    0.5000000   3.869820e-04  3.188634e-07
    200    202   2   0.50000     0.0600000    0.0600000   6.128906e-05  1.496315e-08
    200    211   2   0.50000     0.0600000   -0.1200000   2.494471e-04  1.671101e-07
    201    194   2   0.50000     0.0600000    0.5000000   3.869820e-04  3.188634e-07
    201    202   2   0.50000     0.0600000    0.0600000   6.128906e-05  1.496315e-08
    201    211   2   0.50000     0.0600000   -0.1200000   2.494471e-04  1.671101e-07
    192    195   2   0.50000    -0.1200000   -0.5000000   1.095425e-03  1.218041e-06
    192    196   2   0.50000    -0.1200000   -0.5000000   1.304585e-03  1.920112e-06
    202    195   2   0.50000     0.0600000   -0.5000000   2.691455e-04  1.090642e-07
    202    196   2   0.50000     0.0600000   -0.5000000   3.205360e-04  1.719281e-07
    211    195   2   0.50000    -0.1200000   -0.5000000   1.095425e-03  1.218041e-06
    211    196   2   0.50000    -0.1200000   -0.5000000   1.304585e-03  1.920112e-06
    192    212   2   0.50000    -0.1200000   -0.0600000   1.015252e-03  1.866303e-06
    192    219   2   0.50000    -0.1200000    0.0600000   2.494471e-04  1.671101e-07
    192    220   2   0.50000    -0.1200000    0.0600000   2.494471e-04  1.671101e-07
    194    212   2   0.50000     0.5000000   -0.0600000   1.575021e-03  3.561100e-06
    194    219   2   0.50000     0.5000000    0.0600000   3.869820e-04  3.188634e-07
    194    220   2   0.50000     0.5000000    0.0600000   3.869820e-04  3.188634e-07
    202    212   2   0.50000     0.0600000   -0.0600000   2.494471e-04  1.671101e-07
    202    219   2   0.50000     0.0600000    0.0600000   6.128906e-05  1.496315e-08
    202    220   2   0.50000     0.0600000    0.0600000   6.128906e-05  1.496315e-08
    193    197   2   0.50000    -0.0600000    0.1400000   1.015252e-03  1.866303e-06
    193    203   2   0.50000    -0.0600000    0.3000000   1.995577e-06  1.069504e-11
    195    197   2   0.50000    -0.5000000    0.1400000   1.095425e-03  1.218041e-06
    195    203   2   0.50000    -0.5000000    0.3000000   2.153164e-06  6.980110e-12
    194    198   2   0.50000     0.5000000   -0.1800000   1.575021e-03  3.561100e-06
    194    199   2   0.50000     0.5000000   -0.1800000   1.575021e-03  3.561100e-06
    194    204   2   0.50000     0.5000000    0.0600000   3.869820e-04  3.188634e-07
    203    198   2   0.50000     0.3000000   -0.1800000   1.995577e-06  1.069504e-11
    203    199   2   0.50000     0.3000000   -0.1800000   1.995577e-06  1.069504e-11
    203    204   2   0.50000     0.3000000    0.0600000   4.903125e-07  9.576416e-13
    196    205   2   0.50000    -0.5000000    0.0600000   3.205360e-04  1.719281e-07
    196    206   2   0.50000    -0.5000000    0.0600000   3.205360e-04  1.719281e-07
    196    207   2   0.50000    -0.5000000    0.0600000   3.205360e-04  1.719281e-07
    199    205   2   0.50000    -0.1800000    0.0600000   2.494471e-04  1.671101e-07
    199    206   2   0.50000    -0.1800000    0.0600000   2.494471e-04  1.671101e-07
    199    207   2   0.50000    -0.1800000    0.0600000   2.494471e-04  1.671101e-07
    204    205   2   0.50000     0.0600000    0.0600000   6.128906e-05  1.496315e-08
    204    206   2   0.50000     0.0600000    0.0600000   6.128906e-05  1.496315e-08
    204    207   2   0.50000     0.0600000    0.0600000   6.128906e-05  1.496315e-08
    196    208   2   0.50000    -0.5000000    0.0600000   3.205360e-04  1.719281e-07
    196    209   2   0.50000    -0.5000000    0.0600000   3.205360e-04  1.719281e-07
    196    210   2   0.50000    -0.5000000    0.0600000   3.205360e-04  1.719281e-07
    198    208   2   0.50000    -0.1800000    0.0600000   2.494471e-04  1.671101e-07
    198    209   2   0.50000    -0.1800000    0.0600000   2.494471e-04  1.671101e-07
    198    210   2   0.50000    -0.1800000    0.0600000   2.494471e-04  1.671101e-07
    204    208   2   0.50000     0.0600000    0.0600000   6.128906e-05  1.496315e-08
    204    209   2   0.50000     0.0600000    0.0600000   6.128906e-05  1.496315e-08
    204    210   2   0.50000     0.0600000    0.0600000   6.128906e-05  1.496315e-08
    193    213   2   0.50000    -0.0600000    0.5000000   1.575021e-03  3.561100e-06
    193    221   2   0.50000    -0.0600000    0.0600000   2.494471e-04  1.671101e-07
    193    230   2   0.50000    -0.0600000   -0.1200000   1.015252e-03  1.866303e-06
    219    213   2   0.50000     0.0600000    0.5000000   3.869820e-04  3.188634e-07
    219    221   2   0.50000     0.0600000    0.0600000   6.128906e-05  1.496315e-08
    219    230   2   0.50000     0.0600000   -0.1200000   2.494471e-04  1.671101e-07
    220    213   2   0.50000     0.0600000    0.5000000   3.869820e-04  3.188634e-07
    220    221   2   0.50000     0.0600000    0.0600000   6.128906e-05  1.496315e-08
    220    230   2   0.50000     0.0600000   -0.1200000   2.494471e-04  1.671101e-07
    211    214   2   0.50000    -0.1200000   -0.5000000   1.095425e-03  1.218041e-06
    211    215   2   0.50000    -0.1200000   -0.5000000   1.304585e-03  1.920112e-06
    221    214   2   0.50000     0.0600000   -0.5000000   2.691455e-04  1.090642e-07
    221    215   2   0.50000     0.0600000   -0.5000000   3.205360e-04  1.719281e-07
    230    214   2   0.50000    -0.1200000   -0.5000000   1.095425e-03  1.218041e-06
    230    215   2   0.50000    -0.1200000   -0.5000000   1.304585e-03  1.920112e-06
    211    231   2   0.50000    -0.1200000   -0.0600000   1.015252e-03  1.866303e-06
    211    238   2   0.50000    -0.1200000    0.0600000   2.494471e-04  1.671101e-07
    211    239   2   0.50000    -0.1200000    0.0600000   2.494471e-04  1.671101e-07
    213    231   2   0.50000     0.5000000   -0.0600000   1.575021e-03  3.561100e-06
    213    238   2   0.50000     0.5000000    0.0600000   3.869820e-04  3.188634e-07
    213    239   2   0.50000     0.5000000    0.0600000   3.869820e-04  3.188634e-07
    221    231   2   0.50000     0.0600000   -0.0600000   2.494471e-04  1.671101e-07
    221    238   2   0.50000     0.0600000    0.0600000   6.128906e-05  1.496315e-08
    221    239   2   0.50000     0.0600000    0.0600000   6.128906e-05  1.496315e-08
    212    216   2   0.50000    -0.0600000    0.1400000   1.015252e-03  1.866303e-06
    212    222   2   0.50000    -0.0600000    0.3000000   1.995577e-06  1.069504e-11
    214    216   2   0.50000    -0.5000000    0.1400000   1.095425e-03  1.218041e-06
    214    222   2   0.50000    -0.5000000    0.3000000   2.153164e-06  6.980110e-12
    213    217   2   0.50000     0.5000000   -0.1800000   1.575021e-03  3.561100e-06
    213    218   2   0.50000     0.5000000   -0.1800000   1.575021e-03  3.561100e-06
    213    223   2   0.50000     0.5000000    0.0600000   3.869820e-04  3.188634e-07
    222    217   2   0.50000     0.3000000   -0.1800000   1.995577e-06  1.069504e-11
    222    218   2   0.50000     0.3000000   -0.1800000   1.995577e-06  1.069504e-11
    222    223   2   0.50000     0.3000000    0.0600000   4.903125e-07  9.576416e-13
    215    224   2   0.50000    -0.5000000    0.0600000   3.205360e-04  1.719281e-07
    215    225   2   0.50000    -0.5000000    0.0600000   3.205360e-04  1.719281e-07
    215    226   2   0.50000    -0.5000000    0.0600000   3.205360e-04  1.719281e-07
    218    224   2   0.50000    -0.1800000    0.0600000   2.494471e-04  1.671101e-07
    218    225   2   0.50000    -0.1800000    0.0600000   2.494471e-04  1.671101e-07
    218    226   2   0.50000    -0.1800000    0.0600000   2.494471e-04  1.671101e-07
    223    224   2   0.50000     0.0600000    0.0600000   6.128906e-05  1.496315e-08
    223    225   2   0.50000     0.0600000    0.0600000   6.128906e-05  1.496315e-08
    223    226   2   0.50000     0.0600000    0.0600000   6.128906e-05  1.496315e-08
    215    227   2   0.50000    -0.5000000    0.0600000   3.205360e-04  1.719281e-07
    215    228   2   0.50000    -0.5000000    0.0600000   3.205360e-04  1.719281e-07
    215    229   2   0.50000    -0.5000000    0.0600000   3.205360e-04  1.719281e-07
    217    227   2   0.50000    -0.1800000    0.0600000   2.494471e-04  1.671101e-07
    217    228   2   0.50000    -0.1800000    0.0600000   2.494471e-04  1.671101e-07
    217    229   2   0.50000    -0.1800000    0.0600000   2.494471e-04  1.671101e-07
    223    227   2   0.50000     0.0600000    0.0600000   6.128906e-05  1.496315e-08
    223    228   2   0.50000     0.0600000    0.0600000   6.128906e-05  1.496315e-08
    223    229   2   0.50000     0.0600000    0.0600000   6.128906e-05  1.496315e-08
    212    232   2   0.50000    -0.0600000    0.5000000   1.575021e-03  3.561100e-06
    212    240   2   0.50000    -0.0600000    0.0600000   2.494471e-04  1.671101e-07
    212    249   2   0.50000    -0.0600000   -0.1200000   1.015252e-03  1.866303e-06
    238    232   2   0.50000     0.0600000    0.5000000   3.869820e-04  3.188634e-07
    238    240   2   0.50000     0.0600000    0.0600000   6.128906e-05  1.496315e-08
    238    249   2   0.50000     0.0600000   -0.1200000   2.494471e-04  1.671101e-07
    239    232   2   0.50000     0.0600000    0.5000000   3.869820e-04  3.188634e-07
    239    240   2   0.50000     0.0600000    0.0600000   6.128906e-05  1.496315e-08
    239    249   2   0.50000     0.0600000   -0.1200000   2.494471e-04  1.671101e-07
    230    233   2   0.50000    -0.1200000   -0.5000000   1.095425e-03  1.218041e-06
    230    234   2   0.50000    -0.1200000   -0.5000000   1.304585e-03  1.920112e-06
    240    233   2   0.50000     0.0600000   -0.5000000   2.691455e-04  1.090642e-07
    240    234   2   0.50000     0.0600000   -0.5000000   3.205360e-04  1.719281e-07
    249    233   2   0.50000    -0.1200000   -0.5000000   1.095425e-03  1.218041e-06
    249    234   2   0.50000    -0.1200000   -0.5000000   1.304585e-03  1.920112e-06
    230    250   2   0.50000    -0.1200000   -0.0600000   1.015252e-03  1.866303e-06
    230    257   2   0.50000    -0.1200000    0.0600000   2.494471e-04  1.671101e-07
    230    258   2   0.50000    -0.1200000    0.0600000   2.494471e-04  1.671101e-07
    232    250   2   0.50000     0.5000000   -0.0600000   1.575021e-03  3.561100e-06
    232    257   2   0.50000     0.5000000    0.0600000   3.869820e-04  3.188634e-07
    232    258   2   0.50000     0.5000000    0.0600000   3.869820e-04  3.188634e-07
    240    250   2   0.50000     0.0600000   -0.0600000   2.494471e-04  1.671101e-07
    240    257   2   0.50000     0.0600000    0.0600000   6.128906e-05  1.496315e-08
    240    258   2   0.50000     0.0600000    0.0600000   6.128906e-05  1.496315e-08
    231    235   2   0.50000    -0.0600000    0.1400000   1.015252e-03  1.866303e-06
    231    241   2   0.50000    -0.0600000    0.3000000   1.995577e-06  1.069504e-11
    233    235   2   0.50000    -0.5000000    0.1400000   1.095425e-03  1.218041e-06
    233    241   2   0.50000    -0.5000000    0.3000000   2.153164e-06  6.980110e-12
    232    236   2   0.50000     0.5000000   -0.1800000   1.575021e-03  3.561100e-06
    232    237   2   0.50000     0.5000000   -0.1800000   1.575021e-03  3.561100e-06
    232    242   2   0.50000     0.5000000    0.0600000   3.869820e-04  3.188634e-07
    241    236   2   0.50000     0.3000000   -0.1800000   1.995577e-06  1.069504e-11
    241    237   2   0.50000     0.3000000   -0.1800000   1.995577e-06  1.069504e-11
    241    242   2   0.50000     0.3000000    0.0600000   4.903125e-07  9.576416e-13
    234    243   2   0.50000    -0.5000000    0.0600000   3.205360e-04  1.719281e-07
    234    244   2   0.50000    -0.5000000    0.0600000   3.205360e-04  1.719281e-07
    234    245   2   0.50000    -0.5000000    0.0600000   3.205360e-04  1.719281e-07
    237    243   2   0.50000    -0.1800000    0.0600000   2.494471e-04  1.671101e-07
    237    244   2   0.50000    -0.1800000    0.0600000   2.494471e-04  1.671101e-07
    237    245   2   0.50000    -0.1800000    0.0600000   2.494471e-04  1.671101e-07
    242    243   2   0.50000     0.0600000    0.0600000   6.128906e-05  1.496315e-08
    242    244   2   0.50000     0.0600000    0.0600000   6.128906e-05  1.496315e-08
    242    245   2   0.50000     0.0600000    0.0600000   6.128906e-05  1.496315e-08
    234    246   2   0.50000    -0.5000000    0.0600000   3.205360e-04  1.719281e-07
    234    247   2   0.50000    -0.5000000    0.0600000   3.205360e-04  1.719281e-07
    234    248   2   0.50000    -0.5000000    0.0600000   3.205360e-04  1.719281e-07
    236    246   2   0.50000    -0.1800000    0.0600000   2.494471e-04  1.671101e-07
    236    247   2   0.50000    -0.1800000    0.0600000   2.494471e-04  1.671101e-07
    236    248   2   0.50000    -0.1800000    0.0600000   2.494471e-04  1.671101e-07
    242    246   2   0.50000     0.0600000    0.0600000   6.128906e-05  1.496315e-08
    242    247   2   0.50000     0.0600000    0.0600000   6.128906e-05  1.496315e-08
    242    248   2   0.50000     0.0600000    0.0600000   6.128906e-05  1.496315e-08
    231    251   2   0.50000    -0.0600000    0.5000000   1.575021e-03  3.561100e-06
    231    259   2   0.50000    -0.0600000    0.0600000   2.494471e-04  1.671101e-07
    231    268   2   0.50000    -0.0600000   -0.1200000   1.015252e-03  1.866303e-06
    257    251   2   0.50000     0.0600000    0.5000000   3.869820e-04  3.188634e-07
    257    259   2   0.50000     0.0600000    0.0600000   6.128906e-05  1.496315e-08
    257    268   2   0.50000     0.0600000   -0.1200000   2.494471e-04  1.671101e-07
    258    251   2   0.50000     0.0600000    0.5000000   3.869820e-04  3.188634e-07
    258    259   2   0.50000     0.0600000    0.0600000   6.128906e-05  1.496315e-08
    258    268   2   0.50000     0.0600000   -0.1200000   2.494471e-04  1.671101e-07
    249    252   2   0.50000    -0.1200000   -0.5000000   1.095425e-03  1.218041e-06
    249    253   2   0.50000    -0.1200000   -0.5000000   1.304585e-03  1.920112e-06
    259    252   2   0.50000     0.0600000   -0.5000000   2.691455e-04  1.090642e-07
    259    253   2   0.50000     0.0600000   -0.5000000   3.205360e-04  1.719281e-07
    268    252   2   0.50000    -0.1200000   -0.5000000   1.095425e-03  1.218041e-06
    268    253   2   0.50000    -0.1200000   -0.5000000   1.304585e-03  1.920112e-06
    249    269   2   0.50000    -0.1200000   -0.0600000   1.015252e-03  1.866303e-06
    249    276   2   0.50000    -0.1200000    0.0600000   2.494471e-04  1.671101e-07
    249    277   2   0.50000    -0.1200000    0.0600000   2.494471e-04  1.671101e-07
    251    269   2   0.50000     0.5000000   -0.0600000   1.575021e-03  3.561100e-06
    251    276   2   0.50000     0.5000000    0.0600000   3.869820e-04  3.188634e-07
    251    277   2   0.50000     0.5000000    0.0600000   3.869820e-04  3.188634e-07
    259    269   2   0.50000     0.0600000   -0.0600000   2.494471e-04  1.671101e-07
    259    276   2   0.50000     0.0600000    0.0600000   6.128906e-05  1.496315e-08
    259    277   2   0.50000     0.0600000    0.0600000   6.128906e-05  1.496315e-08
    250    254   2   0.50000    -0.0600000    0.1400000   1.015252e-03  1.866303e-06
    250    260   2   0.50000    -0.0600000    0.3000000   1.995577e-06  1.069504e-11
    252    254   2   0.50000    -0.5000000    0.1400000   1.095425e-03  1.218041e-06
    252    260   2   0.50000    -0.5000000    0.3000000   2.153164e-06  6.980110e-12
    251    255   2   0.50000     0.5000000   -0.1800000   1.575021e-03  3.561100e-06
    251    256   2   0.50000     0.5000000   -0.1800000   1.575021e-03  3.561100e-06
    251    261   2   0.50000     0.5000000    0.0600000   3.869820e-04  3.188634e-07
    260    255   2   0.50000     0.3000000   -0.1800000   1.995577e-06  1.069504e-11
    260    256   2   0.50000     0.3000000   -0.1800000   1.995577e-06  1.069504e-11
    260    261   2   0.50000     0.3000000    0.0600000   4.903125e-07  9.576416e-13
    253    262   2   0.50000    -0.5000000    0.0600000   3.205360e-04  1.719281e-07
    253    263   2   0.50000    -0.5000000    0.0600000   3.205360e-04  1.719281e-07
    253    264   2   0.50000    -0.5000000    0.0600000   3.205360e-04  1.719281e-07
    256    262   2   0.50000    -0.1800000    0.0600000   2.494471e-04  1.671101e-07
    256    263   2   0.50000    -0.1800000    0.0600000   2.494471e-04  1.671101e-07
    256    264   2   0.50000    -0.1800000    0.0600000   2.494471e-04  1.671101e-07
    261    262   2   0.50000     0.0600000    0.0600000   6.128906e-05  1.496315e-08
    261    263   2   0.50000     0.0600000    0.0600000   6.128906e-05  1.496315e-08
    261    264   2   0.50000     0.0600000    0.0600000   6.128906e-05  1.496315e-08
    253    265   2   0.50000    -0.5000000    0.0600000   3.205360e-04  1.719281e-07
    253    266   2   0.50000    -0.5000000    0.0600000   3.205360e-04  1.719281e-07
    253    267   2   0.50000    -0.5000000    0.0600000   3.205360e-04  1.719281e-07
    255    265   2   0.50000    -0.1800000    0.0600000   2.494471e-04  1.671101e-07
    255    266   2   0.50000    -0.1800000    0.0600000   2.494471e-04  1.671101e-07
    255    267   2   0.50000    -0.1800000    0.0600000   2.494471e-04  1.671101e-07
    261    265   2   0.50000     0.0600000    0.0600000   6.128906e-05  1.496315e-08
    261    266   2   0.50000     0.0600000    0.0600000   6.128906e-05  1.496315e-08
    261    267   2   0.50000     0.0600000    0.0600000   6.128906e-05  1.496315e-08
    250    270   2   0.50000    -0.0600000    0.5000000   1.575021e-03  3.561100e-06
    250    278   2   0.50000    -0.0600000    0.0600000   2.494471e-04  1.671101e-07
    250    287   2   0.50000    -0.0600000   -0.1200000   1.015252e-03  1.866303e-06
    276    270   2   0.50000     0.0600000    0.5000000   3.869820e-04  3.188634e-07
    276    278   2   0.50000     0.0600000    0.0600000   6.128906e-05  1.496315e-08
    276    287   2   0.50000     0.0600000   -0.1200000   2.494471e-04  1.671101e-07
    277    270   2   0.50000     0.0600000    0.5000000   3.869820e-04  3.188634e-07
    277    278   2   0.50000     0.0600000    0.0600000   6.128906e-05  1.496315e-08
    277    287   2   0.50000     0.0600000   -0.1200000   2.494471e-04  1.671101e-07
    268    271   2   0.50000    -0.1200000   -0.5000000   1.095425e-03  1.218041e-06
    268    272   2   0.50000    -0.1200000   -0.5000000   1.304585e-03  1.920112e-06
    278    271   2   0.50000     0.0600000   -0.5000000   2.691455e-04  1.090642e-07
    278    272   2   0.50000     0.0600000   -0.5000000   3.205360e-04  1.719281e-07
    287    271   2   0.50000    -0.1200000   -0.5000000   1.095425e-03  1.218041e-06
    287    272   2   0.50000    -0.1200000   -0.5000000   1.304585e-03  1.920112e-06
    268    288   2   0.50000    -0.1200000   -0.0600000   1.015252e-03  1.866303e-06
    268    295   2   0.50000    -0.1200000    0.0600000   2.494471e-04  1.671101e-07
    268    296   2   0.50000    -0.1200000    0.0600000   2.494471e-04  1.671101e-07
    270    288   2   0.50000     0.5000000   -0.0600000   1.575021e-03  3.561100e-06
    270    295   2   0.50000     0.5000000    0.0600000   3.869820e-04  3.188634e-07
    270    296   2   0.50000     0.5000000    0.0600000   3.869820e-04  3.188634e-07
    278    288   2   0.50000     0.0600000   -0.0600000   2.494471e-04  1.671101e-07
    278    295   2   0.50000     0.0600000    0.0600000   6.128906e-05  1.496315e-08
    278    296   2   0.50000     0.0600000    0.0600000   6.128906e-05  1.496315e-08
    269    273   2   0.50000    -0.0600000    0.1400000   1.015252e-03  1.866303e-06
    269    279   2   0.50000    -0.0600000    0.3000000   1.995577e-06  1.069504e-11
    271    273   2   0.50000    -0.5000000    0.1400000   1.095425e-03  1.218041e-06
    271    279   2   0.50000    -0.5000000    0.3000000   2.153164e-06  6.980110e-12
    270    274   2   0.50000     0.5000000   -0.1800000   1.575021e-03  3.561100e-06
    270    275   2   0.50000     0.5000000   -0.1800000   1.575021e-03  3.561100e-06
    270    280   2   0.50000     0.5000000    0.0600000   3.869820e-04  3.188634e-07
    279    274   2   0.50000     0.3000000   -0.1800000   1.995577e-06  1.069504e-11
    279    275   2   0.50000     0.3000000   -0.1800000   1.995577e-06  1.069504e-11
    279    280   2   0.50000     0.3000000    0.0600000   4.903125e-07  9.576416e-13
    272    281   2   0.50000    -0.5000000    0.0600000   3.205360e-04  1.719281e-07
    272    282   2   0.50000    -0.5000000    0.0600000   3.205360e-04  1.719281e-07
    272    283   2   0.50000    -0.5000000    0.0600000   3.205360e-04  1.719281e-07
    275    281   2   0.50000    -0.1800000    0.0600000   2.494471e-04  1.671101e-07
    275    282   2   0.50000    -0.1800000    0.0600000   2.494471e-04  1.671101e-07
    275    283   2   0.50000    -0.1800000    0.0600000   2.494471e-04  1.671101e-07
    280    281   2   0.50000     0.0600000    0.0600000   6.128906e-05  1.496315e-08
    280    282   2   0.50000     0.0600000    0.0600000   6.128906e-05  1.496315e-08
    280    283   2   0.50000     0.0600000    0.0600000   6.128906e-05  1.496315e-08
    272    284   2   0.50000    -0.5000000    0.0600000   3.205360e-04  1.719281e-07
    272    285   2   0.50000    -0.5000000    0.0600000   3.205360e-04  1.719281e-07
    272    286   2   0.50000    -0.5000000    0.0600000   3.205360e-04  1.719281e-07
    274    284   2   0.50000    -0.1800000    0.0600000   2.494471e-04  1.671101e-07
    274    285   2   0.50000    -0.1800000    0.0600000   2.494471e-04  1.671101e-07
    274    286   2   0.50000    -0.1800000    0.0600000   2.494471e-04  1.671101e-07
    280    284   2   0.50000     0.0600000    0.0600000   6.128906e-05  1.496315e-08
    280    285   2   0.50000     0.0600000    0.0600000   6.128906e-05  1.496315e-08
    280    286   2   0.50000     0.0600000    0.0600000   6.128906e-05  1.496315e-08
    269    289   2   0.50000    -0.0600000    0.5000000   1.575021e-03  3.561100e-06
    269    297   2   0.50000    -0.0600000    0.0600000   2.494471e-04  1.671101e-07
    269    306   2   0.50000    -0.0600000   -0.1200000   1.015252e-03  1.866303e-06
    295    289   2   0.50000     0.0600000    0.5000000   3.869820e-04  3.188634e-07
    295    297   2   0.50000     0.0600000    0.0600000   6.128906e-05  1.496315e-08
    295    306   2   0.50000     0.0600000   -0.1200000   2.494471e-04  1.671101e-07
    296    289   2   0.50000     0.0600000    0.5000000   3.869820e-04  3.188634e-07
    296    297   2   0.50000     0.0600000    0.0600000   6.128906e-05  1.496315e-08
    296    306   2   0.50000     0.0600000   -0.1200000   2.494471e-04  1.671101e-07
    287    290   2   0.50000    -0.1200000   -0.5000000   1.095425e-03  1.218041e-06
    287    291   2   0.50000    -0.1200000   -0.5000000   1.304585e-03  1.920112e-06
    297    290   2   0.50000     0.0600000   -0.5000000   2.691455e-04  1.090642e-07
    297    291   2   0.50000     0.0600000   -0.5000000   3.205360e-04  1.719281e-07
    306    290   2   0.50000    -0.1200000   -0.5000000   1.095425e-03  1.218041e-06
    306    291   2   0.50000    -0.1200000   -0.5000000   1.304585e-03  1.920112e-06
    287    307   2   0.50000    -0.1200000   -0.0600000   1.015252e-03  1.866303e-06
    287    314   2   0.50000    -0.1200000    0.0600000   2.494471e-04  1.671101e-07
    287    315   2   0.50000    -0.1200000    0.0600000   2.494471e-04  1.671101e-07
    289    307   2   0.50000     0.5000000   -0.0600000   1.575021e-03  3.561100e-06
    289    314   2   0.50000     0.5000000    0.0600000   3.869820e-04  3.188634e-07
    289    315   2   0.50000     0.5000000    0.0600000   3.869820e-04  3.188634e-07
    297    307   2   0.50000     0.0600000   -0.0600000   2.494471e-04  1.671101e-07
    297    314   2   0.50000     0.0600000    0.0600000   6.128906e-05  1.496315e-08
    297    315   2   0.50000     0.0600000    0.0600000   6.128906e-05  1.496315e-08
    288    292   2   0.50000    -0.0600000    0.1400000   1.015252e-03  1.866303e-06
    288    298   2   0.50000    -0.0600000    0.3000000   1.995577e-06  1.069504e-11
    290    292   2   0.50000    -0.5000000    0.1400000   1.095425e-03  1.218041e-06
    290    298   2   0.50000    -0.5000000    0.3000000   2.153164e-06  6.980110e-12
    289    293   2   0.50000     0.5000000   -0.1800000   1.575021e-03  3.561100e-06
    289    294   2   0.50000     0.5000000   -0.1800000   1.575021e-03  3.561100e-06
    289    299   2   0.50000     0.5000000    0.0600000   3.869820e-04  3.188634e-07
    298    293   2   0.50000     0.3000000   -0.1800000   1.995577e-06  1.069504e-11
    298    294   2   0.50000     0.3000000   -0.1800000   1.995577e-06  1.069504e-11
    298    299   2   0.50000     0.3000000    0.0600000   4.903125e-07  9.576416e-13
    291    300   2   0.50000    -0.5000000    0.0600000   3.205360e-04  1.719281e-07
    291    301   2   0.50000    -0.5000000    0.0600000   3.205360e-04  1.719281e-07
    291    302   2   0.50000    -0.5000000    0.0600000   3.205360e-04  1.719281e-07
    294    300   2   0.50000    -0.1800000    0.0600000   2.494471e-04  1.671101e-07
    294    301   2   0.50000    -0.1800000    0.0600000   2.494471e-04  1.671101e-07
    294    302   2   0.50000    -0.1800000    0.0600000   2.494471e-04  1.671101e-07
    299    300   2   0.50000     0.0600000    0.0600000   6.128906e-05  1.496315e-08
    299    301   2   0.50000     0.0600000    0.0600000   6.128906e-05  1.496315e-08
    299    302   2   0.50000     0.0600000    0.0600000   6.128906e-05  1.496315e-08
    291    303   2   0.50000    -0.5000000    0.0600000   3.205360e-04  1.719281e-07
    291    304   2   0.50000    -0.5000000    0.0600000   3.205360e-04  1.719281e-07
    291    305   2   0.50000    -0.5000000    0.0600000   3.205360e-04  1.719281e-07
    293    303   2   0.50000    -0.1800000    0.0600000   2.494471e-04  1.671101e-07
    293    304   2   0.50000    -0.1800000    0.0600000   2.494471e-04  1.671101e-07
    293    305   2   0.50000    -0.1800000    0.0600000   2.494471e-04  1.671101e-07
    299    303   2   0.50000     0.0600000    0.0600000   6.128906e-05  1.496315e-08
    299    304   2   0.50000     0.0600000    0.0600000   6.128906e-05  1.496315e-08
    299    305   2   0.50000     0.0600000    0.0600000   6.128906e-05  1.496315e-08
    288    308   2   0.50000    -0.0600000    0.5000000   1.575021e-03  3.561100e-06
    288    316   2   0.50000    -0.0600000    0.0600000   2.494471e-04  1.671101e-07
    288    325   2   0.50000    -0.0600000   -0.1200000   1.015252e-03  1.866303e-06
    314    308   2   0.50000     0.0600000    0.5000000   3.869820e-04  3.188634e-07
    314    316   2   0.50000     0.0600000    0.0600000   6.128906e-05  1.496315e-08
    314    325   2   0.50000     0.0600000   -0.1200000   2.494471e-04  1.671101e-07
    315    308   2   0.50000     0.0600000    0.5000000   3.869820e-04  3.188634e-07
    315    316   2   0.50000     0.0600000    0.0600000   6.128906e-05  1.496315e-08
    315    325   2   0.50000     0.0600000   -0.1200000   2.494471e-04  1.671101e-07
    306    309   2   0.50000    -0.1200000   -0.5000000   1.095425e-03  1.218041e-06
    306    310   2   0.50000    -0.1200000   -0.5000000   1.304585e-03  1.920112e-06
    316    309   2   0.50000     0.0600000   -0.5000000   2.691455e-04  1.090642e-07
    316    310   2   0.50000     0.0600000   -0.5000000   3.205360e-04  1.719281e-07
    325    309   2   0.50000    -0.1200000   -0.5000000   1.095425e-03  1.218041e-06
    325    310   2   0.50000    -0.1200000   -0.5000000   1.304585e-03  1.920112e-06
    306    326   2   0.50000    -0.1200000   -0.0600000   1.015252e-03  1.866303e-06
    306    333   2   0.50000    -0.1200000    0.0600000   2.494471e-04  1.671101e-07
    306    334   2   0.50000    -0.1200000    0.0600000   2.494471e-04  1.671101e-07
    308    326   2   0.50000     0.5000000   -0.0600000   1.575021e-03  3.561100e-06
    308    333   2   0.50000     0.5000000    0.0600000   3.869820e-04  3.188634e-07
    308    334   2   0.50000     0.5000000    0.0600000   3.869820e-04  3.188634e-07
    316    326   2   0.50000     0.0600000   -0.0600000   2.494471e-04  1.671101e-07
    316    333   2   0.50000     0.0600000    0.0600000   6.128906e-05  1.496315e-08
    316    334   2   0.50000     0.0600000    0.0600000   6.128906e-05  1.496315e-08
    307    311   2   0.50000    -0.0600000    0.1400000   1.015252e-03  1.866303e-06
    307    317   2   0.50000    -0.0600000    0.3000000   1.995577e-06  1.069504e-11
    309    311   2   0.50000    -0.5000000    0.1400000   1.095425e-03  1.218041e-06
    309    317   2   0.50000    -0.5000000    0.3000000   2.153164e-06  6.980110e-12
    308    312   2   0.50000     0.5000000   -0.1800000   1.575021e-03  3.561100e-06
    308    313   2   0.50000     0.5000000   -0.1800000   1.575021e-03  3.561100e-06
    308    318   2   0.50000     0.5000000    0.0600000   3.869820e-04  3.188634e-07
    317    312   2   0.50000     0.3000000   -0.1800000   1.995577e-06  1.069504e-11
    317    313   2   0.50000     0.3000000   -0.1800000   1.995577e-06  1.069504e-11
    317    318   2   0.50000     0.3000000    0.0600000   4.903125e-07  9.576416e-13
    310    319   2   0.50000    -0.5000000    0.0600000   3.205360e-04  1.719281e-07
    310    320   2   0.50000    -0.5000000    0.0600000   3.205360e-04  1.719281e-07
    310    321   2   0.50000    -0.5000000    0.0600000   3.205360e-04  1.719281e-07
    313    319   2   0.50000    -0.1800000    0.0600000   2.494471e-04  1.671101e-07
    313    320   2   0.50000    -0.1800000    0.0600000   2.494471e-04  1.671101e-07
    313    321   2   0.50000    -0.1800000    0.0600000   2.494471e-04  1.671101e-07
    318    319   2   0.50000     0.0600000    0.0600000   6.128906e-05  1.496315e-08
    318    320   2   0.50000     0.0600000    0.0600000   6.128906e-05  1.496315e-08
    318    321   2   0.50000     0.0600000    0.0600000   6.128906e-05  1.496315e-08
    310    322   2   0.50000    -0.5000000    0.0600000   3.205360e-04  1.719281e-07
    310    323   2   0.50000    -0.5000000    0.0600000   3.205360e-04  1.719281e-07
    310    324   2   0.50000    -0.5000000    0.0600000   3.205360e-04  1.719281e-07
    312    322   2   0.50000    -0.1800000    0.0600000   2.494471e-04  1.671101e-07
    312    323   2   0.50000    -0.1800000    0.0600000   2.494471e-04  1.671101e-07
    312    324   2   0.50000    -0.1800000    0.0600000   2.494471e-04  1.671101e-07
    318    322   2   0.50000     0.0600000    0.0600000   6.128906e-05  1.496315e-08
    318    323   2   0.50000     0.0600000    0.0600000   6.128906e-05  1.496315e-08
    318    324   2   0.50000     0.0600000    0.0600000   6.128906e-05  1.496315e-08
    307    327   2   0.50000    -0.0600000    0.5000000   1.575021e-03  3.561100e-06
    307    335   2   0.50000    -0.0600000    0.0600000   2.494471e-04  1.671101e-07
    307    344   2   0.50000    -0.0600000   -0.1200000   1.015252e-03  1.866303e-06
    333    327   2   0.50000     0.0600000    0.5000000   3.869820e-04  3.188634e-07
    333    335   2   0.50000     0.0600000    0.0600000   6.128906e-05  1.496315e-08
    333    344   2   0.50000     0.0600000   -0.1200000   2.494471e-04  1.671101e-07
    334    327   2   0.50000     0.0600000    0.5000000   3.869820e-04  3.188634e-07
    334    335   2   0.50000     0.0600000    0.0600000   6.128906e-05  1.496315e-08
    334    344   2   0.50000     0.0600000   -0.1200000   2.494471e-04  1.671101e-07
    325    328   2   0.50000    -0.1200000   -0.5000000   1.095425e-03  1.218041e-06
    325    329   2   0.50000    -0.1200000   -0.5000000   1.304585e-03  1.920112e-06
    335    328   2   0.50000     0.0600000   -0.5000000   2.691455e-04  1.090642e-07
    335    329   2   0.50000     0.0600000   -0.5000000   3.205360e-04  1.719281e-07
    344    328   2   0.50000    -0.1200000   -0.5000000   1.095425e-03  1.218041e-06
    344    329   2   0.50000    -0.1200000   -0.5000000   1.304585e-03  1.920112e-06
    325    345   2   0.50000    -0.1200000   -0.0600000   1.015252e-03  1.866303e-06
    325    352   2   0.50000    -0.1200000    0.0600000   2.494471e-04  1.671101e-07
    325    353   2   0.50000    -0.1200000    0.0600000   2.494471e-04  1.671101e-07
    327    345   2   0.50000     0.5000000   -0.0600000   1.575021e-03  3.561100e-06
    327    352   2   0.50000     0.5000000    0.0600000   3.869820e-04  3.188634e-07
    327    353   2   0.50000     0.5000000    0.0600000   3.869820e-04  3.188634e-07
    335    345   2   0.50000     0.0600000   -0.0600000   2.494471e-04  1.671101e-07
    335    352   2   0.50000     0.0600000    0.0600000   6.128906e-05  1.496315e-08
    335    353   2   0.50000     0.0600000    0.0600000   6.128906e-05  1.496315e-08
    326    330   2   0.50000    -0.0600000    0.1400000   1.015252e-03  1.866303e-06
    326    336   2   0.50000    -0.0600000    0.3000000   1.995577e-06  1.069504e-11
    328    330   2   0.50000    -0.5000000    0.1400000   1.095425e-03  1.218041e-06
    328    336   2   0.50000    -0.5000000    0.3000000   2.153164e-06  6.980110e-12
    327    331   2   0.50000     0.5000000   -0.1800000   1.575021e-03  3.561100e-06
    327    332   2   0.50000     0.5000000   -0.1800000   1.575021e-03  3.561100e-06
    327    337   2   0.50000     0.5000000    0.0600000   3.869820e-04  3.188634e-07
    336    331   2   0.50000     0.3000000   -0.1800000   1.995577e-06  1.069504e-11
    336    332   2   0.50000     0.3000000   -0.1800000   1.995577e-06  1.069504e-11
    336    337   2   0.50000     0.3000000    0.0600000   4.903125e-07  9.576416e-13
    329    338   2   0.50000    -0.5000000    0.0600000   3.205360e-04  1.719281e-07
    329    339   2   0.50000    -0.5000000    0.0600000   3.205360e-04  1.719281e-07
    329    340   2   0.50000    -0.5000000    0.0600000   3.205360e-04  1.719281e-07
    332    338   2   0.50000    -0.1800000    0.0600000   2.494471e-04  1.671101e-07
    332    339   2   0.50000    -0.1800000    0.0600000   2.494471e-04  1.671101e-07
    332    340   2   0.50000    -0.1800000    0.0600000   2.494471e-04  1.671101e-07
    337    338   2   0.50000     0.0600000    0.0600000   6.128906e-05  1.496315e-08
    337    339   2   0.50000     0.0600000    0.0600000   6.128906e-05  1.496315e-08
    337    340   2   0.50000     0.0600000    0.0600000   6.128906e-05  1.496315e-08
    329    341   2   0.50000    -0.5000000    0.0600000   3.205360e-04  1.719281e-07
    329    342   2   0.50000    -0.5000000    0.0600000   3.205360e-04  1.719281e-07
    329    343   2   0.50000    -0.5000000    0.0600000   3.205360e-04  1.719281e-07
    331    341   2   0.50000    -0.1800000    0.0600000   2.494471e-04  1.671101e-07
    331    342   2   0.50000    -0.1800000    0.0600000   2.494471e-04  1.671101e-07
    331    343   2   0.50000    -0.1800000    0.0600000   2.494471e-04  1.671101e-07
    337    341   2   0.50000     0.0600000    0.0600000   6.128906e-05  1.496315e-08
    337    342   2   0.50000     0.0600000    0.0600000   6.128906e-05  1.496315e-08
    337    343   2   0.50000     0.0600000    0.0600000   6.128906e-05  1.496315e-08
    326    346   2   0.50000    -0.0600000    0.5000000   1.575021e-03  3.561100e-06
    326    354   2   0.50000    -0.0600000    0.0600000   2.494471e-04  1.671101e-07
    326    363   2   0.50000    -0.0600000   -0.1200000   1.015252e-03  1.866303e-06
    352    346   2   0.50000     0.0600000    0.5000000   3.869820e-04  3.188634e-07
    352    354   2   0.50000     0.0600000    0.0600000   6.128906e-05  1.496315e-08
    352    363   2   0.50000     0.0600000   -0.1200000   2.494471e-04  1.671101e-07
    353    346   2   0.50000     0.0600000    0.5000000   3.869820e-04  3.188634e-07
    353    354   2   0.50000     0.0600000    0.0600000   6.128906e-05  1.496315e-08
    353    363   2   0.50000     0.0600000   -0.1200000   2.494471e-04  1.671101e-07
    344    347   2   0.50000    -0.1200000   -0.5000000   1.095425e-03  1.218041e-06
    344    348   2   0.50000    -0.1200000   -0.5000000   1.304585e-03  1.920112e-06
    354    347   2   0.50000     0.0600000   -0.5000000   2.691455e-04  1.090642e-07
    354    348   2   0.50000     0.0600000   -0.5000000   3.205360e-04  1.719281e-07
    363    347   2   0.50000    -0.1200000   -0.5000000   1.095425e-03  1.218041e-06
    363    348   2   0.50000    -0.1200000   -0.5000000   1.304585e-03  1.920112e-06
    344    364   2   0.50000    -0.1200000   -0.1200000   1.015252e-03  1.866303e-06
    344    371   2   0.50000    -0.1200000    0.0600000   2.494471e-04  1.671101e-07
    344    372   2   0.50000    -0.1200000    0.0600000   2.494471e-04  1.671101e-07
    346    364   2   0.50000     0.5000000   -0.1200000   1.575021e-03  3.561100e-06
    346    371   2   0.50000     0.5000000    0.0600000   3.869820e-04  3.188634e-07
    346    372   2   0.50000     0.5000000    0.0600000   3.869820e-04  3.188634e-07
    354    364   2   0.50000     0.0600000   -0.1200000   2.494471e-04  1.671101e-07
    354    371   2   0.50000     0.0600000    0.0600000   6.128906e-05  1.496315e-08
    354    372   2   0.50000     0.0600000    0.0600000   6.128906e-05  1.496315e-08
    345    349   2   0.50000    -0.0600000    0.1400000   1.015252e-03  1.866303e-06
    345    355   2   0.50000    -0.0600000    0.3000000   1.995577e-06  1.069504e-11
    347    349   2   0.50000    -0.5000000    0.1400000   1.095425e-03  1.218041e-06
    347    355   2   0.50000    -0.5000000    0.3000000   2.153164e-06  6.980110e-12
    346    350   2   0.50000     0.5000000   -0.1800000   1.575021e-03  3.561100e-06
    346    351   2   0.50000     0.5000000   -0.1800000   1.575021e-03  3.561100e-06
    346    356   2   0.50000     0.5000000    0.0600000   3.869820e-04  3.188634e-07
    355    350   2   0.50000     0.3000000   -0.1800000   1.995577e-06  1.069504e-11
    355    351   2   0.50000     0.3000000   -0.1800000   1.995577e-06  1.069504e-11
    355    356   2   0.50000     0.3000000    0.0600000   4.903125e-07  9.576416e-13
    348    357   2   0.50000    -0.5000000    0.0600000   3.205360e-04  1.719281e-07
    348    358   2   0.50000    -0.5000000    0.0600000   3.205360e-04  1.719281e-07
    348    359   2   0.50000    -0.5000000    0.0600000   3.205360e-04  1.719281e-07
    351    357   2   0.50000    -0.1800000    0.0600000   2.494471e-04  1.671101e-07
    351    358   2   0.50000    -0.1800000    0.0600000   2.494471e-04  1.671101e-07
    351    359   2   0.50000    -0.1800000    0.0600000   2.494471e-04  1.671101e-07
    356    357   2   0.50000     0.0600000    0.0600000   6.128906e-05  1.496315e-08
    356    358   2   0.50000     0.0600000    0.0600000   6.128906e-05  1.496315e-08
    356    359   2   0.50000     0.0600000    0.0600000   6.128906e-05  1.496315e-08
    348    360   2   0.50000    -0.5000000    0.0600000   3.205360e-04  1.719281e-07
    348    361   2   0.50000    -0.5000000    0.0600000   3.205360e-04  1.719281e-07
    348    362   2   0.50000    -0.5000000    0.0600000   3.205360e-04  1.719281e-07
    350    360   2   0.50000    -0.1800000    0.0600000   2.494471e-04  1.671101e-07
    350    361   2   0.50000    -0.1800000    0.0600000   2.494471e-04  1.671101e-07
    350    362   2   0.50000    -0.1800000    0.0600000   2.494471e-04  1.671101e-07
    356    360   2   0.50000     0.0600000    0.0600000   6.128906e-05  1.496315e-08
    356    361   2   0.50000     0.0600000    0.0600000   6.128906e-05  1.496315e-08
    356    362   2   0.50000     0.0600000    0.0600000   6.128906e-05  1.496315e-08
    345    365   2   0.50000    -0.0600000    0.5000000   1.575021e-03  3.561100e-06
    345    373   2   0.50000    -0.0600000    0.0600000   2.494471e-04  1.671101e-07
    345    382   2   0.50000    -0.0600000    0.0600000   2.494471e-04  1.671101e-07
    371    365   2   0.50000     0.0600000    0.5000000   3.869820e-04  3.188634e-07
    371    373   2   0.50000     0.0600000    0.0600000   6.128906e-05  1.496315e-08
    371    382   2   0.50000     0.0600000    0.0600000   6.128906e-05  1.496315e-08
    372    365   2   0.50000     0.0600000    0.5000000   3.869820e-04  3.188634e-07
    372    373   2   0.50000     0.0600000    0.0600000   6.128906e-05  1.496315e-08
    372    382   2   0.50000     0.0600000    0.0600000   6.128906e-05  1.496315e-08
    363    366   2   0.50000    -0.1200000   -0.5000000   1.095425e-03  1.218041e-06
    363    367   2   0.50000    -0.1200000   -0.5000000   1.304585e-03  1.920112e-06
    373    366   2   0.50000     0.0600000   -0.5000000   2.691455e-04  1.090642e-07
    373    367   2   0.50000     0.0600000   -0.5000000   3.205360e-04  1.719281e-07
    382    366   2   0.50000     0.0600000   -0.5000000   2.691455e-04  1.090642e-07
    382    367   2   0.50000     0.0600000   -0.5000000   3.205360e-04  1.719281e-07
    364    368   2   0.50000    -0.1200000    0.1400000   1.015252e-03  1.866303e-06
    364    374   2   0.50000    -0.1200000    0.3000000   1.995577e-06  1.069504e-11
    366    368   2   0.50000    -0.5000000    0.1400000   1.095425e-03  1.218041e-06
    366    374   2   0.50000    -0.5000000    0.3000000   2.153164e-06  6.980110e-12
    365    369   2   0.50000     0.5000000   -0.1800000   1.575021e-03  3.561100e-06
    365    370   2   0.50000     0.5000000   -0.1800000   1.575021e-03  3.561100e-06
    365    375   2   0.50000     0.5000000    0.0600000   3.869820e-04  3.188634e-07
    374    369   2   0.50000     0.3000000   -0.1800000   1.995577e-06  1.069504e-11
    374    370   2   0.50000     0.3000000   -0.1800000   1.995577e-06  1.069504e-11
    374    375   2   0.50000     0.3000000    0.0600000   4.903125e-07  9.576416e-13
    367    376   2   0.50000    -0.5000000    0.0600000   3.205360e-04  1.719281e-07
    367    377   2   0.50000    -0.5000000    0.0600000   3.205360e-04  1.719281e-07
    367    378   2   0.50000    -0.5000000    0.0600000   3.205360e-04  1.719281e-07
    370    376   2   0.50000    -0.1800000    0.0600000   2.494471e-04  1.671101e-07
    370    377   2   0.50000    -0.1800000    0.0600000   2.494471e-04  1.671101e-07
    370    378   2   0.50000    -0.1800000    0.0600000   2.494471e-04  1.671101e-07
    375    376   2   0.50000     0.0600000    0.0600000   6.128906e-05  1.496315e-08
    375    377   2   0.50000     0.0600000    0.0600000   6.128906e-05  1.496315e-08
    375    378   2   0.50000     0.0600000    0.0600000   6.128906e-05  1.496315e-08
    367    379   2   0.50000    -0.5000000    0.0600000   3.205360e-04  1.719281e-07
    367    380   2   0.50000    -0.5000000    0.0600000   3.205360e-04  1.719281e-07
    367    381   2   0.50000    -0.5000000    0.0600000   3.205360e-04  1.719281e-07
    369    379   2   0.50000    -0.1800000    0.0600000   2.494471e-04  1.671101e-07
    369    380   2   0.50000    -0.1800000    0.0600000   2.494471e-04  1.671101e-07
    369    381   2   0.50000    -0.1800000    0.0600000   2.494471e-04  1.671101e-07
    375    379   2   0.50000     0.0600000    0.0600000   6.128906e-05  1.496315e-08
    375    380   2   0.50000     0.0600000    0.0600000   6.128906e-05  1.496315e-08
    375    381   2   0.50000     0.0600000    0.0600000   6.128906e-05  1.496315e-08

[ angles ]
; ai  aj  ak
      2      1      9   1    110.7000    313.8000
      2      1     10   1    110.7000    313.8000
      2      1     20   1    110.7000    313.8000
      9      1     10   1    107.8000    276.1440
      9      1     20   1    107.8000    276.1440
     10      1     20   1    107.8000    276.1440
      1      2      3   1    111.1000    527.1840
      1      2     11   1    110.7000    313.8000
      1      2     21   1    112.7000    488.2728
      3      2     11   1    109.5000    292.8800
      3      2     21   1    111.1000    527.1840
     11      2     21   1    110.7000    313.8000
      2      3      4   1    120.4000    669.4400
      2      3      5   1    116.6000    585.7600
      4      3      5   1    122.9000    669.4400
      3      5      6   1    121.9000    418.4000
      3      5     12   1    119.8000    292.8800
      6      5     12   1    118.4000    317.9840
      5      6      7   1    110.7230    585.7600
      5      6      8   1    110.7230    585.7600
      5      6     13   1    109.5000    292.8800
      7      6      8   1    112.7000    488.2728
      7      6     13   1    110.7000    313.8000
      8      6     13   1    110.7000    313.8000
      6      7     14   1    110.7000    313.8000
      6      7     15   1    110.7000    313.8000
      6      7     16   1    110.7000    313.8000
     14      7     15   1    107.8000    276.1440
     14      7     16   1    107.8000    276.1440
     15      7     16   1    107.8000    276.1440
      6      8     17   1    110.7000    313.8000
      6      8     18   1    110.7000    313.8000
      6      8     19   1    110.7000    313.8000
     17      8     18   1    107.8000    276.1440
     17      8     19   1    107.8000    276.1440
     18      8     19   1    107.8000    276.1440
      2     21     22   1    112.7000    488.2728
      2     21     29   1    110.7000    313.8000
      2     21     30   1    110.7000    313.8000
     22     21     29   1    110.7000    313.8000
     22     21     30   1    110.7000    313.8000
     29     21     30   1    107.8000    276.1440
     21     22     23   1    111.1000    527.1840
     21     22     31   1    110.7000    313.8000
     21     22     40   1    112.7000    488.2728
     23     22     31   1    109.5000    292.8800
     23     22     40   1    111.1000    527.1840
     31     22     40   1    110.7000    313.8000
     22     23     24   1    120.4000    669.4400
     22     23     25   1    116.6000    585.7600
     24     23     25   1    122.9000    669.4400
     23     25     26   1    121.9000    418.4000
     23     25     32   1    119.8000    292.8800
     26     25     32   1    118.4000    317.9840
     25     26     27   1    110.7230    585.7600
     25     26     28   1    110.7230    585.7600
     25     26     33   1    109.5000    292.8800
     27     26     28   1    112.7000    488.2728
     27     26     33   1    110.7000    313.8000
     28     26     33   1    110.7000    313.8000
     26     27     34   1    110.7000    313.8000
     26     27     35   1    110.7000    313.8000
     26     27     36   1    110.7000    313.8000
     34     27     35   1    107.8000    276.1440
     34     27     36   1    107.8000    276.1440
     35     27     36   1    107.8000    276.1440
     26     28     37   1    110.7000    313.8000
     26     28     38   1    110.7000    313.8000
     26     28     39   1    110.7000    313.8000
     37     28     38   1    107.8000    276.1440
     37     28     39   1    107.8000    276.1440
     38     28     39   1    107.8000    276.1440
     22     40     41   1    112.7000    488.2728
     22     40     48   1    110.7000    313.8000
     22     40     49   1    110.7000    313.8000
     41     40     48   1    110.7000    313.8000
     41     40     49   1    110.7000    313.8000
     48     40     49   1    107.8000    276.1440
     40     41     42   1    111.1000    527.1840
     40     41     50   1    110.7000    313.8000
     40     41     59   1    112.7000    488.2728
     42     41     50   1    109.5000    292.8800
     42     41     59   1    111.1000    527.1840
     50     41     59   1    110.7000    313.8000
     41     42     43   1    120.4000    669.4400
     41     42     44   1    116.6000    585.7600
     43     42     44   1    122.9000    669.4400
     42     44     45   1    121.9000    418.4000
     42     44     51   1    119.8000    292.8800
     45     44     51   1    118.4000    317.9840
     44     45     46   1    110.7230    585.7600
     44     45     47   1    110.7230    585.7600
     44     45     52   1    109.5000    292.8800
     46     45     47   1    112.7000    488.2728
     46     45     52   1    110.7000    313.8000
     47     45     52   1    110.7000    313.8000
     45     46     53   1    110.7000    313.8000
     45     46     54   1    110.7000    313.8000
     45     46     55   1    110.7000    313.8000
     53     46     54   1    107.8000    276.1440
     53     46     55   1    107.8000    276.1440
     54     46     55   1    107.8000    276.1440
     45     47     56   1    110.7000    313.8000
     45     47     57   1    110.7000    313.8000
     45     47     58   1    110.7000    313.8000
     56     47     57   1    107.8000    276.1440
     56     47     58   1    107.8000    276.1440
     57     47     58   1    107.8000    276.1440
     41     59     60   1    112.7000    488.2728
     41     59     67   1    110.7000    313.8000
     41     59     68   1    110.7000    313.8000
     60     59     67   1    110.7000    313.8000
     60     59     68   1    110.7000    313.8000
     67     59     68   1    107.8000    276.1440
     59     60     61   1    111.1000    527.1840
     59     60     69   1    110.7000    313.8000
     59     60     78   1    112.7000    488.2728
     61     60     69   1    109.5000    292.8800
     61     60     78   1    111.1000    527.1840
     69     60     78   1    110.7000    313.8000
     60     61     62   1    120.4000    669.4400
     60     61     63   1    116.6000    585.7600
     62     61     63   1    122.9000    669.4400
     61     63     64   1    121.9000    418.4000
     61     63     70   1    119.8000    292.8800
     64     63     70   1    118.4000    317.9840
     63     64     65   1    110.7230    585.7600
     63     64     66   1    110.7230    585.7600
     63     64     71   1    109.5000    292.8800
     65     64     66   1    112.7000    488.2728
     65     64     71   1    110.7000    313.8000
     66     64     71   1    110.7000    313.8000
     64     65     72   1    110.7000    313.8000
     64     65     73   1    110.7000    313.8000
     64     65     74   1    110.7000    313.8000
     72     65     73   1    107.8000    276.1440
     72     65     74   1    107.8000    276.1440
     73     65     74   1    107.8000    276.1440
     64     66     75   1    110.7000    313.8000
     64     66     76   1    110.7000    313.8000
     64     66     77   1    110.7000    313.8000
     75     66     76   1    107.8000    276.1440
     75     66     77   1    107.8000    276.1440
     76     66     77   1    107.8000    276.1440
     60     78     79   1    112.7000    488.2728
     60     78     86   1    110.7000    313.8000
     60     78     87   1    110.7000    313.8000
     79     78     86   1    110.7000    313.8000
     79     78     87   1    110.7000    313.8000
     86     78     87   1    107.8000    276.1440
     78     79     80   1    111.1000    527.1840
     78     79     88   1    110.7000    313.8000
     78     79     97   1    112.7000    488.2728
     80     79     88   1    109.5000    292.8800
     80     79     97   1    111.1000    527.1840
     88     79     97   1    110.7000    313.8000
     79     80     81   1    120.4000    669.4400
     79     80     82   1    116.6000    585.7600
     81     80     82   1    122.9000    669.4400
     80     82     83   1    121.9000    418.4000
     80     82     89   1    119.8000    292.8800
     83     82     89   1    118.4000    317.9840
     82     83     84   1    110.7230    585.7600
     82     83     85   1    110.7230    585.7600
     82     83     90   1    109.5000    292.8800
     84     83     85   1    112.7000    488.2728
     84     83     90   1    110.7000    313.8000
     85     83     90   1    110.7000    313.8000
     83     84     91   1    110.7000    313.8000
     83     84     92   1    110.7000    313.8000
     83     84     93   1    110.7000    313.8000
     91     84     92   1    107.8000    276.1440
     91     84     93   1    107.8000    276.1440
     92     84     93   1    107.8000    276.1440
     83     85     94   1    110.7000    313.8000
     83     85     95   1    110.7000    313.8000
     83     85     96   1    110.7000    313.8000
     94     85     95   1    107.8000    276.1440
     94     85     96   1    107.8000    276.1440
     95     85     96   1    107.8000    276.1440
     79     97     98   1    112.7000    488.2728
     79     97    105   1    110.7000    313.8000
     79     97    106   1    110.7000    313.8000
     98     97    105   1    110.7000    313.8000
     98     97    106   1    110.7000    313.8000
    105     97    106   1    107.8000    276.1440
     97     98     99   1    111.1000    527.1840
     97     98    107   1    110.7000    313.8000
     97     98    116   1    112.7000    488.2728
     99     98    107   1    109.5000    292.8800
     99     98    116   1    111.1000    527.1840
    107     98    116   1    110.7000    313.8000
     98     99    100   1    120.4000    669.4400
     98     99    101   1    116.6000    585.7600
    100     99    101   1    122.9000    669.4400
     99    101    102   1    121.9000    418.4000
     99    101    108   1    119.8000    292.8800
    102    101    108   1    118.4000    317.9840
    101    102    103   1    110.7230    585.7600
    101    102    104   1    110.7230    585.7600
    101    102    109   1    109.5000    292.8800
    103    102    104   1    112.7000    488.2728
    103    102    109   1    110.7000    313.8000
    104    102    109   1    110.7000    313.8000
    102    103    110   1    110.7000    313.8000
    102    103    111   1    110.7000    313.8000
    102    103    112   1    110.7000    313.8000
    110    103    111   1    107.8000    276.1440
    110    103    112   1    107.8000    276.1440
    111    103    112   1    107.8000    276.1440
    102    104    113   1    110.7000    313.8000
    102    104    114   1    110.7000    313.8000
    102    104    115   1    110.7000    313.8000
    113    104    114   1    107.8000    276.1440
    113    104    115   1    107.8000    276.1440
    114    104    115   1    107.8000    276.1440
     98    116    117   1    112.7000    488.2728
     98    116    124   1    110.7000    313.8000
     98    116    125   1    110.7000    313.8000
    117    116    124   1    110.7000    313.8000
    117    116    125   1    110.7000    313.8000
    124    116    125   1    107.8000    276.1440
    116    117    118   1    111.1000    527.1840
    116    117    126   1    110.7000    313.8000
    116    117    135   1    112.7000    488.2728
    118    117    126   1    109.5000    292.8800
    118    117    135   1    111.1000    527.1840
    126    117    135   1    110.7000    313.8000
    117    118    119   1    120.4000    669.4400
    117    118    120   1    116.6000    585.7600
    119    118    120   1    122.9000    669.4400
    118    120    121   1    121.9000    418.4000
    118    120    127   1    119.8000    292.8800
    121    120    127   1    118.4000    317.9840
    120    121    122   1    110.7230    585.7600
    120    121    123   1    110.7230    585.7600
    120    121    128   1    109.5000    292.8800
    122    121    123   1    112.7000    488.2728
    122    121    128   1    110.7000    313.8000
    123    121    128   1    110.7000    313.8000
    121    122    129   1    110.7000    313.8000
    121    122    130   1    110.7000    313.8000
    121    122    131   1    110.7000    313.8000
    129    122    130   1    107.8000    276.1440
    129    122    131   1    107.8000    276.1440
    130    122    131   1    107.8000    276.1440
    121    123    132   1    110.7000    313.8000
    121    123    133   1    110.7000    313.8000
    121    123    134   1    110.7000    313.8000
    132    123    133   1    107.8000    276.1440
    132    123    134   1    107.8000    276.1440
    133    123    134   1    107.8000    276.1440
    117    135    136   1    112.7000    488.2728
    117    135    143   1    110.7000    313.8000
    117    135    144   1    110.7000    313.8000
    136    135    143   1    110.7000    313.8000
    136    135    144   1    110.7000    313.8000
    143    135    144   1    107.8000    276.1440
    135    136    137   1    111.1000    527.1840
    135    136    145   1    110.7000    313.8000
    135    136    154   1    112.7000    488.2728
    137    136    145   1    109.5000    292.8800
    137    136    154   1    111.1000    527.1840
    145    136    154   1    110.7000    313.8000
    136    137    138   1    120.4000    669.4400
    136    137    139   1    116.6000    585.7600
    138    137    139   1    122.9000    669.4400
    137    139    140   1    121.9000    418.4000
    137    139    146   1    119.8000    292.8800
    140    139    146   1    118.4000    317.9840
    139    140    141   1    110.7230    585.7600
    139    140    142   1    110.7230    585.7600
    139    140    147   1    109.5000    292.8800
    141    140    142   1    112.7000    488.2728
    141    140    147   1    110.7000    313.8000
    142    140    147   1    110.7000    313.8000
    140    141    148   1    110.7000    313.8000
    140    141    149   1    110.7000    313.8000
    140    141    150   1    110.7000    313.8000
    148    141    149   1    107.8000    276.1440
    148    141    150   1    107.8000    276.1440
    149    141    150   1    107.8000    276.1440
    140    142    151   1    110.7000    313.8000
    140    142    152   1    110.7000    313.8000
    140    142    153   1    110.7000    313.8000
    151    142    152   1    107.8000    276.1440
    151    142    153   1    107.8000    276.1440
    152    142    153   1    107.8000    276.1440
    136    154    155   1    112.7000    488.2728
    136    154    162   1    110.7000    313.8000
    136    154    163   1    110.7000    313.8000
    155    154    162   1    110.7000    313.8000
    155    154    163   1    110.7000    313.8000
    162    154    163   1    107.8000    276.1440
    154    155    156   1    111.1000    527.1840
    154    155    164   1    110.7000    313.8000
    154    155    173   1    112.7000    488.2728
    156    155    164   1    109.5000    292.8800
    156    155    173   1    111.1000    527.1840
    164    155    173   1    110.7000    313.8000
    155    156    157   1    120.4000    669.4400
    155    156    158   1    116.6000    585.7600
    157    156    158   1    122.9000    669.4400
    156    158    159   1    121.9000    418.4000
    156    158    165   1    119.8000    292.8800
    159    158    165   1    118.4000    317.9840
    158    159    160   1    110.7230    585.7600
    158    159    161   1    110.7230    585.7600
    158    159    166   1    109.5000    292.8800
    160    159    161   1    112.7000    488.2728
    160    159    166   1    110.7000    313.8000
    161    159    166   1    110.7000    313.8000
    159    160    167   1    110.7000    313.8000
    159    160    168   1    110.7000    313.8000
    159    160    169   1    110.7000    313.8000
    167    160    168   1    107.8000    276.1440
    167    160    169   1    107.8000    276.1440
    168    160    169   1    107.8000    276.1440
    159    161    170   1    110.7000    313.8000
    159    161    171   1    110.7000    313.8000
    159    161    172   1    110.7000    313.8000
    170    161    171   1    107.8000    276.1440
    170    161    172   1    107.8000    276.1440
    171    161    172   1    107.8000    276.1440
    155    173    174   1    112.7000    488.2728
    155    173    181   1    110.7000    313.8000
    155    173    182   1    110.7000    313.8000
    174    173    181   1    110.7000    313.8000
    174    173    182   1    110.7000    313.8000
    181    173    182   1    107.8000    276.1440
    173    174    175   1    111.1000    527.1840
    173    174    183   1    110.7000    313.8000
    173    174    192   1    112.7000    488.2728
    175    174    183   1    109.5000    292.8800
    175    174    192   1    111.1000    527.1840
    183    174    192   1    110.7000    313.8000
    174    175    176   1    120.4000    669.4400
    174    175    177   1    116.6000    585.7600
    176    175    177   1    122.9000    669.4400
    175    177    178   1    121.9000    418.4000
    175    177    184   1    119.8000    292.8800
    178    177    184   1    118.4000    317.9840
    177    178    179   1    110.7230    585.7600
    177    178    180   1    110.7230    585.7600
    177    178    185   1    109.5000    292.8800
    179    178    180   1    112.7000    488.2728
    179    178    185   1    110.7000    313.8000
    180    178    185   1    110.7000    313.8000
    178    179    186   1    110.7000    313.8000
    178    179    187   1    110.7000    313.8000
    178    179    188   1    110.7000    313.8000
    186    179    187   1    107.8000    276.1440
    186    179    188   1    107.8000    276.1440
    187    179    188   1    107.8000    276.1440
    178    180    189   1    110.7000    313.8000
    178    180    190   1    110.7000    313.8000
    178    180    191   1    110.7000    313.8000
    189    180    190   1    107.8000    276.1440
    189    180    191   1    107.8000    276.1440
    190    180    191   1    107.8000    276.1440
    174    192    193   1    112.7000    488.2728
    174    192    200   1    110.7000    313.8000
    174    192    201   1    110.7000    313.8000
    193    192    200   1    110.7000    313.8000
    193    192    201   1    110.7000    313.8000
    200    192    201   1    107.8000    276.1440
    192    193    194   1    111.1000    527.1840
    192    193    202   1    110.7000    313.8000
    192    193    211   1    112.7000    488.2728
    194    193    202   1    109.5000    292.8800
    194    193    211   1    111.1000    527.1840
    202    193    211   1    110.7000    313.8000
    193    194    195   1    120.4000    669.4400
    193    194    196   1    116.6000    585.7600
    195    194    196   1    122.9000    669.4400
    194    196    197   1    121.9000    418.4000
    194    196    203   1    119.8000    292.8800
    197    196    203   1    118.4000    317.9840
    196    197    198   1    110.7230    585.7600
    196    197    199   1    110.7230    585.7600
    196    197    204   1    109.5000    292.8800
    198    197    199   1    112.7000    488.2728
    198    197    204   1    110.7000    313.8000
    199    197    204   1    110.7000    313.8000
    197    198    205   1    110.7000    313.8000
    197    198    206   1    110.7000    313.8000
    197    198    207   1    110.7000    313.8000
    205    198    206   1    107.8000    276.1440
    205    198    207   1    107.8000    276.1440
    206    198    207   1    107.8000    276.1440
    197    199    208   1    110.7000    313.8000
    197    199    209   1    110.7000    313.8000
    197    199    210   1    110.7000    313.8000
    208    199    209   1    107.8000    276.1440
    208    199    210   1    107.8000    276.1440
    209    199    210   1    107.8000    276.1440
    193    211    212   1    112.7000    488.2728
    193    211    219   1    110.7000    313.8000
    193    211    220   1    110.7000    313.8000
    212    211    219   1    110.7000    313.8000
    212    211    220   1    110.7000    313.8000
    219    211    220   1    107.8000    276.1440
    211    212    213   1    111.1000    527.1840
    211    212    221   1    110.7000    313.8000
    211    212    230   1    112.7000    488.2728
    213    212    221   1    109.5000    292.8800
    213    212    230   1    111.1000    527.1840
    221    212    230   1    110.7000    313.8000
    212    213    214   1    120.4000    669.4400
    212    213    215   1    116.6000    585.7600
    214    213    215   1    122.9000    669.4400
    213    215    216   1    121.9000    418.4000
    213    215    222   1    119.8000    292.8800
    216    215    222   1    118.4000    317.9840
    215    216    217   1    110.7230    585.7600
    215    216    218   1    110.7230    585.7600
    215    216    223   1    109.5000    292.8800
    217    216    218   1    112.7000    488.2728
    217    216    223   1    110.7000    313.8000
    218    216    223   1    110.7000    313.8000
    216    217    224   1    110.7000    313.8000
    216    217    225   1    110.7000    313.8000
    216    217    226   1    110.7000    313.8000
    224    217    225   1    107.8000    276.1440
    224    217    226   1    107.8000    276.1440
    225    217    226   1    107.8000    276.1440
    216    218    227   1    110.7000    313.8000
    216    218    228   1    110.7000    313.8000
    216    218    229   1    110.7000    313.8000
    227    218    228   1    107.8000    276.1440
    227    218    229   1    107.8000    276.1440
    228    218    229   1    107.8000    276.1440
    212    230    231   1    112.7000    488.2728
    212    230    238   1    110.7000    313.8000
    212    230    239   1    110.7000    313.8000
    231    230    238   1    110.7000    313.8000
    231    230    239   1    110.7000    313.8000
    238    230    239   1    107.8000    276.1440
    230    231    232   1    111.1000    527.1840
    230    231    240   1    110.7000    313.8000
    230    231    249   1    112.7000    488.2728
    232    231    240   1    109.5000    292.8800
    232    231    249   1    111.1000    527.1840
    240    231    249   1    110.7000    313.8000
    231    232    233   1    120.4000    669.4400
    231    232    234   1    116.6000    585.7600
    233    232    234   1    122.9000    669.4400
    232    234    235   1    121.9000    418.4000
    232    234    241   1    119.8000    292.8800
    235    234    241   1    118.4000    317.9840
    234    235    236   1    110.7230    585.7600
    234    235    237   1    110.7230    585.7600
    234    235    242   1    109.5000    292.8800
    236    235    237   1    112.7000    488.2728
    236    235    242   1    110.7000    313.8000
    237    235    242   1    110.7000    313.8000
    235    236    243   1    110.7000    313.8000
    235    236    244   1    110.7000    313.8000
    235    236    245   1    110.7000    313.8000
    243    236    244   1    107.8000    276.1440
    243    236    245   1    107.8000    276.1440
    244    236    245   1    107.8000    276.1440
    235    237    246   1    110.7000    313.8000
    235    237    247   1    110.7000    313.8000
    235    237    248   1    110.7000    313.8000
    246    237    247   1    107.8000    276.1440
    246    237    248   1    107.8000    276.1440
    247    237    248   1    107.8000    276.1440
    231    249    250   1    112.7000    488.2728
    231    249    257   1    110.7000    313.8000
    231    249    258   1    110.7000    313.8000
    250    249    257   1    110.7000    313.8000
    250    249    258   1    110.7000    313.8000
    257    249    258   1    107.8000    276.1440
    249    250    251   1    111.1000    527.1840
    249    250    259   1    110.7000    313.8000
    249    250    268   1    112.7000    488.2728
    251    250    259   1    109.5000    292.8800
    251    250    268   1    111.1000    527.1840
    259    250    268   1    110.7000    313.8000
    250    251    252   1    120.4000    669.4400
    250    251    253   1    116.6000    585.7600
    252    251    253   1    122.9000    669.4400
    251    253    254   1    121.9000    418.4000
    251    253    260   1    119.8000    292.8800
    254    253    260   1    118.4000    317.9840
    253    254    255   1    110.7230    585.7600
    253    254    256   1    110.7230    585.7600
    253    254    261   1    109.5000    292.8800
    255    254    256   1    112.7000    488.2728
    255    254    261   1    110.7000    313.8000
    256    254    261   1    110.7000    313.8000
    254    255    262   1    110.7000    313.8000
    254    255    263   1    110.7000    313.8000
    254    255    264   1    110.7000    313.8000
    262    255    263   1    107.8000    276.1440
    262    255    264   1    107.8000    276.1440
    263    255    264   1    107.8000    276.1440
    254    256    265   1    110.7000    313.8000
    254    256    266   1    110.7000    313.8000
    254    256    267   1    110.7000    313.8000
    265    256    266   1    107.8000    276.1440
    265    256    267   1    107.8000    276.1440
    266    256    267   1    107.8000    276.1440
    250    268    269   1    112.7000    488.2728
    250    268    276   1    110.7000    313.8000
    250    268    277   1    110.7000    313.8000
    269    268    276   1    110.7000    313.8000
    269    268    277   1    110.7000    313.8000
    276    268    277   1    107.8000    276.1440
    268    269    270   1    111.1000    527.1840
    268    269    278   1    110.7000    313.8000
    268    269    287   1    112.7000    488.2728
    270    269    278   1    109.5000    292.8800
    270    269    287   1    111.1000    527.1840
    278    269    287   1    110.7000    313.8000
    269    270    271   1    120.4000    669.4400
    269    270    272   1    116.6000    585.7600
    271    270    272   1    122.9000    669.4400
    270    272    273   1    121.9000    418.4000
    270    272    279   1    119.8000    292.8800
    273    272    279   1    118.4000    317.9840
    272    273    274   1    110.7230    585.7600
    272    273    275   1    110.7230    585.7600
    272    273    280   1    109.5000    292.8800
    274    273    275   1    112.7000    488.2728
    274    273    280   1    110.7000    313.8000
    275    273    280   1    110.7000    313.8000
    273    274    281   1    110.7000    313.8000
    273    274    282   1    110.7000    313.8000
    273    274    283   1    110.7000    313.8000
    281    274    282   1    107.8000    276.1440
    281    274    283   1    107.8000    276.1440
    282    274    283   1    107.8000    276.1440
    273    275    284   1    110.7000    313.8000
    273    275    285   1    110.7000    313.8000
    273    275    286   1    110.7000    313.8000
    284    275    285   1    107.8000    276.1440
    284    275    286   1    107.8000    276.1440
    285    275    286   1    107.8000    276.1440
    269    287    288   1    112.7000    488.2728
    269    287    295   1    110.7000    313.8000
    269    287    296   1    110.7000    313.8000
    288    287    295   1    110.7000    313.8000
    288    287    296   1    110.7000    313.8000
    295    287    296   1    107.8000    276.1440
    287    288    289   1    111.1000    527.1840
    287    288    297   1    110.7000    313.8000
    287    288    306   1    112.7000    488.2728
    289    288    297   1    109.5000    292.8800
    289    288    306   1    111.1000    527.1840
    297    288    306   1    110.7000    313.8000
    288    289    290   1    120.4000    669.4400
    288    289    291   1    116.6000    585.7600
    290    289    291   1    122.9000    669.4400
    289    291    292   1    121.9000    418.4000
    289    291    298   1    119.8000    292.8800
    292    291    298   1    118.4000    317.9840
    291    292    293   1    110.7230    585.7600
    291    292    294   1    110.7230    585.7600
    291    292    299   1    109.5000    292.8800
    293    292    294   1    112.7000    488.2728
    293    292    299   1    110.7000    313.8000
    294    292    299   1    110.7000    313.8000
    292    293    300   1    110.7000    313.8000
    292    293    301   1    110.7000    313.8000
    292    293    302   1    110.7000    313.8000
    300    293    301   1    107.8000    276.1440
    300    293    302   1    107.8000    276.1440
    301    293    302   1    107.8000    276.1440
    292    294    303   1    110.7000    313.8000
    292    294    304   1    110.7000    313.8000
    292    294    305   1    110.7000    313.8000
    303    294    304   1    107.8000    276.1440
    303    294    305   1    107.8000    276.1440
    304    294    305   1    107.8000    276.1440
    288    306    307   1    112.7000    488.2728
    288    306    314   1    110.7000    313.8000
    288    306    315   1    110.7000    313.8000
    307    306    314   1    110.7000    313.8000
    307    306    315   1    110.7000    313.8000
    314    306    315   1    107.8000    276.1440
    306    307    308   1    111.1000    527.1840
    306    307    316   1    110.7000    313.8000
    306    307    325   1    112.7000    488.2728
    308    307    316   1    109.5000    292.8800
    308    307    325   1    111.1000    527.1840
    316    307    325   1    110.7000    313.8000
    307    308    309   1    120.4000    669.4400
    307    308    310   1    116.6000    585.7600
    309    308    310   1    122.9000    669.4400
    308    310    311   1    121.9000    418.4000
    308    310    317   1    119.8000    292.8800
    311    310    317   1    118.4000    317.9840
    310    311    312   1    110.7230    585.7600
    310    311    313   1    110.7230    585.7600
    310    311    318   1    109.5000    292.8800
    312    311    313   1    112.7000    488.2728
    312    311    318   1    110.7000    313.8000
    313    311    318   1    110.7000    313.8000
    311    312    319   1    110.7000    313.8000
    311    312    320   1    110.7000    313.8000
    311    312    321   1    110.7000    313.8000
    319    312    320   1    107.8000    276.1440
    319    312    321   1    107.8000    276.1440
    320    312    321   1    107.8000    276.1440
    311    313    322   1    110.7000    313.8000
    311    313    323   1    110.7000    313.8000
    311    313    324   1    110.7000    313.8000
    322    313    323   1    107.8000    276.1440
    322    313    324   1    107.8000    276.1440
    323    313    324   1    107.8000    276.1440
    307    325    326   1    112.7000    488.2728
    307    325    333   1    110.7000    313.8000
    307    325    334   1    110.7000    313.8000
    326    325    333   1    110.7000    313.8000
    326    325    334   1    110.7000    313.8000
    333    325    334   1    107.8000    276.1440
    325    326    327   1    111.1000    527.1840
    325    326    335   1    110.7000    313.8000
    325    326    344   1    112.7000    488.2728
    327    326    335   1    109.5000    292.8800
    327    326    344   1    111.1000    527.1840
    335    326    344   1    110.7000    313.8000
    326    327    328   1    120.4000    669.4400
    326    327    329   1    116.6000    585.7600
    328    327    329   1    122.9000    669.4400
    327    329    330   1    121.9000    418.4000
    327    329    336   1    119.8000    292.8800
    330    329    336   1    118.4000    317.9840
    329    330    331   1    110.7230    585.7600
    329    330    332   1    110.7230    585.7600
    329    330    337   1    109.5000    292.8800
    331    330    332   1    112.7000    488.2728
    331    330    337   1    110.7000    313.8000
    332    330    337   1    110.7000    313.8000
    330    331    338   1    110.7000    313.8000
    330    331    339   1    110.7000    313.8000
    330    331    340   1    110.7000    313.8000
    338    331    339   1    107.8000    276.1440
    338    331    340   1    107.8000    276.1440
    339    331    340   1    107.8000    276.1440
    330    332    341   1    110.7000    313.8000
    330    332    342   1    110.7000    313.8000
    330    332    343   1    110.7000    313.8000
    341    332    342   1    107.8000    276.1440
    341    332    343   1    107.8000    276.1440
    342    332    343   1    107.8000    276.1440
    326    344    345   1    112.7000    488.2728
    326    344    352   1    110.7000    313.8000
    326    344    353   1    110.7000    313.8000
    345    344    352   1    110.7000    313.8000
    345    344    353   1    110.7000    313.8000
    352    344    353   1    107.8000    276.1440
    344    345    346   1    111.1000    527.1840
    344    345    354   1    110.7000    313.8000
    344    345    363   1    112.7000    488.2728
    346    345    354   1    109.5000    292.8800
    346    345    363   1    111.1000    527.1840
    354    345    363   1    110.7000    313.8000
    345    346    347   1    120.4000    669.4400
    345    346    348   1    116.6000    585.7600
    347    346    348   1    122.9000    669.4400
    346    348    349   1    121.9000    418.4000
    346    348    355   1    119.8000    292.8800
    349    348    355   1    118.4000    317.9840
    348    349    350   1    110.7230    585.7600
    348    349    351   1    110.7230    585.7600
    348    349    356   1    109.5000    292.8800
    350    349    351   1    112.7000    488.2728
    350    349    356   1    110.7000    313.8000
    351    349    356   1    110.7000    313.8000
    349    350    357   1    110.7000    313.8000
    349    350    358   1    110.7000    313.8000
    349    350    359   1    110.7000    313.8000
    357    350    358   1    107.8000    276.1440
    357    350    359   1    107.8000    276.1440
    358    350    359   1    107.8000    276.1440
    349    351    360   1    110.7000    313.8000
    349    351    361   1    110.7000    313.8000
    349    351    362   1    110.7000    313.8000
    360    351    361   1    107.8000    276.1440
    360    351    362   1    107.8000    276.1440
    361    351    362   1    107.8000    276.1440
    345    363    364   1    112.7000    488.2728
    345    363    371   1    110.7000    313.8000
    345    363    372   1    110.7000    313.8000
    364    363    371   1    110.7000    313.8000
    364    363    372   1    110.7000    313.8000
    371    363    372   1    107.8000    276.1440
    363    364    365   1    111.1000    527.1840
    363    364    373   1    110.7000    313.8000
    363    364    382   1    110.7000    313.8000
    365    364    373   1    109.5000    292.8800
    365    364    382   1    109.5000    292.8800
    373    364    382   1    107.8000    276.1440
    364    365    366   1    120.4000    669.4400
    364    365    367   1    116.6000    585.7600
    366    365    367   1    122.9000    669.4400
    365    367    368   1    121.9000    418.4000
    365    367    374   1    119.8000    292.8800
    368    367    374   1    118.4000    317.9840
    367    368    369   1    110.7230    585.7600
    367    368    370   1    110.7230    585.7600
    367    368    375   1    109.5000    292.8800
    369    368    370   1    112.7000    488.2728
    369    368    375   1    110.7000    313.8000
    370    368    375   1    110.7000    313.8000
    368    369    376   1    110.7000    313.8000
    368    369    377   1    110.7000    313.8000
    368    369    378   1    110.7000    313.8000
    376    369    377   1    107.8000    276.1440
    376    369    378   1    107.8000    276.1440
    377    369    378   1    107.8000    276.1440
    368    370    379   1    110.7000    313.8000
    368    370    380   1    110.7000    313.8000
    368    370    381   1    110.7000    313.8000
    379    370    380   1    107.8000    276.1440
    379    370    381   1    107.8000    276.1440
    380    370    381   1    107.8000    276.1440

[ dihedrals ]
; Proper dihedrals
      9      1      2      3   5     0.00000     0.00000    -0.94140  0.0
      9      1      2     11   5     0.00000     0.00000     1.25520  0.0
      9      1      2     21   5     0.00000     0.00000     1.25520  0.0
     10      1      2      3   5     0.00000     0.00000    -0.94140  0.0
     10      1      2     11   5     0.00000     0.00000     1.25520  0.0
     10      1      2     21   5     0.00000     0.00000     1.25520  0.0
     20      1      2      3   5     0.00000     0.00000    -0.94140  0.0
     20      1      2     11   5     0.00000     0.00000     1.25520  0.0
     20      1      2     21   5     0.00000     0.00000     1.25520  0.0
      1      2      3      4   5     0.00000     2.52295     0.00000  0.0
      1      2      3      5   5    11.69428    -0.66526    -1.56900  0.0
     11      2      3      4   5     0.00000     0.00000     0.00000  0.0
     11      2      3      5   5     0.00000     0.00000     0.00000  0.0
     21      2      3      4   5     0.00000     2.52295     0.00000  0.0
     21      2      3      5   5    11.69428    -0.66526    -1.56900  0.0
      1      2     21     22   5     4.74884    -0.63178     1.67360  0.0
      1      2     21     29   5     0.00000     0.00000     1.25520  0.0
      1      2     21     30   5     0.00000     0.00000     1.25520  0.0
      3      2     21     22   5    -8.00818    -1.52298     2.46438  0.0
      3      2     21     29   5     0.00000     0.00000    -0.94140  0.0
      3      2     21     30   5     0.00000     0.00000    -0.94140  0.0
     11      2     21     22   5     0.00000     0.00000     1.25520  0.0
     11      2     21     29   5     0.00000     0.00000     1.25520  0.0
     11      2     21     30   5     0.00000     0.00000     1.25520  0.0
      2      3      5      6   5    12.53945    12.88254     0.00000  0.0
      2      3      5     12   5     0.00000    20.50160     0.00000  0.0
      4      3      5      6   5     0.00000    25.47638     0.00000  0.0
      4      3      5     12   5     0.00000    20.50160     0.00000  0.0
      3      5      6      7   5    -3.67774    -0.67781     0.28033  0.0
      3      5      6      8   5    -3.67774    -0.67781     0.28033  0.0
      3      5      6     13   5     0.00000     0.00000     0.00000  0.0
     12      5      6      7   5     0.00000     0.00000     0.00000  0.0
     12      5      6      8   5     0.00000     0.00000     0.00000  0.0
     12      5      6     13   5     0.00000     0.00000     0.00000  0.0
      5      6      7     14   5     0.00000     0.00000     1.25520  0.0
      5      6      7     15   5     0.00000     0.00000     1.25520  0.0
      5      6      7     16   5     0.00000     0.00000     1.25520  0.0
      8      6      7     14   5     0.00000     0.00000     1.25520  0.0
      8      6      7     15   5     0.00000     0.00000     1.25520  0.0
      8      6      7     16   5     0.00000     0.00000     1.25520  0.0
     13      6      7     14   5     0.00000     0.00000     1.25520  0.0
     13      6      7     15   5     0.00000     0.00000     1.25520  0.0
     13      6      7     16   5     0.00000     0.00000     1.25520  0.0
      5      6      8     17   5     0.00000     0.00000     1.25520  0.0
      5      6      8     18   5     0.00000     0.00000     1.25520  0.0
      5      6      8     19   5     0.00000     0.00000     1.25520  0.0
      7      6      8     17   5     0.00000     0.00000     1.25520  0.0
      7      6      8     18   5     0.00000     0.00000     1.25520  0.0
      7      6      8     19   5     0.00000     0.00000     1.25520  0.0
     13      6      8     17   5     0.00000     0.00000     1.25520  0.0
     13      6      8     18   5     0.00000     0.00000     1.25520  0.0
     13      6      8     19   5     0.00000     0.00000     1.25520  0.0
      2     21     22     23   5    -8.00818    -1.52298     2.46438  0.0
      2     21     22     31   5     0.00000     0.00000     1.25520  0.0
      2     21     22     40   5     4.74884    -0.63178     1.67360  0.0
     29     21     22     23   5     0.00000     0.00000    -0.94140  0.0
     29     21     22     31   5     0.00000     0.00000     1.25520  0.0
     29     21     22     40   5     0.00000     0.00000     1.25520  0.0
     30     21     22     23   5     0.00000     0.00000    -0.94140  0.0
     30     21     22     31   5     0.00000     0.00000     1.25520  0.0
     30     21     22     40   5     0.00000     0.00000     1.25520  0.0
     21     22     23     24   5     0.00000     2.52295     0.00000  0.0
     21     22     23     25   5    11.69428    -0.66526    -1.56900  0.0
     31     22     23     24   5     0.00000     0.00000     0.00000  0.0
     31     22     23     25   5     0.00000     0.00000     0.00000  0.0
     40     22     23     24   5     0.00000     2.52295     0.00000  0.0
     40     22     23     25   5    11.69428    -0.66526    -1.56900  0.0
     21     22     40     41   5     4.74884    -0.63178     1.67360  0.0
     21     22     40     48   5     0.00000     0.00000     1.25520  0.0
     21     22     40     49   5     0.00000     0.00000     1.25520  0.0
     23     22     40     41   5    -8.00818    -1.52298     2.46438  0.0
     23     22     40     48   5     0.00000     0.00000    -0.94140  0.0
     23     22     40     49   5     0.00000     0.00000    -0.94140  0.0
     31     22     40     41   5     0.00000     0.00000     1.25520  0.0
     31     22     40     48   5     0.00000     0.00000     1.25520  0.0
     31     22     40     49   5     0.00000     0.00000     1.25520  0.0
     22     23     25     26   5    12.53945    12.88254     0.00000  0.0
     22     23     25     32   5     0.00000    20.50160     0.00000  0.0
     24     23     25     26   5     0.00000    25.47638     0.00000  0.0
     24     23     25     32   5     0.00000    20.50160     0.00000  0.0
     23     25     26     27   5    -3.67774    -0.67781     0.28033  0.0
     23     25     26     28   5    -3.67774    -0.67781     0.28033  0.0
     23     25     26     33   5     0.00000     0.00000     0.00000  0.0
     32     25     26     27   5     0.00000     0.00000     0.00000  0.0
     32     25     26     28   5     0.00000     0.00000     0.00000  0.0
     32     25     26     33   5     0.00000     0.00000     0.00000  0.0
     25     26     27     34   5     0.00000     0.00000     1.25520  0.0
     25     26     27     35   5     0.00000     0.00000     1.25520  0.0
     25     26     27     36   5     0.00000     0.00000     1.25520  0.0
     28     26     27     34   5     0.00000     0.00000     1.25520  0.0
     28     26     27     35   5     0.00000     0.00000     1.25520  0.0
     28     26     27     36   5     0.00000     0.00000     1.25520  0.0
     33     26     27     34   5     0.00000     0.00000     1.25520  0.0
     33     26     27     35   5     0.00000     0.00000     1.25520  0.0
     33     26     27     36   5     0.00000     0.00000     1.25520  0.0
     25     26     28     37   5     0.00000     0.00000     1.25520  0.0
     25     26     28     38   5     0.00000     0.00000     1.25520  0.0
     25     26     28     39   5     0.00000     0.00000     1.25520  0.0
     27     26     28     37   5     0.00000     0.00000     1.25520  0.0
     27     26     28     38   5     0.00000     0.00000     1.25520  0.0
     27     26     28     39   5     0.00000     0.00000     1.25520  0.0
     33     26     28     37   5     0.00000     0.00000     1.25520  0.0
     33     26     28     38   5     0.00000     0.00000     1.25520  0.0
     33     26     28     39   5     0.00000     0.00000     1.25520  0.0
     22     40     41     42   5    -8.00818    -1.52298     2.46438  0.0
     22     40     41     50   5     0.00000     0.00000     1.25520  0.0
     22     40     41     59   5     4.74884    -0.63178     1.67360  0.0
     48     40     41     42   5     0.00000     0.00000    -0.94140  0.0
     48     40     41     50   5     0.00000     0.00000     1.25520  0.0
     48     40     41     59   5     0.00000     0.00000     1.25520  0.0
     49     40     41     42   5     0.00000     0.00000    -0.94140  0.0
     49     40     41     50   5     0.00000     0.00000     1.25520  0.0
     49     40     41     59   5     0.00000     0.00000     1.25520  0.0
     40     41     42     43   5     0.00000     2.52295     0.00000  0.0
     40     41     42     44   5    11.69428    -0.66526    -1.56900  0.0
     50     41     42     43   5     0.00000     0.00000     0.00000  0.0
     50     41     42     44   5     0.00000     0.00000     0.00000  0.0
     59     41     42     43   5     0.00000     2.52295     0.00000  0.0
     59     41     42     44   5    11.69428    -0.66526    -1.56900  0.0
     40     41     59     60   5     4.74884    -0.63178     1.67360  0.0
     40     41     59     67   5     0.00000     0.00000     1.25520  0.0
     40     41     59     68   5     0.00000     0.00000     1.25520  0.0
     42     41     59     60   5    -8.00818    -1.52298     2.46438  0.0
     42     41     59     67   5     0.00000     0.00000    -0.94140  0.0
     42     41     59     68   5     0.00000     0.00000    -0.94140  0.0
     50     41     59     60   5     0.00000     0.00000     1.25520  0.0
     50     41     59     67   5     0.00000     0.00000     1.25520  0.0
     50     41     59     68   5     0.00000     0.00000     1.25520  0.0
     41     42     44     45   5    12.53945    12.88254     0.00000  0.0
     41     42     44     51   5     0.00000    20.50160     0.00000  0.0
     43     42     44     45   5     0.00000    25.47638     0.00000  0.0
     43     42     44     51   5     0.00000    20.50160     0.00000  0.0
     42     44     45     46   5    -3.67774    -0.67781     0.28033  0.0
     42     44     45     47   5    -3.67774    -0.67781     0.28033  0.0
     42     44     45     52   5     0.00000     0.00000     0.00000  0.0
     51     44     45     46   5     0.00000     0.00000     0.00000  0.0
     51     44     45     47   5     0.00000     0.00000     0.00000  0.0
     51     44     45     52   5     0.00000     0.00000     0.00000  0.0
     44     45     46     53   5     0.00000     0.00000     1.25520  0.0
     44     45     46     54   5     0.00000     0.00000     1.25520  0.0
     44     45     46     55   5     0.00000     0.00000     1.25520  0.0
     47     45     46     53   5     0.00000     0.00000     1.25520  0.0
     47     45     46     54   5     0.00000     0.00000     1.25520  0.0
     47     45     46     55   5     0.00000     0.00000     1.25520  0.0
     52     45     46     53   5     0.00000     0.00000     1.25520  0.0
     52     45     46     54   5     0.00000     0.00000     1.25520  0.0
     52     45     46     55   5     0.00000     0.00000     1.25520  0.0
     44     45     47     56   5     0.00000     0.00000     1.25520  0.0
     44     45     47     57   5     0.00000     0.00000     1.25520  0.0
     44     45     47     58   5     0.00000     0.00000     1.25520  0.0
     46     45     47     56   5     0.00000     0.00000     1.25520  0.0
     46     45     47     57   5     0.00000     0.00000     1.25520  0.0
     46     45     47     58   5     0.00000     0.00000     1.25520  0.0
     52     45     47     56   5     0.00000     0.00000     1.25520  0.0
     52     45     47     57   5     0.00000     0.00000     1.25520  0.0
     52     45     47     58   5     0.00000     0.00000     1.25520  0.0
     41     59     60     61   5    -8.00818    -1.52298     2.46438  0.0
     41     59     60     69   5     0.00000     0.00000     1.25520  0.0
     41     59     60     78   5     4.74884    -0.63178     1.67360  0.0
     67     59     60     61   5     0.00000     0.00000    -0.94140  0.0
     67     59     60     69   5     0.00000     0.00000     1.25520  0.0
     67     59     60     78   5     0.00000     0.00000     1.25520  0.0
     68     59     60     61   5     0.00000     0.00000    -0.94140  0.0
     68     59     60     69   5     0.00000     0.00000     1.25520  0.0
     68     59     60     78   5     0.00000     0.00000     1.25520  0.0
     59     60     61     62   5     0.00000     2.52295     0.00000  0.0
     59     60     61     63   5    11.69428    -0.66526    -1.56900  0.0
     69     60     61     62   5     0.00000     0.00000     0.00000  0.0
     69     60     61     63   5     0.00000     0.00000     0.00000  0.0
     78     60     61     62   5     0.00000     2.52295     0.00000  0.0
     78     60     61     63   5    11.69428    -0.66526    -1.56900  0.0
     59     60     78     79   5     4.74884    -0.63178     1.67360  0.0
     59     60     78     86   5     0.00000     0.00000     1.25520  0.0
     59     60     78     87   5     0.00000     0.00000     1.25520  0.0
     61     60     78     79   5    -8.00818    -1.52298     2.46438  0.0
     61     60     78     86   5     0.00000     0.00000    -0.94140  0.0
     61     60     78     87   5     0.00000     0.00000    -0.94140  0.0
     69     60     78     79   5     0.00000     0.00000     1.25520  0.0
     69     60     78     86   5     0.00000     0.00000     1.25520  0.0
     69     60     78     87   5     0.00000     0.00000     1.25520  0.0
     60     61     63     64   5    12.53945    12.88254     0.00000  0.0
     60     61     63     70   5     0.00000    20.50160     0.00000  0.0
     62     61     63     64   5     0.00000    25.47638     0.00000  0.0
     62     61     63     70   5     0.00000    20.50160     0.00000  0.0
     61     63     64     65   5    -3.67774    -0.67781     0.28033  0.0
     61     63     64     66   5    -3.67774    -0.67781     0.28033  0.0
     61     63     64     71   5     0.00000     0.00000     0.00000  0.0
     70     63     64     65   5     0.00000     0.00000     0.00000  0.0
     70     63     64     66   5     0.00000     0.00000     0.00000  0.0
     70     63     64     71   5     0.00000     0.00000     0.00000  0.0
     63     64     65     72   5     0.00000     0.00000     1.25520  0.0
     63     64     65     73   5     0.00000     0.00000     1.25520  0.0
     63     64     65     74   5     0.00000     0.00000     1.25520  0.0
     66     64     65     72   5     0.00000     0.00000     1.25520  0.0
     66     64     65     73   5     0.00000     0.00000     1.25520  0.0
     66     64     65     74   5     0.00000     0.00000     1.25520  0.0
     71     64     65     72   5     0.00000     0.00000     1.25520  0.0
     71     64     65     73   5     0.00000     0.00000     1.25520  0.0
     71     64     65     74   5     0.00000     0.00000     1.25520  0.0
     63     64     66     75   5     0.00000     0.00000     1.25520  0.0
     63     64     66     76   5     0.00000     0.00000     1.25520  0.0
     63     64     66     77   5     0.00000     0.00000     1.25520  0.0
     65     64     66     75   5     0.00000     0.00000     1.25520  0.0
     65     64     66     76   5     0.00000     0.00000     1.25520  0.0
     65     64     66     77   5     0.00000     0.00000     1.25520  0.0
     71     64     66     75   5     0.00000     0.00000     1.25520  0.0
     71     64     66     76   5     0.00000     0.00000     1.25520  0.0
     71     64     66     77   5     0.00000     0.00000     1.25520  0.0
     60     78     79     80   5    -8.00818    -1.52298     2.46438  0.0
     60     78     79     88   5     0.00000     0.00000     1.25520  0.0
     60     78     79     97   5     4.74884    -0.63178     1.67360  0.0
     86     78     79     80   5     0.00000     0.00000    -0.94140  0.0
     86     78     79     88   5     0.00000     0.00000     1.25520  0.0
     86     78     79     97   5     0.00000     0.00000     1.25520  0.0
     87     78     79     80   5     0.00000     0.00000    -0.94140  0.0
     87     78     79     88   5     0.00000     0.00000     1.25520  0.0
     87     78     79     97   5     0.00000     0.00000     1.25520  0.0
     78     79     80     81   5     0.00000     2.52295     0.00000  0.0
     78     79     80     82   5    11.69428    -0.66526    -1.56900  0.0
     88     79     80     81   5     0.00000     0.00000     0.00000  0.0
     88     79     80     82   5     0.00000     0.00000     0.00000  0.0
     97     79     80     81   5     0.00000     2.52295     0.00000  0.0
     97     79     80     82   5    11.69428    -0.66526    -1.56900  0.0
     78     79     97     98   5     4.74884    -0.63178     1.67360  0.0
     78     79     97    105   5     0.00000     0.00000     1.25520  0.0
     78     79     97    106   5     0.00000     0.00000     1.25520  0.0
     80     79     97     98   5    -8.00818    -1.52298     2.46438  0.0
     80     79     97    105   5     0.00000     0.00000    -0.94140  0.0
     80     79     97    106   5     0.00000     0.00000    -0.94140  0.0
     88     79     97     98   5     0.00000     0.00000     1.25520  0.0
     88     79     97    105   5     0.00000     0.00000     1.25520  0.0
     88     79     97    106   5     0.00000     0.00000     1.25520  0.0
     79     80     82     83   5    12.53945    12.88254     0.00000  0.0
     79     80     82     89   5     0.00000    20.50160     0.00000  0.0
     81     80     82     83   5     0.00000    25.47638     0.00000  0.0
     81     80     82     89   5     0.00000    20.50160     0.00000  0.0
     80     82     83     84   5    -3.67774    -0.67781     0.28033  0.0
     80     82     83     85   5    -3.67774    -0.67781     0.28033  0.0
     80     82     83     90   5     0.00000     0.00000     0.00000  0.0
     89     82     83     84   5     0.00000     0.00000     0.00000  0.0
     89     82     83     85   5     0.00000     0.00000     0.00000  0.0
     89     82     83     90   5     0.00000     0.00000     0.00000  0.0
     82     83     84     91   5     0.00000     0.00000     1.25520  0.0
     82     83     84     92   5     0.00000     0.00000     1.25520  0.0
     82     83     84     93   5     0.00000     0.00000     1.25520  0.0
     85     83     84     91   5     0.00000     0.00000     1.25520  0.0
     85     83     84     92   5     0.00000     0.00000     1.25520  0.0
     85     83     84     93   5     0.00000     0.00000     1.25520  0.0
     90     83     84     91   5     0.00000     0.00000     1.25520  0.0
     90     83     84     92   5     0.00000     0.00000     1.25520  0.0
     90     83     84     93   5     0.00000     0.00000     1.25520  0.0
     82     83     85     94   5     0.00000     0.00000     1.25520  0.0
     82     83     85     95   5     0.00000     0.00000     1.25520  0.0
     82     83     85     96   5     0.00000     0.00000     1.25520  0.0
     84     83     85     94   5     0.00000     0.00000     1.25520  0.0
     84     83     85     95   5     0.00000     0.00000     1.25520  0.0
     84     83     85     96   5     0.00000     0.00000     1.25520  0.0
     90     83     85     94   5     0.00000     0.00000     1.25520  0.0
     90     83     85     95   5     0.00000     0.00000     1.25520  0.0
     90     83     85     96   5     0.00000     0.00000     1.25520  0.0
     79     97     98     99   5    -8.00818    -1.52298     2.46438  0.0
     79     97     98    107   5     0.00000     0.00000     1.25520  0.0
     79     97     98    116   5     4.74884    -0.63178     1.67360  0.0
    105     97     98     99   5     0.00000     0.00000    -0.94140  0.0
    105     97     98    107   5     0.00000     0.00000     1.25520  0.0
    105     97     98    116   5     0.00000     0.00000     1.25520  0.0
    106     97     98     99   5     0.00000     0.00000    -0.94140  0.0
    106     97     98    107   5     0.00000     0.00000     1.25520  0.0
    106     97     98    116   5     0.00000     0.00000     1.25520  0.0
     97     98     99    100   5     0.00000     2.52295     0.00000  0.0
     97     98     99    101   5    11.69428    -0.66526    -1.56900  0.0
    107     98     99    100   5     0.00000     0.00000     0.00000  0.0
    107     98     99    101   5     0.00000     0.00000     0.00000  0.0
    116     98     99    100   5     0.00000     2.52295     0.00000  0.0
    116     98     99    101   5    11.69428    -0.66526    -1.56900  0.0
     97     98    116    117   5     4.74884    -0.63178     1.67360  0.0
     97     98    116    124   5     0.00000     0.00000     1.25520  0.0
     97     98    116    125   5     0.00000     0.00000     1.25520  0.0
     99     98    116    117   5    -8.00818    -1.52298     2.46438  0.0
     99     98    116    124   5     0.00000     0.00000    -0.94140  0.0
     99     98    116    125   5     0.00000     0.00000    -0.94140  0.0
    107     98    116    117   5     0.00000     0.00000     1.25520  0.0
    107     98    116    124   5     0.00000     0.00000     1.25520  0.0
    107     98    116    125   5     0.00000     0.00000     1.25520  0.0
     98     99    101    102   5    12.53945    12.88254     0.00000  0.0
     98     99    101    108   5     0.00000    20.50160     0.00000  0.0
    100     99    101    102   5     0.00000    25.47638     0.00000  0.0
    100     99    101    108   5     0.00000    20.50160     0.00000  0.0
     99    101    102    103   5    -3.67774    -0.67781     0.28033  0.0
     99    101    102    104   5    -3.67774    -0.67781     0.28033  0.0
     99    101    102    109   5     0.00000     0.00000     0.00000  0.0
    108    101    102    103   5     0.00000     0.00000     0.00000  0.0
    108    101    102    104   5     0.00000     0.00000     0.00000  0.0
    108    101    102    109   5     0.00000     0.00000     0.00000  0.0
    101    102    103    110   5     0.00000     0.00000     1.25520  0.0
    101    102    103    111   5     0.00000     0.00000     1.25520  0.0
    101    102    103    112   5     0.00000     0.00000     1.25520  0.0
    104    102    103    110   5     0.00000     0.00000     1.25520  0.0
    104    102    103    111   5     0.00000     0.00000     1.25520  0.0
    104    102    103    112   5     0.00000     0.00000     1.25520  0.0
    109    102    103    110   5     0.00000     0.00000     1.25520  0.0
    109    102    103    111   5     0.00000     0.00000     1.25520  0.0
    109    102    103    112   5     0.00000     0.00000     1.25520  0.0
    101    102    104    113   5     0.00000     0.00000     1.25520  0.0
    101    102    104    114   5     0.00000     0.00000     1.25520  0.0
    101    102    104    115   5     0.00000     0.00000     1.25520  0.0
    103    102    104    113   5     0.00000     0.00000     1.25520  0.0
    103    102    104    114   5     0.00000     0.00000     1.25520  0.0
    103    102    104    115   5     0.00000     0.00000     1.25520  0.0
    109    102    104    113   5     0.00000     0.00000     1.25520  0.0
    109    102    104    114   5     0.00000     0.00000     1.25520  0.0
    109    102    104    115   5     0.00000     0.00000     1.25520  0.0
     98    116    117    118   5    -8.00818    -1.52298     2.46438  0.0
     98    116    117    126   5     0.00000     0.00000     1.25520  0.0
     98    116    117    135   5     4.74884    -0.63178     1.67360  0.0
    124    116    117    118   5     0.00000     0.00000    -0.94140  0.0
    124    116    117    126   5     0.00000     0.00000     1.25520  0.0
    124    116    117    135   5     0.00000     0.00000     1.25520  0.0
    125    116    117    118   5     0.00000     0.00000    -0.94140  0.0
    125    116    117    126   5     0.00000     0.00000     1.25520  0.0
    125    116    117    135   5     0.00000     0.00000     1.25520  0.0
    116    117    118    119   5     0.00000     2.52295     0.00000  0.0
    116    117    118    120   5    11.69428    -0.66526    -1.56900  0.0
    126    117    118    119   5     0.00000     0.00000     0.00000  0.0
    126    117    118    120   5     0.00000     0.00000     0.00000  0.0
    135    117    118    119   5     0.00000     2.52295     0.00000  0.0
    135    117    118    120   5    11.69428    -0.66526    -1.56900  0.0
    116    117    135    136   5     4.74884    -0.63178     1.67360  0.0
    116    117    135    143   5     0.00000     0.00000     1.25520  0.0
    116    117    135    144   5     0.00000     0.00000     1.25520  0.0
    118    117    135    136   5    -8.00818    -1.52298     2.46438  0.0
    118    117    135    143   5     0.00000     0.00000    -0.94140  0.0
    118    117    135    144   5     0.00000     0.00000    -0.94140  0.0
    126    117    135    136   5     0.00000     0.00000     1.25520  0.0
    126    117    135    143   5     0.00000     0.00000     1.25520  0.0
    126    117    135    144   5     0.00000     0.00000     1.25520  0.0
    117    118    120    121   5    12.53945    12.88254     0.00000  0.0
    117    118    120    127   5     0.00000    20.50160     0.00000  0.0
    119    118    120    121   5     0.00000    25.47638     0.00000  0.0
    119    118    120    127   5     0.00000    20.50160     0.00000  0.0
    118    120    121    122   5    -3.67774    -0.67781     0.28033  0.0
    118    120    121    123   5    -3.67774    -0.67781     0.28033  0.0
    118    120    121    128   5     0.00000     0.00000     0.00000  0.0
    127    120    121    122   5     0.00000     0.00000     0.00000  0.0
    127    120    121    123   5     0.00000     0.00000     0.00000  0.0
    127    120    121    128   5     0.00000     0.00000     0.00000  0.0
    120    121    122    129   5     0.00000     0.00000     1.25520  0.0
    120    121    122    130   5     0.00000     0.00000     1.25520  0.0
    120    121    122    131   5     0.00000     0.00000     1.25520  0.0
    123    121    122    129   5     0.00000     0.00000     1.25520  0.0
    123    121    122    130   5     0.00000     0.00000     1.25520  0.0
    123    121    122    131   5     0.00000     0.00000     1.25520  0.0
    128    121    122    129   5     0.00000     0.00000     1.25520  0.0
    128    121    122    130   5     0.00000     0.00000     1.25520  0.0
    128    121    122    131   5     0.00000     0.00000     1.25520  0.0
    120    121    123    132   5     0.00000     0.00000     1.25520  0.0
    120    121    123    133   5     0.00000     0.00000     1.25520  0.0
    120    121    123    134   5     0.00000     0.00000     1.25520  0.0
    122    121    123    132   5     0.00000     0.00000     1.25520  0.0
    122    121    123    133   5     0.00000     0.00000     1.25520  0.0
    122    121    123    134   5     0.00000     0.00000     1.25520  0.0
    128    121    123    132   5     0.00000     0.00000     1.25520  0.0
    128    121    123    133   5     0.00000     0.00000     1.25520  0.0
    128    121    123    134   5     0.00000     0.00000     1.25520  0.0
    117    135    136    137   5    -8.00818    -1.52298     2.46438  0.0
    117    135    136    145   5     0.00000     0.00000     1.25520  0.0
    117    135    136    154   5     4.74884    -0.63178     1.67360  0.0
    143    135    136    137   5     0.00000     0.00000    -0.94140  0.0
    143    135    136    145   5     0.00000     0.00000     1.25520  0.0
    143    135    136    154   5     0.00000     0.00000     1.25520  0.0
    144    135    136    137   5     0.00000     0.00000    -0.94140  0.0
    144    135    136    145   5     0.00000     0.00000     1.25520  0.0
    144    135    136    154   5     0.00000     0.00000     1.25520  0.0
    135    136    137    138   5     0.00000     2.52295     0.00000  0.0
    135    136    137    139   5    11.69428    -0.66526    -1.56900  0.0
    145    136    137    138   5     0.00000     0.00000     0.00000  0.0
    145    136    137    139   5     0.00000     0.00000     0.00000  0.0
    154    136    137    138   5     0.00000     2.52295     0.00000  0.0
    154    136    137    139   5    11.69428    -0.66526    -1.56900  0.0
    135    136    154    155   5     4.74884    -0.63178     1.67360  0.0
    135    136    154    162   5     0.00000     0.00000     1.25520  0.0
    135    136    154    163   5     0.00000     0.00000     1.25520  0.0
    137    136    154    155   5    -8.00818    -1.52298     2.46438  0.0
    137    136    154    162   5     0.00000     0.00000    -0.94140  0.0
    137    136    154    163   5     0.00000     0.00000    -0.94140  0.0
    145    136    154    155   5     0.00000     0.00000     1.25520  0.0
    145    136    154    162   5     0.00000     0.00000     1.25520  0.0
    145    136    154    163   5     0.00000     0.00000     1.25520  0.0
    136    137    139    140   5    12.53945    12.88254     0.00000  0.0
    136    137    139    146   5     0.00000    20.50160     0.00000  0.0
    138    137    139    140   5     0.00000    25.47638     0.00000  0.0
    138    137    139    146   5     0.00000    20.50160     0.00000  0.0
    137    139    140    141   5    -3.67774    -0.67781     0.28033  0.0
    137    139    140    142   5    -3.67774    -0.67781     0.28033  0.0
    137    139    140    147   5     0.00000     0.00000     0.00000  0.0
    146    139    140    141   5     0.00000     0.00000     0.00000  0.0
    146    139    140    142   5     0.00000     0.00000     0.00000  0.0
    146    139    140    147   5     0.00000     0.00000     0.00000  0.0
    139    140    141    148   5     0.00000     0.00000     1.25520  0.0
    139    140    141    149   5     0.00000     0.00000     1.25520  0.0
    139    140    141    150   5     0.00000     0.00000     1.25520  0.0
    142    140    141    148   5     0.00000     0.00000     1.25520  0.0
    142    140    141    149   5     0.00000     0.00000     1.25520  0.0
    142    140    141    150   5     0.00000     0.00000     1.25520  0.0
    147    140    141    148   5     0.00000     0.00000     1.25520  0.0
    147    140    141    149   5     0.00000     0.00000     1.25520  0.0
    147    140    141    150   5     0.00000     0.00000     1.25520  0.0
    139    140    142    151   5     0.00000     0.00000     1.25520  0.0
    139    140    142    152   5     0.00000     0.00000     1.25520  0.0
    139    140    142    153   5     0.00000     0.00000     1.25520  0.0
    141    140    142    151   5     0.00000     0.00000     1.25520  0.0
    141    140    142    152   5     0.00000     0.00000     1.25520  0.0
    141    140    142    153   5     0.00000     0.00000     1.25520  0.0
    147    140    142    151   5     0.00000     0.00000     1.25520  0.0
    147    140    142    152   5     0.00000     0.00000     1.25520  0.0
    147    140    142    153   5     0.00000     0.00000     1.25520  0.0
    136    154    155    156   5    -8.00818    -1.52298     2.46438  0.0
    136    154    155    164   5     0.00000     0.00000     1.25520  0.0
    136    154    155    173   5     4.74884    -0.63178     1.67360  0.0
    162    154    155    156   5     0.00000     0.00000    -0.94140  0.0
    162    154    155    164   5     0.00000     0.00000     1.25520  0.0
    162    154    155    173   5     0.00000     0.00000     1.25520  0.0
    163    154    155    156   5     0.00000     0.00000    -0.94140  0.0
    163    154    155    164   5     0.00000     0.00000     1.25520  0.0
    163    154    155    173   5     0.00000     0.00000     1.25520  0.0
    154    155    156    157   5     0.00000     2.52295     0.00000  0.0
    154    155    156    158   5    11.69428    -0.66526    -1.56900  0.0
    164    155    156    157   5     0.00000     0.00000     0.00000  0.0
    164    155    156    158   5     0.00000     0.00000     0.00000  0.0
    173    155    156    157   5     0.00000     2.52295     0.00000  0.0
    173    155    156    158   5    11.69428    -0.66526    -1.56900  0.0
    154    155    173    174   5     4.74884    -0.63178     1.67360  0.0
    154    155    173    181   5     0.00000     0.00000     1.25520  0.0
    154    155    173    182   5     0.00000     0.00000     1.25520  0.0
    156    155    173    174   5    -8.00818    -1.52298     2.46438  0.0
    156    155    173    181   5     0.00000     0.00000    -0.94140  0.0
    156    155    173    182   5     0.00000     0.00000    -0.94140  0.0
    164    155    173    174   5     0.00000     0.00000     1.25520  0.0
    164    155    173    181   5     0.00000     0.00000     1.25520  0.0
    164    155    173    182   5     0.00000     0.00000     1.25520  0.0
    155    156    158    159   5    12.53945    12.88254     0.00000  0.0
    155    156    158    165   5     0.00000    20.50160     0.00000  0.0
    157    156    158    159   5     0.00000    25.47638     0.00000  0.0
    157    156    158    165   5     0.00000    20.50160     0.00000  0.0
    156    158    159    160   5    -3.67774    -0.67781     0.28033  0.0
    156    158    159    161   5    -3.67774    -0.67781     0.28033  0.0
    156    158    159    166   5     0.00000     0.00000     0.00000  0.0
    165    158    159    160   5     0.00000     0.00000     0.00000  0.0
    165    158    159    161   5     0.00000     0.00000     0.00000  0.0
    165    158    159    166   5     0.00000     0.00000     0.00000  0.0
    158    159    160    167   5     0.00000     0.00000     1.25520  0.0
    158    159    160    168   5     0.00000     0.00000     1.25520  0.0
    158    159    160    169   5     0.00000     0.00000     1.25520  0.0
    161    159    160    167   5     0.00000     0.00000     1.25520  0.0
    161    159    160    168   5     0.00000     0.00000     1.25520  0.0
    161    159    160    169   5     0.00000     0.00000     1.25520  0.0
    166    159    160    167   5     0.00000     0.00000     1.25520  0.0
    166    159    160    168   5     0.00000     0.00000     1.25520  0.0
    166    159    160    169   5     0.00000     0.00000     1.25520  0.0
    158    159    161    170   5     0.00000     0.00000     1.25520  0.0
    158    159    161    171   5     0.00000     0.00000     1.25520  0.0
    158    159    161    172   5     0.00000     0.00000     1.25520  0.0
    160    159    161    170   5     0.00000     0.00000     1.25520  0.0
    160    159    161    171   5     0.00000     0.00000     1.25520  0.0
    160    159    161    172   5     0.00000     0.00000     1.25520  0.0
    166    159    161    170   5     0.00000     0.00000     1.25520  0.0
    166    159    161    171   5     0.00000     0.00000     1.25520  0.0
    166    159    161    172   5     0.00000     0.00000     1.25520  0.0
    155    173    174    175   5    -8.00818    -1.52298     2.46438  0.0
    155    173    174    183   5     0.00000     0.00000     1.25520  0.0
    155    173    174    192   5     4.74884    -0.63178     1.67360  0.0
    181    173    174    175   5     0.00000     0.00000    -0.94140  0.0
    181    173    174    183   5     0.00000     0.00000     1.25520  0.0
    181    173    174    192   5     0.00000     0.00000     1.25520  0.0
    182    173    174    175   5     0.00000     0.00000    -0.94140  0.0
    182    173    174    183   5     0.00000     0.00000     1.25520  0.0
    182    173    174    192   5     0.00000     0.00000     1.25520  0.0
    173    174    175    176   5     0.00000     2.52295     0.00000  0.0
    173    174    175    177   5    11.69428    -0.66526    -1.56900  0.0
    183    174    175    176   5     0.00000     0.00000     0.00000  0.0
    183    174    175    177   5     0.00000     0.00000     0.00000  0.0
    192    174    175    176   5     0.00000     2.52295     0.00000  0.0
    192    174    175    177   5    11.69428    -0.66526    -1.56900  0.0
    173    174    192    193   5     4.74884    -0.63178     1.67360  0.0
    173    174    192    200   5     0.00000     0.00000     1.25520  0.0
    173    174    192    201   5     0.00000     0.00000     1.25520  0.0
    175    174    192    193   5    -8.00818    -1.52298     2.46438  0.0
    175    174    192    200   5     0.00000     0.00000    -0.94140  0.0
    175    174    192    201   5     0.00000     0.00000    -0.94140  0.0
    183    174    192    193   5     0.00000     0.00000     1.25520  0.0
    183    174    192    200   5     0.00000     0.00000     1.25520  0.0
    183    174    192    201   5     0.00000     0.00000     1.25520  0.0
    174    175    177    178   5    12.53945    12.88254     0.00000  0.0
    174    175    177    184   5     0.00000    20.50160     0.00000  0.0
    176    175    177    178   5     0.00000    25.47638     0.00000  0.0
    176    175    177    184   5     0.00000    20.50160     0.00000  0.0
    175    177    178    179   5    -3.67774    -0.67781     0.28033  0.0
    175    177    178    180   5    -3.67774    -0.67781     0.28033  0.0
    175    177    178    185   5     0.00000     0.00000     0.00000  0.0
    184    177    178    179   5     0.00000     0.00000     0.00000  0.0
    184    177    178    180   5     0.00000     0.00000     0.00000  0.0
    184    177    178    185   5     0.00000     0.00000     0.00000  0.0
    177    178    179    186   5     0.00000     0.00000     1.25520  0.0
    177    178    179    187   5     0.00000     0.00000     1.25520  0.0
    177    178    179    188   5     0.00000     0.00000     1.25520  0.0
    180    178    179    186   5     0.00000     0.00000     1.25520  0.0
    180    178    179    187   5     0.00000     0.00000     1.25520  0.0
    180    178    179    188   5     0.00000     0.00000     1.25520  0.0
    185    178    179    186   5     0.00000     0.00000     1.25520  0.0
    185    178    179    187   5     0.00000     0.00000     1.25520  0.0
    185    178    179    188   5     0.00000     0.00000     1.25520  0.0
    177    178    180    189   5     0.00000     0.00000     1.25520  0.0
    177    178    180    190   5     0.00000     0.00000     1.25520  0.0
    177    178    180    191   5     0.00000     0.00000     1.25520  0.0
    179    178    180    189   5     0.00000     0.00000     1.25520  0.0
    179    178    180    190   5     0.00000     0.00000     1.25520  0.0
    179    178    180    191   5     0.00000     0.00000     1.25520  0.0
    185    178    180    189   5     0.00000     0.00000     1.25520  0.0
    185    178    180    190   5     0.00000     0.00000     1.25520  0.0
    185    178    180    191   5     0.00000     0.00000     1.25520  0.0
    174    192    193    194   5    -8.00818    -1.52298     2.46438  0.0
    174    192    193    202   5     0.00000     0.00000     1.25520  0.0
    174    192    193    211   5     4.74884    -0.63178     1.67360  0.0
    200    192    193    194   5     0.00000     0.00000    -0.94140  0.0
    200    192    193    202   5     0.00000     0.00000     1.25520  0.0
    200    192    193    211   5     0.00000     0.00000     1.25520  0.0
    201    192    193    194   5     0.00000     0.00000    -0.94140  0.0
    201    192    193    202   5     0.00000     0.00000     1.25520  0.0
    201    192    193    211   5     0.00000     0.00000     1.25520  0.0
    192    193    194    195   5     0.00000     2.52295     0.00000  0.0
    192    193    194    196   5    11.69428    -0.66526    -1.56900  0.0
    202    193    194    195   5     0.00000     0.00000     0.00000  0.0
    202    193    194    196   5     0.00000     0.00000     0.00000  0.0
    211    193    194    195   5     0.00000     2.52295     0.00000  0.0
    211    193    194    196   5    11.69428    -0.66526    -1.56900  0.0
    192    193    211    212   5     4.74884    -0.63178     1.67360  0.0
    192    193    211    219   5     0.00000     0.00000     1.25520  0.0
    192    193    211    220   5     0.00000     0.00000     1.25520  0.0
    194    193    211    212   5    -8.00818    -1.52298     2.46438  0.0
    194    193    211    219   5     0.00000     0.00000    -0.94140  0.0
    194    193    211    220   5     0.00000     0.00000    -0.94140  0.0
    202    193    211    212   5     0.00000     0.00000     1.25520  0.0
    202    193    211    219   5     0.00000     0.00000     1.25520  0.0
    202    193    211    220   5     0.00000     0.00000     1.25520  0.0
    193    194    196    197   5    12.53945    12.88254     0.00000  0.0
    193    194    196    203   5     0.00000    20.50160     0.00000  0.0
    195    194    196    197   5     0.00000    25.47638     0.00000  0.0
    195    194    196    203   5     0.00000    20.50160     0.00000  0.0
    194    196    197    198   5    -3.67774    -0.67781     0.28033  0.0
    194    196    197    199   5    -3.67774    -0.67781     0.28033  0.0
    194    196    197    204   5     0.00000     0.00000     0.00000  0.0
    203    196    197    198   5     0.00000     0.00000     0.00000  0.0
    203    196    197    199   5     0.00000     0.00000     0.00000  0.0
    203    196    197    204   5     0.00000     0.00000     0.00000  0.0
    196    197    198    205   5     0.00000     0.00000     1.25520  0.0
    196    197    198    206   5     0.00000     0.00000     1.25520  0.0
    196    197    198    207   5     0.00000     0.00000     1.25520  0.0
    199    197    198    205   5     0.00000     0.00000     1.25520  0.0
    199    197    198    206   5     0.00000     0.00000     1.25520  0.0
    199    197    198    207   5     0.00000     0.00000     1.25520  0.0
    204    197    198    205   5     0.00000     0.00000     1.25520  0.0
    204    197    198    206   5     0.00000     0.00000     1.25520  0.0
    204    197    198    207   5     0.00000     0.00000     1.25520  0.0
    196    197    199    208   5     0.00000     0.00000     1.25520  0.0
    196    197    199    209   5     0.00000     0.00000     1.25520  0.0
    196    197    199    210   5     0.00000     0.00000     1.25520  0.0
    198    197    199    208   5     0.00000     0.00000     1.25520  0.0
    198    197    199    209   5     0.00000     0.00000     1.25520  0.0
    198    197    199    210   5     0.00000     0.00000     1.25520  0.0
    204    197    199    208   5     0.00000     0.00000     1.25520  0.0
    204    197    199    209   5     0.00000     0.00000     1.25520  0.0
    204    197    199    210   5     0.00000     0.00000     1.25520  0.0
    193    211    212    213   5    -8.00818    -1.52298     2.46438  0.0
    193    211    212    221   5     0.00000     0.00000     1.25520  0.0
    193    211    212    230   5     4.74884    -0.63178     1.67360  0.0
    219    211    212    213   5     0.00000     0.00000    -0.94140  0.0
    219    211    212    221   5     0.00000     0.00000     1.25520  0.0
    219    211    212    230   5     0.00000     0.00000     1.25520  0.0
    220    211    212    213   5     0.00000     0.00000    -0.94140  0.0
    220    211    212    221   5     0.00000     0.00000     1.25520  0.0
    220    211    212    230   5     0.00000     0.00000     1.25520  0.0
    211    212    213    214   5     0.00000     2.52295     0.00000  0.0
    211    212    213    215   5    11.69428    -0.66526    -1.56900  0.0
    221    212    213    214   5     0.00000     0.00000     0.00000  0.0
    221    212    213    215   5     0.00000     0.00000     0.00000  0.0
    230    212    213    214   5     0.00000     2.52295     0.00000  0.0
    230    212    213    215   5    11.69428    -0.66526    -1.56900  0.0
    211    212    230    231   5     4.74884    -0.63178     1.67360  0.0
    211    212    230    238   5     0.00000     0.00000     1.25520  0.0
    211    212    230    239   5     0.00000     0.00000     1.25520  0.0
    213    212    230    231   5    -8.00818    -1.52298     2.46438  0.0
    213    212    230    238   5     0.00000     0.00000    -0.94140  0.0
    213    212    230    239   5     0.00000     0.00000    -0.94140  0.0
    221    212    230    231   5     0.00000     0.00000     1.25520  0.0
    221    212    230    238   5     0.00000     0.00000     1.25520  0.0
    221    212    230    239   5     0.00000     0.00000     1.25520  0.0
    212    213    215    216   5    12.53945    12.88254     0.00000  0.0
    212    213    215    222   5     0.00000    20.50160     0.00000  0.0
    214    213    215    216   5     0.00000    25.47638     0.00000  0.0
    214    213    215    222   5     0.00000    20.50160     0.00000  0.0
    213    215    216    217   5    -3.67774    -0.67781     0.28033  0.0
    213    215    216    218   5    -3.67774    -0.67781     0.28033  0.0
    213    215    216    223   5     0.00000     0.00000     0.00000  0.0
    222    215    216    217   5     0.00000     0.00000     0.00000  0.0
    222    215    216    218   5     0.00000     0.00000     0.00000  0.0
    222    215    216    223   5     0.00000     0.00000     0.00000  0.0
    215    216    217    224   5     0.00000     0.00000     1.25520  0.0
    215    216    217    225   5     0.00000     0.00000     1.25520  0.0
    215    216    217    226   5     0.00000     0.00000     1.25520  0.0
    218    216    217    224   5     0.00000     0.00000     1.25520  0.0
    218    216    217    225   5     0.00000     0.00000     1.25520  0.0
    218    216    217    226   5     0.00000     0.00000     1.25520  0.0
    223    216    217    224   5     0.00000     0.00000     1.25520  0.0
    223    216    217    225   5     0.00000     0.00000     1.25520  0.0
    223    216    217    226   5     0.00000     0.00000     1.25520  0.0
    215    216    218    227   5     0.00000     0.00000     1.25520  0.0
    215    216    218    228   5     0.00000     0.00000     1.25520  0.0
    215    216    218    229   5     0.00000     0.00000     1.25520  0.0
    217    216    218    227   5     0.00000     0.00000     1.25520  0.0
    217    216    218    228   5     0.00000     0.00000     1.25520  0.0
    217    216    218    229   5     0.00000     0.00000     1.25520  0.0
    223    216    218    227   5     0.00000     0.00000     1.25520  0.0
    223    216    218    228   5     0.00000     0.00000     1.25520  0.0
    223    216    218    229   5     0.00000     0.00000     1.25520  0.0
    212    230    231    232   5    -8.00818    -1.52298     2.46438  0.0
    212    230    231    240   5     0.00000     0.00000     1.25520  0.0
    212    230    231    249   5     4.74884    -0.63178     1.67360  0.0
    238    230    231    232   5     0.00000     0.00000    -0.94140  0.0
    238    230    231    240   5     0.00000     0.00000     1.25520  0.0
    238    230    231    249   5     0.00000     0.00000     1.25520  0.0
    239    230    231    232   5     0.00000     0.00000    -0.94140  0.0
    239    230    231    240   5     0.00000     0.00000     1.25520  0.0
    239    230    231    249   5     0.00000     0.00000     1.25520  0.0
    230    231    232    233   5     0.00000     2.52295     0.00000  0.0
    230    231    232    234   5    11.69428    -0.66526    -1.56900  0.0
    240    231    232    233   5     0.00000     0.00000     0.00000  0.0
    240    231    232    234   5     0.00000     0.00000     0.00000  0.0
    249    231    232    233   5     0.00000     2.52295     0.00000  0.0
    249    231    232    234   5    11.69428    -0.66526    -1.56900  0.0
    230    231    249    250   5     4.74884    -0.63178     1.67360  0.0
    230    231    249    257   5     0.00000     0.00000     1.25520  0.0
    230    231    249    258   5     0.00000     0.00000     1.25520  0.0
    232    231    249    250   5    -8.00818    -1.52298     2.46438  0.0
    232    231    249    257   5     0.00000     0.00000    -0.94140  0.0
    232    231    249    258   5     0.00000     0.00000    -0.94140  0.0
    240    231    249    250   5     0.00000     0.00000     1.25520  0.0
    240    231    249    257   5     0.00000     0.00000     1.25520  0.0
    240    231    249    258   5     0.00000     0.00000     1.25520  0.0
    231    232    234    235   5    12.53945    12.88254     0.00000  0.0
    231    232    234    241   5     0.00000    20.50160     0.00000  0.0
    233    232    234    235   5     0.00000    25.47638     0.00000  0.0
    233    232    234    241   5     0.00000    20.50160     0.00000  0.0
    232    234    235    236   5    -3.67774    -0.67781     0.28033  0.0
    232    234    235    237   5    -3.67774    -0.67781     0.28033  0.0
    232    234    235    242   5     0.00000     0.00000     0.00000  0.0
    241    234    235    236   5     0.00000     0.00000     0.00000  0.0
    241    234    235    237   5     0.00000     0.00000     0.00000  0.0
    241    234    235    242   5     0.00000     0.00000     0.00000  0.0
    234    235    236    243   5     0.00000     0.00000     1.25520  0.0
    234    235    236    244   5     0.00000     0.00000     1.25520  0.0
    234    235    236    245   5     0.00000     0.00000     1.25520  0.0
    237    235    236    243   5     0.00000     0.00000     1.25520  0.0
    237    235    236    244   5     0.00000     0.00000     1.25520  0.0
    237    235    236    245   5     0.00000     0.00000     1.25520  0.0
    242    235    236    243   5     0.00000     0.00000     1.25520  0.0
    242    235    236    244   5     0.00000     0.00000     1.25520  0.0
    242    235    236    245   5     0.00000     0.00000     1.25520  0.0
    234    235    237    246   5     0.00000     0.00000     1.25520  0.0
    234    235    237    247   5     0.00000     0.00000     1.25520  0.0
    234    235    237    248   5     0.00000     0.00000     1.25520  0.0
    236    235    237    246   5     0.00000     0.00000     1.25520  0.0
    236    235    237    247   5     0.00000     0.00000     1.25520  0.0
    236    235    237    248   5     0.00000     0.00000     1.25520  0.0
    242    235    237    246   5     0.00000     0.00000     1.25520  0.0
    242    235    237    247   5     0.00000     0.00000     1.25520  0.0
    242    235    237    248   5     0.00000     0.00000     1.25520  0.0
    231    249    250    251   5    -8.00818    -1.52298     2.46438  0.0
    231    249    250    259   5     0.00000     0.00000     1.25520  0.0
    231    249    250    268   5     4.74884    -0.63178     1.67360  0.0
    257    249    250    251   5     0.00000     0.00000    -0.94140  0.0
    257    249    250    259   5     0.00000     0.00000     1.25520  0.0
    257    249    250    268   5     0.00000     0.00000     1.25520  0.0
    258    249    250    251   5     0.00000     0.00000    -0.94140  0.0
    258    249    250    259   5     0.00000     0.00000     1.25520  0.0
    258    249    250    268   5     0.00000     0.00000     1.25520  0.0
    249    250    251    252   5     0.00000     2.52295     0.00000  0.0
    249    250    251    253   5    11.69428    -0.66526    -1.56900  0.0
    259    250    251    252   5     0.00000     0.00000     0.00000  0.0
    259    250    251    253   5     0.00000     0.00000     0.00000  0.0
    268    250    251    252   5     0.00000     2.52295     0.00000  0.0
    268    250    251    253   5    11.69428    -0.66526    -1.56900  0.0
    249    250    268    269   5     4.74884    -0.63178     1.67360  0.0
    249    250    268    276   5     0.00000     0.00000     1.25520  0.0
    249    250    268    277   5     0.00000     0.00000     1.25520  0.0
    251    250    268    269   5    -8.00818    -1.52298     2.46438  0.0
    251    250    268    276   5     0.00000     0.00000    -0.94140  0.0
    251    250    268    277   5     0.00000     0.00000    -0.94140  0.0
    259    250    268    269   5     0.00000     0.00000     1.25520  0.0
    259    250    268    276   5     0.00000     0.00000     1.25520  0.0
    259    250    268    277   5     0.00000     0.00000     1.25520  0.0
    250    251    253    254   5    12.53945    12.88254     0.00000  0.0
    250    251    253    260   5     0.00000    20.50160     0.00000  0.0
    252    251    253    254   5     0.00000    25.47638     0.00000  0.0
    252    251    253    260   5     0.00000    20.50160     0.00000  0.0
    251    253    254    255   5    -3.67774    -0.67781     0.28033  0.0
    251    253    254    256   5    -3.67774    -0.67781     0.28033  0.0
    251    253    254    261   5     0.00000     0.00000     0.00000  0.0
    260    253    254    255   5     0.00000     0.00000     0.00000  0.0
    260    253    254    256   5     0.00000     0.00000     0.00000  0.0
    260    253    254    261   5     0.00000     0.00000     0.00000  0.0
    253    254    255    262   5     0.00000     0.00000     1.25520  0.0
    253    254    255    263   5     0.00000     0.00000     1.25520  0.0
    253    254    255    264   5     0.00000     0.00000     1.25520  0.0
    256    254    255    262   5     0.00000     0.00000     1.25520  0.0
    256    254    255    263   5     0.00000     0.00000     1.25520  0.0
    256    254    255    264   5     0.00000     0.00000     1.25520  0.0
    261    254    255    262   5     0.00000     0.00000     1.25520  0.0
    261    254    255    263   5     0.00000     0.00000     1.25520  0.0
    261    254    255    264   5     0.00000     0.00000     1.25520  0.0
    253    254    256    265   5     0.00000     0.00000     1.25520  0.0
    253    254    256    266   5     0.00000     0.00000     1.25520  0.0
    253    254    256    267   5     0.00000     0.00000     1.25520  0.0
    255    254    256    265   5     0.00000     0.00000     1.25520  0.0
    255    254    256    266   5     0.00000     0.00000     1.25520  0.0
    255    254    256    267   5     0.00000     0.00000     1.25520  0.0
    261    254    256    265   5     0.00000     0.00000     1.25520  0.0
    261    254    256    266   5     0.00000     0.00000     1.25520  0.0
    261    254    256    267   5     0.00000     0.00000     1.25520  0.0
    250    268    269    270   5    -8.00818    -1.52298     2.46438  0.0
    250    268    269    278   5     0.00000     0.00000     1.25520  0.0
    250    268    269    287   5     4.74884    -0.63178     1.67360  0.0
    276    268    269    270   5     0.00000     0.00000    -0.94140  0.0
    276    268    269    278   5     0.00000     0.00000     1.25520  0.0
    276    268    269    287   5     0.00000     0.00000     1.25520  0.0
    277    268    269    270   5     0.00000     0.00000    -0.94140  0.0
    277    268    269    278   5     0.00000     0.00000     1.25520  0.0
    277    268    269    287   5     0.00000     0.00000     1.25520  0.0
    268    269    270    271   5     0.00000     2.52295     0.00000  0.0
    268    269    270    272   5    11.69428    -0.66526    -1.56900  0.0
    278    269    270    271   5     0.00000     0.00000     0.00000  0.0
    278    269    270    272   5     0.00000     0.00000     0.00000  0.0
    287    269    270    271   5     0.00000     2.52295     0.00000  0.0
    287    269    270    272   5    11.69428    -0.66526    -1.56900  0.0
    268    269    287    288   5     4.74884    -0.63178     1.67360  0.0
    268    269    287    295   5     0.00000     0.00000     1.25520  0.0
    268    269    287    296   5     0.00000     0.00000     1.25520  0.0
    270    269    287    288   5    -8.00818    -1.52298     2.46438  0.0
    270    269    287    295   5     0.00000     0.00000    -0.94140  0.0
    270    269    287    296   5     0.00000     0.00000    -0.94140  0.0
    278    269    287    288   5     0.00000     0.00000     1.25520  0.0
    278    269    287    295   5     0.00000     0.00000     1.25520  0.0
    278    269    287    296   5     0.00000     0.00000     1.25520  0.0
    269    270    272    273   5    12.53945    12.88254     0.00000  0.0
    269    270    272    279   5     0.00000    20.50160     0.00000  0.0
    271    270    272    273   5     0.00000    25.47638     0.00000  0.0
    271    270    272    279   5     0.00000    20.50160     0.00000  0.0
    270    272    273    274   5    -3.67774    -0.67781     0.28033  0.0
    270    272    273    275   5    -3.67774    -0.67781     0.28033  0.0
    270    272    273    280   5     0.00000     0.00000     0.00000  0.0
    279    272    273    274   5     0.00000     0.00000     0.00000  0.0
    279    272    273    275   5     0.00000     0.00000     0.00000  0.0
    279    272    273    280   5     0.00000     0.00000     0.00000  0.0
    272    273    274    281   5     0.00000     0.00000     1.25520  0.0
    272    273    274    282   5     0.00000     0.00000     1.25520  0.0
    272    273    274    283   5     0.00000     0.00000     1.25520  0.0
    275    273    274    281   5     0.00000     0.00000     1.25520  0.0
    275    273    274    282   5     0.00000     0.00000     1.25520  0.0
    275    273    274    283   5     0.00000     0.00000     1.25520  0.0
    280    273    274    281   5     0.00000     0.00000     1.25520  0.0
    280    273    274    282   5     0.00000     0.00000     1.25520  0.0
    280    273    274    283   5     0.00000     0.00000     1.25520  0.0
    272    273    275    284   5     0.00000     0.00000     1.25520  0.0
    272    273    275    285   5     0.00000     0.00000     1.25520  0.0
    272    273    275    286   5     0.00000     0.00000     1.25520  0.0
    274    273    275    284   5     0.00000     0.00000     1.25520  0.0
    274    273    275    285   5     0.00000     0.00000     1.25520  0.0
    274    273    275    286   5     0.00000     0.00000     1.25520  0.0
    280    273    275    284   5     0.00000     0.00000     1.25520  0.0
    280    273    275    285   5     0.00000     0.00000     1.25520  0.0
    280    273    275    286   5     0.00000     0.00000     1.25520  0.0
    269    287    288    289   5    -8.00818    -1.52298     2.46438  0.0
    269    287    288    297   5     0.00000     0.00000     1.25520  0.0
    269    287    288    306   5     4.74884    -0.63178     1.67360  0.0
    295    287    288    289   5     0.00000     0.00000    -0.94140  0.0
    295    287    288    297   5     0.00000     0.00000     1.25520  0.0
    295    287    288    306   5     0.00000     0.00000     1.25520  0.0
    296    287    288    289   5     0.00000     0.00000    -0.94140  0.0
    296    287    288    297   5     0.00000     0.00000     1.25520  0.0
    296    287    288    306   5     0.00000     0.00000     1.25520  0.0
    287    288    289    290   5     0.00000     2.52295     0.00000  0.0
    287    288    289    291   5    11.69428    -0.66526    -1.56900  0.0
    297    288    289    290   5     0.00000     0.00000     0.00000  0.0
    297    288    289    291   5     0.00000     0.00000     0.00000  0.0
    306    288    289    290   5     0.00000     2.52295     0.00000  0.0
    306    288    289    291   5    11.69428    -0.66526    -1.56900  0.0
    287    288    306    307   5     4.74884    -0.63178     1.67360  0.0
    287    288    306    314   5     0.00000     0.00000     1.25520  0.0
    287    288    306    315   5     0.00000     0.00000     1.25520  0.0
    289    288    306    307   5    -8.00818    -1.52298     2.46438  0.0
    289    288    306    314   5     0.00000     0.00000    -0.94140  0.0
    289    288    306    315   5     0.00000     0.00000    -0.94140  0.0
    297    288    306    307   5     0.00000     0.00000     1.25520  0.0
    297    288    306    314   5     0.00000     0.00000     1.25520  0.0
    297    288    306    315   5     0.00000     0.00000     1.25520  0.0
    288    289    291    292   5    12.53945    12.88254     0.00000  0.0
    288    289    291    298   5     0.00000    20.50160     0.00000  0.0
    290    289    291    292   5     0.00000    25.47638     0.00000  0.0
    290    289    291    298   5     0.00000    20.50160     0.00000  0.0
    289    291    292    293   5    -3.67774    -0.67781     0.28033  0.0
    289    291    292    294   5    -3.67774    -0.67781     0.28033  0.0
    289    291    292    299   5     0.00000     0.00000     0.00000  0.0
    298    291    292    293   5     0.00000     0.00000     0.00000  0.0
    298    291    292    294   5     0.00000     0.00000     0.00000  0.0
    298    291    292    299   5     0.00000     0.00000     0.00000  0.0
    291    292    293    300   5     0.00000     0.00000     1.25520  0.0
    291    292    293    301   5     0.00000     0.00000     1.25520  0.0
    291    292    293    302   5     0.00000     0.00000     1.25520  0.0
    294    292    293    300   5     0.00000     0.00000     1.25520  0.0
    294    292    293    301   5     0.00000     0.00000     1.25520  0.0
    294    292    293    302   5     0.00000     0.00000     1.25520  0.0
    299    292    293    300   5     0.00000     0.00000     1.25520  0.0
    299    292    293    301   5     0.00000     0.00000     1.25520  0.0
    299    292    293    302   5     0.00000     0.00000     1.25520  0.0
    291    292    294    303   5     0.00000     0.00000     1.25520  0.0
    291    292    294    304   5     0.00000     0.00000     1.25520  0.0
    291    292    294    305   5     0.00000     0.00000     1.25520  0.0
    293    292    294    303   5     0.00000     0.00000     1.25520  0.0
    293    292    294    304   5     0.00000     0.00000     1.25520  0.0
    293    292    294    305   5     0.00000     0.00000     1.25520  0.0
    299    292    294    303   5     0.00000     0.00000     1.25520  0.0
    299    292    294    304   5     0.00000     0.00000     1.25520  0.0
    299    292    294    305   5     0.00000     0.00000     1.25520  0.0
    288    306    307    308   5    -8.00818    -1.52298     2.46438  0.0
    288    306    307    316   5     0.00000     0.00000     1.25520  0.0
    288    306    307    325   5     4.74884    -0.63178     1.67360  0.0
    314    306    307    308   5     0.00000     0.00000    -0.94140  0.0
    314    306    307    316   5     0.00000     0.00000     1.25520  0.0
    314    306    307    325   5     0.00000     0.00000     1.25520  0.0
    315    306    307    308   5     0.00000     0.00000    -0.94140  0.0
    315    306    307    316   5     0.00000     0.00000     1.25520  0.0
    315    306    307    325   5     0.00000     0.00000     1.25520  0.0
    306    307    308    309   5     0.00000     2.52295     0.00000  0.0
    306    307    308    310   5    11.69428    -0.66526    -1.56900  0.0
    316    307    308    309   5     0.00000     0.00000     0.00000  0.0
    316    307    308    310   5     0.00000     0.00000     0.00000  0.0
    325    307    308    309   5     0.00000     2.52295     0.00000  0.0
    325    307    308    310   5    11.69428    -0.66526    -1.56900  0.0
    306    307    325    326   5     4.74884    -0.63178     1.67360  0.0
    306    307    325    333   5     0.00000     0.00000     1.25520  0.0
    306    307    325    334   5     0.00000     0.00000     1.25520  0.0
    308    307    325    326   5    -8.00818    -1.52298     2.46438  0.0
    308    307    325    333   5     0.00000     0.00000    -0.94140  0.0
    308    307    325    334   5     0.00000     0.00000    -0.94140  0.0
    316    307    325    326   5     0.00000     0.00000     1.25520  0.0
    316    307    325    333   5     0.00000     0.00000     1.25520  0.0
    316    307    325    334   5     0.00000     0.00000     1.25520  0.0
    307    308    310    311   5    12.53945    12.88254     0.00000  0.0
    307    308    310    317   5     0.00000    20.50160     0.00000  0.0
    309    308    310    311   5     0.00000    25.47638     0.00000  0.0
    309    308    310    317   5     0.00000    20.50160     0.00000  0.0
    308    310    311    312   5    -3.67774    -0.67781     0.28033  0.0
    308    310    311    313   5    -3.67774    -0.67781     0.28033  0.0
    308    310    311    318   5     0.00000     0.00000     0.00000  0.0
    317    310    311    312   5     0.00000     0.00000     0.00000  0.0
    317    310    311    313   5     0.00000     0.00000     0.00000  0.0
    317    310    311    318   5     0.00000     0.00000     0.00000  0.0
    310    311    312    319   5     0.00000     0.00000     1.25520  0.0
    310    311    312    320   5     0.00000     0.00000     1.25520  0.0
    310    311    312    321   5     0.00000     0.00000     1.25520  0.0
    313    311    312    319   5     0.00000     0.00000     1.25520  0.0
    313    311    312    320   5     0.00000     0.00000     1.25520  0.0
    313    311    312    321   5     0.00000     0.00000     1.25520  0.0
    318    311    312    319   5     0.00000     0.00000     1.25520  0.0
    318    311    312    320   5     0.00000     0.00000     1.25520  0.0
    318    311    312    321   5     0.00000     0.00000     1.25520  0.0
    310    311    313    322   5     0.00000     0.00000     1.25520  0.0
    310    311    313    323   5     0.00000     0.00000     1.25520  0.0
    310    311    313    324   5     0.00000     0.00000     1.25520  0.0
    312    311    313    322   5     0.00000     0.00000     1.25520  0.0
    312    311    313    323   5     0.00000     0.00000     1.25520  0.0
    312    311    313    324   5     0.00000     0.00000     1.25520  0.0
    318    311    313    322   5     0.00000     0.00000     1.25520  0.0
    318    311    313    323   5     0.00000     0.00000     1.25520  0.0
    318    311    313    324   5     0.00000     0.00000     1.25520  0.0
    307    325    326    327   5    -8.00818    -1.52298     2.46438  0.0
    307    325    326    335   5     0.00000     0.00000     1.25520  0.0
    307    325    326    344   5     4.74884    -0.63178     1.67360  0.0
    333    325    326    327   5     0.00000     0.00000    -0.94140  0.0
    333    325    326    335   5     0.00000     0.00000     1.25520  0.0
    333    325    326    344   5     0.00000     0.00000     1.25520  0.0
    334    325    326    327   5     0.00000     0.00000    -0.94140  0.0
    334    325    326    335   5     0.00000     0.00000     1.25520  0.0
    334    325    326    344   5     0.00000     0.00000     1.25520  0.0
    325    326    327    328   5     0.00000     2.52295     0.00000  0.0
    325    326    327    329   5    11.69428    -0.66526    -1.56900  0.0
    335    326    327    328   5     0.00000     0.00000     0.00000  0.0
    335    326    327    329   5     0.00000     0.00000     0.00000  0.0
    344    326    327    328   5     0.00000     2.52295     0.00000  0.0
    344    326    327    329   5    11.69428    -0.66526    -1.56900  0.0
    325    326    344    345   5     4.74884    -0.63178     1.67360  0.0
    325    326    344    352   5     0.00000     0.00000     1.25520  0.0
    325    326    344    353   5     0.00000     0.00000     1.25520  0.0
    327    326    344    345   5    -8.00818    -1.52298     2.46438  0.0
    327    326    344    352   5     0.00000     0.00000    -0.94140  0.0
    327    326    344    353   5     0.00000     0.00000    -0.94140  0.0
    335    326    344    345   5     0.00000     0.00000     1.25520  0.0
    335    326    344    352   5     0.00000     0.00000     1.25520  0.0
    335    326    344    353   5     0.00000     0.00000     1.25520  0.0
    326    327    329    330   5    12.53945    12.88254     0.00000  0.0
    326    327    329    336   5     0.00000    20.50160     0.00000  0.0
    328    327    329    330   5     0.00000    25.47638     0.00000  0.0
    328    327    329    336   5     0.00000    20.50160     0.00000  0.0
    327    329    330    331   5    -3.67774    -0.67781     0.28033  0.0
    327    329    330    332   5    -3.67774    -0.67781     0.28033  0.0
    327    329    330    337   5     0.00000     0.00000     0.00000  0.0
    336    329    330    331   5     0.00000     0.00000     0.00000  0.0
    336    329    330    332   5     0.00000     0.00000     0.00000  0.0
    336    329    330    337   5     0.00000     0.00000     0.00000  0.0
    329    330    331    338   5     0.00000     0.00000     1.25520  0.0
    329    330    331    339   5     0.00000     0.00000     1.25520  0.0
    329    330    331    340   5     0.00000     0.00000     1.25520  0.0
    332    330    331    338   5     0.00000     0.00000     1.25520  0.0
    332    330    331    339   5     0.00000     0.00000     1.25520  0.0
    332    330    331    340   5     0.00000     0.00000     1.25520  0.0
    337    330    331    338   5     0.00000     0.00000     1.25520  0.0
    337    330    331    339   5     0.00000     0.00000     1.25520  0.0
    337    330    331    340   5     0.00000     0.00000     1.25520  0.0
    329    330    332    341   5     0.00000     0.00000     1.25520  0.0
    329    330    332    342   5     0.00000     0.00000     1.25520  0.0
    329    330    332    343   5     0.00000     0.00000     1.25520  0.0
    331    330    332    341   5     0.00000     0.00000     1.25520  0.0
    331    330    332    342   5     0.00000     0.00000     1.25520  0.0
    331    330    332    343   5     0.00000     0.00000     1.25520  0.0
    337    330    332    341   5     0.00000     0.00000     1.25520  0.0
    337    330    332    342   5     0.00000     0.00000     1.25520  0.0
    337    330    332    343   5     0.00000     0.00000     1.25520  0.0
    326    344    345    346   5    -8.00818    -1.52298     2.46438  0.0
    326    344    345    354   5     0.00000     0.00000     1.25520  0.0
    326    344    345    363   5     4.74884    -0.63178     1.67360  0.0
    352    344    345    346   5     0.00000     0.00000    -0.94140  0.0
    352    344    345    354   5     0.00000     0.00000     1.25520  0.0
    352    344    345    363   5     0.00000     0.00000     1.25520  0.0
    353    344    345    346   5     0.00000     0.00000    -0.94140  0.0
    353    344    345    354   5     0.00000     0.00000     1.25520  0.0
    353    344    345    363   5     0.00000     0.00000     1.25520  0.0
    344    345    346    347   5     0.00000     2.52295     0.00000  0.0
    344    345    346    348   5    11.69428    -0.66526    -1.56900  0.0
    354    345    346    347   5     0.00000     0.00000     0.00000  0.0
    354    345    346    348   5     0.00000     0.00000     0.00000  0.0
    363    345    346    347   5     0.00000     2.52295     0.00000  0.0
    363    345    346    348   5    11.69428    -0.66526    -1.56900  0.0
    344    345    363    364   5     4.74884    -0.63178     1.67360  0.0
    344    345    363    371   5     0.00000     0.00000     1.25520  0.0
    344    345    363    372   5     0.00000     0.00000     1.25520  0.0
    346    345    363    364   5    -8.00818    -1.52298     2.46438  0.0
    346    345    363    371   5     0.00000     0.00000    -0.94140  0.0
    346    345    363    372   5     0.00000     0.00000    -0.94140  0.0
    354    345    363    364   5     0.00000     0.00000     1.25520  0.0
    354    345    363    371   5     0.00000     0.00000     1.25520  0.0
    354    345    363    372   5     0.00000     0.00000     1.25520  0.0
    345    346    348    349   5    12.53945    12.88254     0.00000  0.0
    345    346    348    355   5     0.00000    20.50160     0.00000  0.0
    347    346    348    349   5     0.00000    25.47638     0.00000  0.0
    347    346    348    355   5     0.00000    20.50160     0.00000  0.0
    346    348    349    350   5    -3.67774    -0.67781     0.28033  0.0
    346    348    349    351   5    -3.67774    -0.67781     0.28033  0.0
    346    348    349    356   5     0.00000     0.00000     0.00000  0.0
    355    348    349    350   5     0.00000     0.00000     0.00000  0.0
    355    348    349    351   5     0.00000     0.00000     0.00000  0.0
    355    348    349    356   5     0.00000     0.00000     0.00000  0.0
    348    349    350    357   5     0.00000     0.00000     1.25520  0.0
    348    349    350    358   5     0.00000     0.00000     1.25520  0.0
    348    349    350    359   5     0.00000     0.00000     1.25520  0.0
    351    349    350    357   5     0.00000     0.00000     1.25520  0.0
    351    349    350    358   5     0.00000     0.00000     1.25520  0.0
    351    349    350    359   5     0.00000     0.00000     1.25520  0.0
    356    349    350    357   5     0.00000     0.00000     1.25520  0.0
    356    349    350    358   5     0.00000     0.00000     1.25520  0.0
    356    349    350    359   5     0.00000     0.00000     1.25520  0.0
    348    349    351    360   5     0.00000     0.00000     1.25520  0.0
    348    349    351    361   5     0.00000     0.00000     1.25520  0.0
    348    349    351    362   5     0.00000     0.00000     1.25520  0.0
    350    349    351    360   5     0.00000     0.00000     1.25520  0.0
    350    349    351    361   5     0.00000     0.00000     1.25520  0.0
    350    349    351    362   5     0.00000     0.00000     1.25520  0.0
    356    349    351    360   5     0.00000     0.00000     1.25520  0.0
    356    349    351    361   5     0.00000     0.00000     1.25520  0.0
    356    349    351    362   5     0.00000     0.00000     1.25520  0.0
    345    363    364    365   5    -8.00818    -1.52298     2.46438  0.0
    345    363    364    373   5     0.00000     0.00000     1.25520  0.0
    345    363    364    382   5     0.00000     0.00000     1.25520  0.0
    371    363    364    365   5     0.00000     0.00000    -0.94140  0.0
    371    363    364    373   5     0.00000     0.00000     1.25520  0.0
    371    363    364    382   5     0.00000     0.00000     1.25520  0.0
    372    363    364    365   5     0.00000     0.00000    -0.94140  0.0
    372    363    364    373   5     0.00000     0.00000     1.25520  0.0
    372    363    364    382   5     0.00000     0.00000     1.25520  0.0
    363    364    365    366   5     0.00000     2.52295     0.00000  0.0
    363    364    365    367   5    11.69428    -0.66526    -1.56900  0.0
    373    364    365    366   5     0.00000     0.00000     0.00000  0.0
    373    364    365    367   5     0.00000     0.00000     0.00000  0.0
    382    364    365    366   5     0.00000     0.00000     0.00000  0.0
    382    364    365    367   5     0.00000     0.00000     0.00000  0.0
    364    365    367    368   5    12.53945    12.88254     0.00000  0.0
    364    365    367    374   5     0.00000    20.50160     0.00000  0.0
    366    365    367    368   5     0.00000    25.47638     0.00000  0.0
    366    365    367    374   5     0.00000    20.50160     0.00000  0.0
    365    367    368    369   5    -3.67774    -0.67781     0.28033  0.0
    365    367    368    370   5    -3.67774    -0.67781     0.28033  0.0
    365    367    368    375   5     0.00000     0.00000     0.00000  0.0
    374    367    368    369   5     0.00000     0.00000     0.00000  0.0
    374    367    368    370   5     0.00000     0.00000     0.00000  0.0
    374    367    368    375   5     0.00000     0.00000     0.00000  0.0
    367    368    369    376   5     0.00000     0.00000     1.25520  0.0
    367    368    369    377   5     0.00000     0.00000     1.25520  0.0
    367    368    369    378   5     0.00000     0.00000     1.25520  0.0
    370    368    369    376   5     0.00000     0.00000     1.25520  0.0
    370    368    369    377   5     0.00000     0.00000     1.25520  0.0
    370    368    369    378   5     0.00000     0.00000     1.25520  0.0
    375    368    369    376   5     0.00000     0.00000     1.25520  0.0
    375    368    369    377   5     0.00000     0.00000     1.25520  0.0
    375    368    369    378   5     0.00000     0.00000     1.25520  0.0
    367    368    370    379   5     0.00000     0.00000     1.25520  0.0
    367    368    370    380   5     0.00000     0.00000     1.25520  0.0
    367    368    370    381   5     0.00000     0.00000     1.25520  0.0
    369    368    370    379   5     0.00000     0.00000     1.25520  0.0
    369    368    370    380   5     0.00000     0.00000     1.25520  0.0
    369    368    370    381   5     0.00000     0.00000     1.25520  0.0
    375    368    370    379   5     0.00000     0.00000     1.25520  0.0
    375    368    370    380   5     0.00000     0.00000     1.25520  0.0
    375    368    370    381   5     0.00000     0.00000     1.25520  0.0

[ dihedrals ]
; Improper dihedrals
; h   i   j   k   funct
      2      4      3      5   5     0.00000    87.86400     0.00000  0.0
      3      6      5     12   5     0.00000     8.36800     0.00000  0.0
     22     24     23     25   5     0.00000    87.86400     0.00000  0.0
     23     26     25     32   5     0.00000     8.36800     0.00000  0.0
     41     43     42     44   5     0.00000    87.86400     0.00000  0.0
     42     45     44     51   5     0.00000     8.36800     0.00000  0.0
     60     62     61     63   5     0.00000    87.86400     0.00000  0.0
     61     64     63     70   5     0.00000     8.36800     0.00000  0.0
     79     81     80     82   5     0.00000    87.86400     0.00000  0.0
     80     83     82     89   5     0.00000     8.36800     0.00000  0.0
     98    100     99    101   5     0.00000    87.86400     0.00000  0.0
     99    102    101    108   5     0.00000     8.36800     0.00000  0.0
    117    119    118    120   5     0.00000    87.86400     0.00000  0.0
    118    121    120    127   5     0.00000     8.36800     0.00000  0.0
    136    138    137    139   5     0.00000    87.86400     0.00000  0.0
    137    140    139    146   5     0.00000     8.36800     0.00000  0.0
    155    157    156    158   5     0.00000    87.86400     0.00000  0.0
    156    159    158    165   5     0.00000     8.36800     0.00000  0.0
    174    176    175    177   5     0.00000    87.86400     0.00000  0.0
    175    178    177    184   5     0.00000     8.36800     0.00000  0.0
    193    195    194    196   5     0.00000    87.86400     0.00000  0.0
    194    197    196    203   5     0.00000     8.36800     0.00000  0.0
    212    214    213    215   5     0.00000    87.86400     0.00000  0.0
    213    216    215    222   5     0.00000     8.36800     0.00000  0.0
    231    233    232    234   5     0.00000    87.86400     0.00000  0.0
    232    235    234    241   5     0.00000     8.36800     0.00000  0.0
    250    252    251    253   5     0.00000    87.86400     0.00000  0.0
    251    254    253    260   5     0.00000     8.36800     0.00000  0.0
    269    271    270    272   5     0.00000    87.86400     0.00000  0.0
    270    273    272    279   5     0.00000     8.36800     0.00000  0.0
    288    290    289    291   5     0.00000    87.86400     0.00000  0.0
    289    292    291    298   5     0.00000     8.36800     0.00000  0.0
    307    309    308    310   5     0.00000    87.86400     0.00000  0.0
    308    311    310    317   5     0.00000     8.36800     0.00000  0.0
    326    328    327    329   5     0.00000    87.86400     0.00000  0.0
    327    330    329    336   5     0.00000     8.36800     0.00000  0.0
    345    347    346    348   5     0.00000    87.86400     0.00000  0.0
    346    349    348    355   5     0.00000     8.36800     0.00000  0.0
    364    366    365    367   5     0.00000    87.86400     0.00000  0.0
    365    368    367    374   5     0.00000     8.36800     0.00000  0.0
