Control file title. For DL_FIELD 4.10
49660
    1MOL     C1    1   6.961   0.300   2.204  0.1671 -0.4019 -0.1482
    1MOL     C2    2   6.817   0.246   2.176  0.9064  0.0813  0.4306
    1MOL     C3    3   6.708   0.326   2.250  0.2411 -0.6388  0.5423
    1MOL     O4    4   6.696   0.454   2.230  0.0039  0.2605  0.3985
    1MOL     N5    5   6.633   0.261   2.340  0.0453 -0.3015  0.3400
    1MOL     C6    6   6.540   0.319   2.431 -0.1107  0.1617  0.1093
    1MOL     C7    7   6.609   0.414   2.521  0.2783 -0.3382 -0.6032
    1MOL     C8    8   6.408   0.364   2.366  0.0993 -0.4962 -0.2590
    1MOL     H9    9   7.032   0.238   2.149  0.9667  0.0135  0.4165
    1MOL    H10   10   6.970   0.295   2.312  0.3076  0.5040 -0.1189
    1MOL    H11   11   6.806   0.147   2.222  2.4624 -1.0791 -1.6262
    1MOL    H12   12   6.650   0.162   2.352  0.4702 -0.5235 -1.8201
    1MOL    H13   13   6.511   0.233   2.491 -1.3929 -1.7196 -3.1017
    1MOL    H14   14   6.696   0.362   2.560  0.6695  1.5958  1.1868
    1MOL    H15   15   6.551   0.444   2.609 -0.0879  1.5282 -1.4412
    1MOL    H16   16   6.639   0.501   2.462 -0.8030  1.8502  1.9883
    1MOL    H17   17   6.422   0.426   2.277  0.2991 -0.4774 -0.2136
    1MOL    H18   18   6.349   0.276   2.340 -1.8820  0.8461 -0.4582
    1MOL    H19   19   6.346   0.424   2.432  1.2940  2.1535 -1.4688
    1MOL    H20   20   6.972   0.403   2.170 -3.3168 -0.5668 -2.0191
    1MOL    C21   21   6.778   0.251   2.024 -0.4670 -0.5653 -0.0182
    1MOL    C22   22   6.876   0.170   1.936  0.3406 -0.4726 -0.2680
    1MOL    C23   23   7.007   0.228   1.887  0.1220  0.2023 -0.2273
    1MOL    O24   24   7.019   0.332   1.840  0.3563  0.2619  0.0440
    1MOL    N25   25   7.109   0.139   1.898  0.4146  0.0821 -0.3293
    1MOL    C26   26   7.248   0.162   1.866  0.0372  0.5317  0.0593
    1MOL    C27   27   7.295   0.044   1.789 -0.2248 -0.2039 -0.0622
    1MOL    C28   28   7.327   0.187   1.993 -0.4386 -0.1809  0.2043
    1MOL    H29   29   6.777   0.353   1.987 -0.0122  0.0935  1.7501
    1MOL    H30   30   6.675   0.220   2.007 -0.6820  0.9050 -1.5027
    1MOL    H31   31   6.906   0.087   2.000  0.2393  0.4438  0.9940
    1MOL    H32   32   7.091   0.058   1.956  2.2292 -1.0946 -1.3754
    1MOL    H33   33   7.249   0.252   1.805 -2.0813  2.2155  2.4175
    1MOL    H34   34   7.244   0.020   1.696 -1.0394 -0.8102  0.5338
    1MOL    H35   35   7.290   7.792   1.852  1.6254 -1.4601 -1.6505
    1MOL    H36   36   7.402   0.042   1.769 -0.4451 -0.3362 -1.2449
    1MOL    H37   37   7.328   0.104   2.064  1.8800 -2.2504 -2.1347
    1MOL    H38   38   7.429   0.216   1.966 -0.4230  0.6875  1.1404
    1MOL    H39   39   7.290   0.282   2.033  1.5647  0.5603  0.3758
    1MOL    C40   40   6.812   0.106   1.814 -0.3362  0.2598  0.0805
    1MOL    C41   41   6.752   0.215   1.713 -0.7412  0.3703 -0.2718
    1MOL    C42   42   6.603   0.233   1.736  0.3881  0.2360  0.0860
    1MOL    O43   43   6.521   0.145   1.710 -0.0137  0.0924  0.0327
    1MOL    N44   44   6.562   0.345   1.790 -0.6134 -0.5227  0.1418
    1MOL    C45   45   6.434   0.377   1.849  0.5173  0.4340  0.5112
    1MOL    C46   46   6.432   0.354   1.996  0.3573 -0.2361  0.1507
    1MOL    C47   47   6.405   0.526   1.824  0.1519  0.0881 -0.4003
    1MOL    H48   48   6.732   0.034   1.834  0.8567 -1.0077  0.3313
    1MOL    H49   49   6.889   0.052   1.759 -0.8462 -0.8162  0.4096
    1MOL    H50   50   6.806   0.307   1.733 -0.5749  0.2693 -0.2521
    1MOL    H51   51   6.632   0.413   1.816 -2.2071  1.3297 -0.3458
    1MOL    H52   52   6.356   0.314   1.806  0.4721 -1.8229  3.6894
    1MOL    H53   53   6.332   0.368   2.037 -0.2527  0.7862 -1.6232
    1MOL    H54   54   6.505   0.412   2.052 -0.0832 -0.3392  0.8359
    1MOL    H55   55   6.446   0.248   2.016 -0.5079 -0.0050  2.1248
    1MOL    H56   56   6.309   0.552   1.868 -0.3827 -0.2548 -1.3767
    1MOL    H57   57   6.397   0.542   1.717 -0.1000 -2.8718 -0.8578
    1MOL    H58   58   6.488   0.581   1.869  1.9548 -2.3415 -0.6464
    1MOL    C59   59   6.784   0.179   1.567  0.4809 -0.2636 -0.3055
    1MOL    C60   60   6.719   0.276   1.470  1.2576 -0.2334  0.2765
    1MOL    C61   61   6.636   0.203   1.359 -0.2898  0.6599 -0.1047
    1MOL    O62   62   6.675   0.202   1.245  0.2198  0.0074  1.0436
    1MOL    N63   63   6.525   0.153   1.396 -0.2274 -0.1838 -0.3177
    1MOL    C64   64   6.447   0.056   1.331  0.2122  0.4615  0.1031
    1MOL    C65   65   6.483   7.752   1.397  0.2063 -0.3476  0.6767
    1MOL    C66   66   6.293   0.080   1.341  0.9234  0.1595  0.1336
    1MOL    H67   67   6.891   0.166   1.549  0.2254 -0.0775 -2.0390
    1MOL    H68   68   6.745   0.078   1.555 -1.7351  0.7033 -1.4469
    1MOL    H69   69   6.650   0.349   1.512  0.2414  1.0221 -3.3553
    1MOL    H70   70   6.488   0.182   1.485  0.0972  1.5062 -0.7140
    1MOL    H71   71   6.472   0.054   1.225  0.8030  0.2864  0.2410
    1MOL    H72   72   6.410   7.683   1.355 -1.1471  0.7544  1.1609
    1MOL    H73   73   6.584   7.717   1.374  0.1087  0.6683 -1.4063
    1MOL    H74   74   6.480   7.758   1.506  0.1136  2.3960  0.5599
    1MOL    H75   75   6.265   0.152   1.263  0.3629  0.9786  1.0827
    1MOL    H76   76   6.244   7.820   1.332 -0.0912  0.7233 -0.4814
    1MOL    H77   77   6.259   0.106   1.441 -0.6314  1.6085 -0.7478
    1MOL    C78   78   6.837   0.371   1.414  0.8745 -0.8555  0.0618
    1MOL    C79   79   6.888   0.481   1.505  0.1290 -0.2571 -0.3536
    1MOL    C80   80   7.028   0.521   1.471 -0.4711 -0.4401  0.7221
    1MOL    O81   81   7.053   0.590   1.372  0.3097  0.3168  0.1941
    1MOL    N82   82   7.123   0.479   1.556  0.1040  0.2297 -0.0399
    1MOL    C83   83   7.268   0.476   1.533  0.5901 -0.0360  0.9569
    1MOL    C84   84   7.329   0.545   1.651 -0.2674 -0.0744 -0.3672
    1MOL    C85   85   7.323   0.334   1.514 -1.2143 -0.0907  0.0777
    1MOL    H86   86   6.802   0.426   1.326  2.1365 -1.9290 -1.1151
    1MOL    H87   87   6.915   0.308   1.372  1.7452 -0.6169  1.2986
    1MOL    H88   88   6.893   0.441   1.606 -0.8734  0.7477  0.1016
    1MOL    H89   89   7.088   0.436   1.641  0.1582  0.5207  0.1294
    1MOL    H90   90   7.296   0.545   1.454 -0.1411  1.4874  2.0135
    1MOL    H91   91   7.298   0.480   1.733 -1.1238  3.5923  2.3930
    1MOL    H92   92   7.438   0.548   1.650 -0.2678  0.3065  0.4270
    1MOL    H93   93   7.274   0.637   1.674  0.2293  0.7195 -2.2261
    1MOL    H94   94   7.297   0.280   1.605 -0.6319  1.6305  1.2927
    1MOL    H95   95   7.431   0.332   1.497 -1.1997  0.9529 -0.0051
    1MOL    H96   96   7.273   0.284   1.431  0.0947 -1.3334  0.0213
    1MOL    C97   97   6.781   0.603   1.511 -0.1744  0.4417 -0.0534
    1MOL    C98   98   6.805   0.709   1.614  0.4682 -0.4260  0.3003
    1MOL    C99   99   6.839   0.650   1.753  0.7373  0.2626 -0.2492
    1MOL   O100  100   6.763   0.561   1.799  0.0388  0.5411  0.4148
    1MOL   N101  101   6.953   0.697   1.808 -0.4212 -0.0919 -0.6668
    1MOL   C102  102   7.004   0.650   1.935  0.3996 -0.5404 -0.3255
    1MOL   C103  103   7.155   0.672   1.940  0.1046 -0.3279  0.6934
    1MOL   C104  104   6.940   0.733   2.049 -0.3248  0.0981  0.2728
    1MOL   H105  105   6.681   0.560   1.515  0.5395 -1.4400 -1.5515
    1MOL   H106  106   6.776   0.662   1.419 -2.3654  2.3811  1.2526
    1MOL   H107  107   6.897   0.752   1.574 -0.0773 -0.3326 -0.8673
    1MOL   H108  108   7.010   0.766   1.762 -0.5314  1.6298  1.6646
    1MOL   H109  109   6.981   0.547   1.962 -3.0804 -0.1602 -1.5788
    1MOL   H110  110   7.205   0.592   1.886 -0.5642 -1.2252  1.3784
    1MOL   H111  111   7.197   0.767   1.910 -1.1900 -0.2814 -1.0593
    1MOL   H112  112   7.177   0.654   2.045 -1.6728  0.0521  1.1404
    1MOL   H113  113   6.843   0.764   2.009  0.1945  0.1837 -0.9332
    1MOL   H114  114   6.988   0.830   2.059  0.9017 -0.5071  0.3688
    1MOL   H115  115   6.929   0.684   2.146 -1.7482 -1.1120 -0.4799
    1MOL   C116  116   6.695   0.811   1.625  0.1320  0.3195 -0.0564
    1MOL   C117  117   6.690   0.930   1.525  0.0814 -0.1083  0.4076
    1MOL   C118  118   6.817   0.998   1.512  0.1383 -0.0078  0.5627
    1MOL   O119  119   6.852   1.074   1.600  0.8021  0.4862  1.1542
    1MOL   N120  120   6.899   0.973   1.406 -0.3985  0.1788 -0.3413
    1MOL   C121  121   7.032   1.030   1.382  0.7035 -0.1082  0.3190
    1MOL   C122  122   7.128   0.967   1.472  0.1913 -0.3065  0.0483
    1MOL   C123  123   7.064   1.002   1.235  0.1462 -0.3247 -0.1954
    1MOL   H124  124   6.696   0.858   1.724  1.4020 -0.2225  0.1999
    1MOL   H125  125   6.601   0.756   1.620  0.5023 -0.6803  2.8927
    1MOL   H126  126   6.678   0.879   1.430  1.7118 -2.0601  1.1886
    1MOL   H127  127   6.866   0.900   1.345 -1.8972 -1.1943  2.0160
    1MOL   H128  128   7.032   1.138   1.392  1.0055  0.1028 -1.7794
    1MOL   H129  129   7.232   0.969   1.439  0.5842  1.4095  1.2978
    1MOL   H130  130   7.101   0.861   1.472 -1.3972  0.0832 -1.4894
    1MOL   H131  131   7.111   1.008   1.572 -0.5560  1.8490 -0.9380
    1MOL   H132  132   7.005   1.067   1.171 -0.1644  0.3653  0.7725
    1MOL   H133  133   7.169   1.026   1.219 -0.0161  0.4258 -0.1540
    1MOL   H134  134   7.052   0.901   1.197  0.4583 -0.9758  1.3915
    1MOL   C135  135   6.561   1.018   1.548  0.0349  0.3132 -0.2330
    1MOL   C136  136   6.525   1.145   1.452 -0.3258 -0.1341  0.3417
    1MOL   C137  137   6.600   1.269   1.504 -0.7493  0.1611 -0.3297
    1MOL   O138  138   6.688   1.319   1.437 -0.1087 -0.3432  0.2620
    1MOL   N139  139   6.556   1.317   1.623 -0.3487  0.0297 -0.4799
    1MOL   C140  140   6.610   1.429   1.692 -0.8521 -0.3021  0.1140
    1MOL   C141  141   6.678   1.390   1.830  0.4195  0.6992 -0.8573
    1MOL   C142  142   6.500   1.539   1.711 -0.5000  0.2204  0.4522
    1MOL   H143  143   6.566   1.054   1.651 -0.1111 -0.7826  0.1718
    1MOL   H144  144   6.478   0.947   1.537 -1.4205  2.0191 -0.4744
    1MOL   H145  145   6.420   1.170   1.467 -0.5246 -0.2157 -0.8523
    1MOL   H146  146   6.484   1.272   1.678  0.4397 -0.5446  0.0873
    1MOL   H147  147   6.686   1.479   1.632  0.5905 -1.8414  0.6401
    1MOL   H148  148   6.737   1.298   1.817  2.6029  1.9026  0.2069
    1MOL   H149  149   6.745   1.474   1.846  0.0284  0.8326  0.0734
    1MOL   H150  150   6.600   1.369   1.902  1.1986  2.0636  0.3986
    1MOL   H151  151   6.499   1.573   1.815  1.0732 -0.0521  0.5665
    1MOL   H152  152   6.401   1.511   1.675 -0.2614  0.0908 -0.1037
    1MOL   H153  153   6.505   1.624   1.643 -0.4926 -0.4768 -0.4198
    1MOL   C154  154   6.541   1.115   1.306  0.5456  0.0349 -0.6948
    1MOL   C155  155   6.518   1.222   1.192 -0.0337 -0.6090  0.7247
    1MOL   C156  156   6.382   1.290   1.209  0.0646 -0.4662 -0.3896
    1MOL   O157  157   6.288   1.219   1.234 -0.3700  0.2116 -0.2182
    1MOL   N158  158   6.366   1.422   1.202 -0.1816 -0.7160 -0.3610
    1MOL   C159  159   6.262   1.513   1.264 -0.0214  0.7843  0.4867
    1MOL   C160  160   6.274   1.653   1.191  0.2684  0.3803 -0.3439
    1MOL   C161  161   6.298   1.520   1.415 -0.4851  0.4580  0.7373
    1MOL   H162  162   6.465   1.045   1.271 -0.8515  1.6396 -0.9391
    1MOL   H163  163   6.630   1.054   1.293  0.5214  0.3724 -2.7154
    1MOL   H164  164   6.599   1.294   1.206  0.1148 -0.4065 -1.0252
    1MOL   H165  165   6.453   1.464   1.175  0.2225 -1.3187  0.0069
    1MOL   H166  166   6.165   1.475   1.232 -1.3818  3.2446  1.4827
    1MOL   H167  167   6.254   1.641   1.085 -2.1800 -0.1123  0.1504
    1MOL   H168  168   6.212   1.732   1.232  2.3898  2.6908 -1.4192
    1MOL   H169  169   6.375   1.695   1.180  0.9804 -1.1764  0.0730
    1MOL   H170  170   6.210   1.562   1.463  0.2381  2.6111  0.2010
    1MOL   H171  171   6.388   1.576   1.437  0.9652 -1.7948  0.7474
    1MOL   H172  172   6.305   1.421   1.460  1.2487  0.0251 -0.4031
    1MOL   C173  173   6.522   1.162   1.045  0.6262 -0.6949  0.0863
    1MOL   C174  174   6.612   1.241   0.944  0.6948  0.7234  0.5472
    1MOL   C175  175   6.572   1.389   0.926 -0.8039 -0.3201  0.0876
    1MOL   O176  176   6.594   1.468   1.016  0.2520 -0.3388 -0.2114
    1MOL   N177  177   6.525   1.437   0.808  1.3663  0.2295 -0.0146
    1MOL   C178  178   6.479   1.578   0.798 -0.6597  0.4179  0.0944
    1MOL   C179  179   6.327   1.590   0.836 -0.0197 -0.0079 -0.2173
    1MOL   C180  180   6.497   1.624   0.649  0.3034 -0.1379  0.2065
    1MOL   H181  181   6.422   1.151   1.001  0.1321  0.3410  0.9276
    1MOL   H182  182   6.558   1.060   1.051  0.0482 -0.8728  0.6002
    1MOL   H183  183   6.598   1.190   0.849 -4.3116  1.8560  0.5589
    1MOL   H184  184   6.496   1.380   0.729  2.2717  1.3581 -1.1763
    1MOL   H185  185   6.546   1.642   0.855 -2.4683  3.2076 -0.8179
    1MOL   H186  186   6.297   1.508   0.902  0.0309 -0.1321 -0.3468
    1MOL   H187  187   6.264   1.618   0.752 -0.3633 -1.4972 -0.4710
    1MOL   H188  188   6.322   1.679   0.898  1.0444  0.4730 -0.8132
    1MOL   H189  189   6.456   1.722   0.625  2.7190  0.9088  0.2479
    1MOL   H190  190   6.434   1.552   0.596 -1.0882  0.7653  0.6011
    1MOL   H191  191   6.601   1.624   0.614 -0.3922 -0.0324 -1.9580
    1MOL   C192  192   6.762   1.226   0.997  0.4695 -0.5722  0.0428
    1MOL   C193  193   6.859   1.158   0.896 -0.1624 -0.2386  0.1063
    1MOL   C194  194   6.895   1.252   0.774 -0.1368 -0.2146  0.1088
    1MOL   O195  195   6.809   1.267   0.691 -0.3982  0.7516  0.7337
    1MOL   N196  196   7.018   1.307   0.773  0.3620 -0.3314  0.7380
    1MOL   C197  197   7.075   1.380   0.663  0.5240  0.3488  0.4572
    1MOL   C198  198   7.123   1.514   0.715  0.0580 -0.0092 -0.3027
    1MOL   C199  199   7.176   1.283   0.602  0.0775  0.0648 -0.7212
    1MOL   H200  200   6.758   1.167   1.088  0.8387  0.1309  0.5154
    1MOL   H201  201   6.810   1.320   1.027 -0.9510  0.3880 -0.6471
    1MOL   H202  202   6.953   1.158   0.951 -0.0301  1.3121 -0.0881
    1MOL   H203  203   7.066   1.315   0.862  3.3595 -1.0783 -0.7563
    1MOL   H204  204   6.999   1.390   0.585  0.4901 -1.1624  0.2787
    1MOL   H205  205   7.049   1.559   0.781 -0.8482 -0.8998 -0.6897
    1MOL   H206  206   7.142   1.577   0.628  2.3603  1.2952  1.0927
    1MOL   H207  207   7.217   1.507   0.770  0.2839 -1.2980 -0.8248
    1MOL   H208  208   7.271   1.275   0.654  0.0644 -1.6396 -0.9399
    1MOL   H209  209   7.182   1.303   0.495  0.8338  1.8828 -0.3610
    1MOL   H210  210   7.143   1.180   0.613  0.3191  0.3039  2.8579
    1MOL   C211  211   6.816   1.017   0.851 -0.5459  0.8225 -0.1906
    1MOL   C212  212   6.923   0.938   0.767  0.4090  1.0421  0.3451
    1MOL   C213  213   7.051   0.916   0.843 -0.2569  0.5332 -0.3478
    1MOL   O214  214   7.051   0.843   0.939 -0.0583  0.0529 -0.3296
    1MOL   N215  215   7.163   0.979   0.807 -0.5320  0.2424  0.4937
    1MOL   C216  216   7.289   0.970   0.874  0.6391 -0.2986 -0.1446
    1MOL   C217  217   7.371   1.100   0.872  0.0997 -0.1058  0.7994
    1MOL   C218  218   7.362   0.853   0.812 -0.1763  0.0310  0.0003
    1MOL   H219  219   6.732   1.036   0.784 -0.5748  1.2575 -0.0377
    1MOL   H220  220   6.774   0.949   0.925  1.5510 -1.8410 -1.3826
    1MOL   H221  221   6.953   0.990   0.675  0.3188 -0.7050 -0.6890
    1MOL   H222  222   7.167   1.028   0.719 -1.1167  0.0852  0.3812
    1MOL   H223  223   7.275   0.944   0.979 -0.4782  1.6770  0.2355
    1MOL   H224  224   7.327   1.180   0.932 -2.0363  0.6237 -1.6435
    1MOL   H225  225   7.478   1.097   0.891  0.5409  1.9392 -1.1282
    1MOL   H226  226   7.380   1.136   0.769 -2.1903 -0.1336  0.5562
    1MOL   H227  227   7.457   0.827   0.860  0.0574 -1.6036 -1.3033
    1MOL   H228  228   7.384   0.868   0.706 -3.4329  0.1431 -0.6897
    1MOL   H229  229   7.299   0.764   0.819 -0.8607  0.3768 -1.6390
    1MOL   C230  230   6.885   0.807   0.695 -0.6345 -0.2340  0.0719
    1MOL   C231  231   6.872   0.677   0.768 -0.4655  0.4434 -0.0615
    1MOL   C232  232   6.766   0.683   0.874 -0.0501 -0.6033 -0.1981
    1MOL   O233  233   6.656   0.685   0.828 -0.0901 -0.0241 -0.4800
    1MOL   N234  234   6.803   0.678   1.003  0.7391 -0.3843 -0.5203
    1MOL   C235  235   6.721   0.658   1.121 -0.4577 -0.9321  0.1036
    1MOL   C236  236   6.644   0.784   1.153 -0.8311  0.1680 -1.1162
    1MOL   C237  237   6.630   0.539   1.128 -0.1008  0.8216 -0.2011
    1MOL   H238  238   6.967   0.792   0.625 -2.4707 -2.0927 -1.7472
    1MOL   H239  239   6.792   0.823   0.639 -0.1229 -0.3202 -0.8159
    1MOL   H240  240   6.967   0.647   0.811 -1.4532  0.5745  2.2765
    1MOL   H241  241   6.900   0.675   1.031  1.0031 -0.3175 -1.4131
    1MOL   H242  242   6.798   0.641   1.196  0.2837 -2.0453 -0.9018
    1MOL   H243  243   6.597   0.759   1.248 -2.7528  0.3414 -1.9980
    1MOL   H244  244   6.723   0.858   1.163  0.9632 -1.8832  0.3825
    1MOL   H245  245   6.566   0.811   1.082  1.1214  0.8110 -3.0628
    1MOL   H246  246   6.552   0.566   1.057  0.5002  1.0018 -0.8007
    1MOL   H247  247   6.584   0.540   1.226 -0.3454 -2.0080 -0.2474
    1MOL   H248  248   6.680   0.444   1.106 -1.5184 -0.0480  0.2962
    1MOL   C249  249   6.852   0.564   0.661 -0.0696 -0.2360 -0.4557
    1MOL   C250  250   6.859   0.417   0.720 -0.3153 -0.0985  0.2447
    1MOL   C251  251   6.988   0.387   0.796  0.2020 -0.8628 -0.4172
    1MOL   O252  252   7.090   0.355   0.725  0.1949 -0.1013 -0.2431
    1MOL   N253  253   6.987   0.382   0.929 -0.2948 -0.3396 -0.2286
    1MOL   C254  254   7.091   0.328   1.011  0.4032  0.0902  0.1755
    1MOL   C255  255   7.089   0.409   1.137  0.3578 -0.2173 -0.1704
    1MOL   C256  256   7.070   0.174   1.040  0.2032 -0.0451  0.8202
    1MOL   H257  257   6.941   0.583   0.601  1.0618 -0.6927  1.0574
    1MOL   H258  258   6.759   0.590   0.609 -2.2955 -1.0521  2.9289
    1MOL   H259  259   6.782   0.412   0.797  0.7073  1.9565  1.4408
    1MOL   H260  260   6.898   0.413   0.966  0.5263  4.2492 -1.7071
    1MOL   H261  261   7.188   0.340   0.961 -0.0660 -0.8463 -0.9828
    1MOL   H262  262   7.000   0.382   1.194  0.8022 -1.5017 -0.0665
    1MOL   H263  263   7.172   0.369   1.196 -0.1345 -2.0851 -0.7409
    1MOL   H264  264   7.101   0.515   1.113 -0.5896  0.0149  0.3574
    1MOL   H265  265   7.086   0.127   0.943  1.3278  1.0559  0.4576
    1MOL   H266  266   7.135   0.138   1.120  0.5871  0.2471  0.6424
    1MOL   H267  267   6.970   0.157   1.081 -0.2942  1.4235  0.2773
    1MOL   C268  268   6.811   0.305   0.630  0.2443 -0.2625  0.2835
    1MOL   C269  269   6.894   0.289   0.496  0.2201 -0.6828 -0.3209
    1MOL   C270  270   6.971   0.158   0.502  0.0993  0.2577 -0.7532
    1MOL   O271  271   6.922   0.043   0.491  0.2113 -0.3927  0.2910
    1MOL   N272  272   7.105   0.173   0.504 -0.2249 -0.0893  0.7296
    1MOL   C273  273   7.209   0.070   0.504 -0.6325  0.3621 -0.6569
    1MOL   C274  274   7.319   0.110   0.406  0.1525 -0.9895 -0.2624
    1MOL   C275  275   7.258   0.057   0.643  0.0696 -0.2285  0.1213
    1MOL   H276  276   6.811   0.210   0.683  2.7397 -0.0883  0.6737
    1MOL   H277  277   6.707   0.319   0.601 -0.0584  0.5573  1.6962
    1MOL   H278  278   6.960   0.375   0.486  0.4887 -0.7051  1.0313
    1MOL   H279  279   7.126   0.270   0.521  2.0546 -0.4117 -0.0163
    1MOL   H280  280   7.162   7.813   0.475 -1.5866  0.3407  0.9488
    1MOL   H281  281   7.289   0.077   0.306 -1.3673  0.1860 -0.2324
    1MOL   H282  282   7.340   0.215   0.386 -2.1226 -0.7677 -1.6934
    1MOL   H283  283   7.410   0.054   0.423  0.0931 -0.9328  0.2405
    1MOL   H284  284   7.274   0.161   0.671 -0.7144  0.1376 -0.7500
    1MOL   H285  285   7.176   0.020   0.705 -0.6595  0.5274 -0.3765
    1MOL   H286  286   7.349   7.836   0.655  1.6440  1.9717 -1.0842
    1MOL   C287  287   6.795   0.293   0.377  0.5075  0.2564 -0.6324
    1MOL   C288  288   6.776   0.435   0.311 -0.5326  0.5156 -0.2164
    1MOL   C289  289   6.639   0.450   0.243  0.6045 -0.3780  0.8181
    1MOL   O290  290   6.615   0.418   0.126  0.0821 -0.3133 -0.1515
    1MOL   N291  291   6.542   0.500   0.315 -0.0819  0.0704  0.1396
    1MOL   C292  292   6.395   0.508   0.290 -1.0580  0.1058  0.8774
    1MOL   C293  293   6.319   0.505   0.421 -0.4717 -0.2602 -0.0487
    1MOL   C294  294   6.353   0.617   0.189 -0.2143 -0.3276  0.4005
    1MOL   H295  295   6.833   0.228   0.298  1.0926 -1.6926  1.2018
    1MOL   H296  296   6.698   0.247   0.399  0.5059  1.6126  2.5046
    1MOL   H297  297   6.778   0.501   0.397  2.2256 -0.5105  0.5629
    1MOL   H298  298   6.579   0.524   0.406  2.6447  1.7871 -1.3457
    1MOL   H299  299   6.378   0.409   0.250  4.1630 -0.6985  0.2365
    1MOL   H300  300   6.311   0.608   0.458 -1.4092  0.6549 -2.6602
    1MOL   H301  301   6.220   0.476   0.386 -0.4366 -0.3833 -0.0406
    1MOL   H302  302   6.364   0.432   0.487  0.5395 -1.1315 -1.6570
    1MOL   H303  303   6.412   0.600   0.099 -1.4873  2.0509 -0.9202
    1MOL   H304  304   6.251   0.598   0.158 -0.2002 -0.8368  0.6596
    1MOL   H305  305   6.370   0.717   0.229  0.0119 -0.5531  0.8680
    1MOL   C306  306   6.897   0.475   0.229 -0.3158 -0.1410  0.5631
    1MOL   C307  307   6.914   0.633   0.210  0.7252 -0.1511  0.2395
    1MOL   C308  308   6.835   0.680   0.083 -0.1009  0.7214  0.8588
    1MOL   O309  309   6.852   0.630   7.808  0.0644  0.2046  0.4524
    1MOL   N310  310   6.752   0.781   0.093  0.6430 -0.1252  0.5344
    1MOL   C311  311   6.680   0.847   7.812  0.3035  0.1402  0.9427
    1MOL   C312  312   6.547   0.771   7.789 -1.0949 -0.0731  0.0846
    1MOL   C313  313   6.661   0.998   0.010 -0.6351 -0.6754  0.6652
    1MOL   H314  314   6.991   0.446   0.275  0.2475  0.4032 -0.2251
    1MOL   H315  315   6.890   0.418   0.136  4.3101 -0.0681  0.0703
    1MOL   H316  316   6.877   0.673   0.304  0.3962  1.3381 -0.5212
    1MOL   H317  317   6.727   0.815   0.185  2.1407 -1.0338  1.3124
    1MOL   H318  318   6.743   0.848   7.724  1.8449  0.9703  2.0381
    1MOL   H319  319   6.568   0.664   7.795  0.8526  0.2597 -0.3594
    1MOL   H320  320   6.505   0.777   7.689  0.4348  0.5687 -0.5385
    1MOL   H321  321   6.472   0.814   0.019  1.7995  1.1262  2.7236
    1MOL   H322  322   6.577   0.999   0.080 -0.7564  0.2435  0.5233
    1MOL   H323  323   6.607   1.055   7.770  1.8381  0.4659 -0.2809
    1MOL   H324  324   6.741   1.063   0.047  0.5345 -2.0118  0.5117
    1MOL   C325  325   7.068   0.674   0.209 -0.6800  0.3209  0.0668
    1MOL   C326  326   7.092   0.821   0.159  0.1508 -0.2749  0.5694
    1MOL   C327  327   7.039   0.932   0.251 -0.4987 -0.3879 -1.2040
    1MOL   O328  328   7.014   0.904   0.370 -0.2656 -0.3861 -0.7692
    1MOL   N329  329   7.031   1.058   0.201  1.2220  0.0697  0.1290
    1MOL   C330  330   6.988   1.178   0.275 -0.1207  0.2878  0.0024
    1MOL   C331  331   6.850   1.170   0.346  0.6807  0.5647  0.5288
    1MOL   C332  332   7.000   1.302   0.192  0.3018 -0.0827  0.1682
    1MOL   H333  333   7.119   0.605   0.141 -0.0861  0.8754 -0.0468
    1MOL   H334  334   7.110   0.650   0.307  0.1891 -0.3424 -0.4542
    1MOL   H335  335   7.036   0.836   0.066  0.4901  1.6320  0.6552
    1MOL   H336  336   7.053   1.072   0.104  1.6007  0.9850  0.3338
    1MOL   H337  337   7.063   1.205   0.349  1.7952  2.4133 -2.6174
    1MOL   H338  338   6.825   1.271   0.380 -0.6946  0.9589 -1.5706
    1MOL   H339  339   6.774   1.135   0.276  0.0943  0.0682  1.4167
    1MOL   H340  340   6.841   1.100   0.428 -3.4464 -0.1067 -0.3921
    1MOL   H341  341   7.107   1.317   0.174  0.0960  1.9735  0.4918
    1MOL   H342  342   6.977   1.397   0.241 -2.0131 -1.6202  2.1597
    1MOL   H343  343   6.943   1.302   0.099 -0.3106  1.4284  0.5264
    1MOL   C344  344   7.241   0.850   0.126  0.1634 -0.1408  0.0205
    1MOL   C345  345   7.348   0.862   0.238 -0.5834 -0.0281 -0.4455
    1MOL   C346  346   7.403   0.722   0.275 -0.3012  0.4021  0.4520
    1MOL   O347  347   7.471   0.668   0.189  0.0144 -0.2839  0.5126
    1MOL   N348  348   7.379   0.676   0.398 -0.2643 -0.2501 -0.4190
    1MOL   C349  349   7.410   0.543   0.446 -0.0191 -0.7795  0.1649
    1MOL   C350  350   7.542   0.537   0.519  0.3038 -0.6048  0.3157
    1MOL   C351  351   7.299   0.483   0.522  0.1685 -0.3592  0.4135
    1MOL   H352  352   7.245   0.941   0.067  2.3695 -0.0414  0.2902
    1MOL   H353  353   7.266   0.771   0.055 -0.0949  0.5287 -0.8232
    1MOL   H354  354   7.298   0.900   0.327  3.0268  1.5652  1.0141
    1MOL   H355  355   7.328   0.734   0.463 -1.1058  0.0512 -1.3398
    1MOL   H356  356   7.423   0.475   0.362 -0.6524 -1.4207  0.5897
    1MOL   H357  357   7.529   0.577   0.620  2.1119 -0.4357  0.4967
    1MOL   H358  358   7.577   0.435   0.537  0.1606 -0.5149  1.1144
    1MOL   H359  359   7.614   0.594   0.461 -0.4283 -0.8600 -0.8595
    1MOL   H360  360   7.276   0.541   0.611 -1.1819 -0.7658  0.3500
    1MOL   H361  361   7.210   0.495   0.459 -0.8735 -0.8640  1.7571
    1MOL   H362  362   7.321   0.379   0.543  1.3232 -0.6256 -1.8770
    1MOL   C363  363   7.447   0.965   0.193 -0.1428  0.6907 -0.0381
    1MOL   C364  364   7.588   0.973   0.256  0.1623  0.3530  0.1055
    1MOL   C365  365   7.582   1.016   0.406 -0.5651 -0.3161  0.3748
    1MOL   O366  366   7.477   1.048   0.462  0.1969 -0.2006  0.3263
    1MOL   N367  367   7.695   1.008   0.484 -0.0955 -0.4823 -0.2455
    1MOL   C368  368   7.702   1.038   0.632 -0.2594 -0.3480 -0.6583
    1MOL   C369  369   7.808   0.937   0.684  0.0398  0.0730 -0.2497
    1MOL   C370  370   7.734   1.187   0.649 -0.1494 -0.7123  0.2721
    1MOL   H371  371   7.406   1.065   0.204 -1.5552 -0.0954  2.2456
    1MOL   H372  372   7.466   0.950   0.087  0.9668  2.9777 -0.1847
    1MOL   H373  373   7.647   1.050   0.205  1.1754 -0.7410 -0.4016
    1MOL   H374  374   7.776   0.975   0.433 -0.3504 -0.7924 -0.4502
    1MOL   H375  375   7.613   1.006   0.687 -0.5444  0.5463 -0.5979
    1MOL   H376  376   0.044   0.913   0.606 -0.9764 -0.6988 -0.9758
    1MOL   H377  377   0.023   0.979   0.770 -1.5194  0.0122  0.7287
    1MOL   H378  378   7.765   0.841   0.714  1.2757 -0.3256  0.2395
    1MOL   H379  379   7.832   1.218   0.611  0.4730 -0.8927  1.7171
    1MOL   H380  380   7.660   1.244   0.593  1.2923  1.3327  0.3869
    1MOL   H381  381   7.721   1.211   0.754  1.8413 -0.2013  0.4156
    1MOL   H382  382   7.657   0.891   0.237  0.8403  1.1362 -0.8994
    2MOL     C1  383   4.742   2.792   0.932 -0.5718  0.7847  0.0925
    2MOL     C2  384   4.771   2.896   0.824 -0.2527 -0.2769 -0.3300
    2MOL     C3  385   4.794   2.832   0.682  0.0588 -0.3931 -0.9200
    2MOL     O4  386   4.734   2.729   0.664  0.2233 -0.8028  0.0337
    2MOL     N5  387   4.870   2.890   0.581  0.2193  0.1340 -0.0048
    2MOL     C6  388   4.894   2.822   0.456 -0.9652  0.1114  0.7118
    2MOL     C7  389   4.895   2.916   0.334 -0.7930 -0.3331  0.0975
    2MOL     C8  390   5.028   2.750   0.448  0.5418  0.2154 -0.1079
    2MOL     H9  391   4.721   2.832   1.031  0.0951 -0.4222  0.7361
    2MOL    H10  392   4.833   2.733   0.940 -1.0465 -0.0175 -0.3655
    2MOL    H11  393   4.857   2.949   0.865  1.0443 -2.3466 -0.2987
    2MOL    H12  394   4.912   2.977   0.612  0.5194 -0.1041  0.2601
    2MOL    H13  395   4.822   2.745   0.429  0.6374 -0.4456 -2.2327
    2MOL    H14  396   4.803   2.949   0.286  0.5652 -1.3669 -3.4016
    2MOL    H15  397   4.947   2.881   0.245  2.1374  2.5462  0.5853
    2MOL    H16  398   4.952   3.003   0.367 -1.0127 -0.4310  0.7402
    2MOL    H17  399   5.035   2.685   0.361  2.1152  0.2645 -0.0476
    2MOL    H18  400   5.106   2.824   0.428 -1.0310  1.6348 -1.1307
    2MOL    H19  401   5.039   2.692   0.540  2.1797 -1.1648 -1.1331
    2MOL    H20  402   4.655   2.732   0.905  0.3526 -1.0038  0.9749
    2MOL    C21  403   4.646   2.988   0.807 -0.2230 -0.4369  0.5595
    2MOL    C22  404   4.665   3.135   0.776  0.3571  0.2694 -0.0431
    2MOL    C23  405   4.714   3.211   0.908 -0.4040  0.1893  0.5390
    2MOL    O24  406   4.625   3.236   0.992  0.0683  0.3855  0.2975
    2MOL    N25  407   4.846   3.233   0.915 -0.2214  0.2167 -0.3230
    2MOL    C26  408   4.909   3.304   1.026  0.2763  0.2370 -0.0991
    2MOL    C27  409   5.030   3.378   0.974 -0.7050 -0.8769  0.4525
    2MOL    C28  410   4.951   3.198   1.127 -0.1611  0.0501 -0.5089
    2MOL    H29  411   4.598   2.988   0.905  0.3832  2.9849  0.9429
    2MOL    H30  412   4.569   2.943   0.744 -1.9058  2.8273  0.1476
    2MOL    H31  413   4.746   3.141   0.704  0.2534 -0.4542 -0.2262
    2MOL    H32  414   4.892   3.204   0.830  1.0084 -0.8145  0.6952
    2MOL    H33  415   4.838   3.373   1.069  0.4354  1.1513 -1.2961
    2MOL    H34  416   5.099   3.417   1.049 -0.1612  1.2243 -1.0673
    2MOL    H35  417   4.989   3.459   0.914  0.7907 -0.8073 -0.5160
    2MOL    H36  418   5.084   3.300   0.920 -0.4641 -0.5418  0.2061
    2MOL    H37  419   4.874   3.123   1.146  0.2168 -0.8895 -2.5144
    2MOL    H38  420   5.032   3.138   1.086  1.1873  2.3166 -1.2411
    2MOL    H39  421   4.983   3.244   1.221 -0.6873 -0.7651  0.0832
    2MOL    C40  422   4.543   3.195   0.714  0.5582  0.2743  0.6379
    2MOL    C41  423   4.511   3.140   0.567 -0.2360  0.4051  0.1640
    2MOL    C42  424   4.486   3.262   0.474 -0.3663  0.6388 -0.1057
    2MOL    O43  425   4.394   3.342   0.501 -0.2002  0.1833 -0.0478
    2MOL    N44  426   4.569   3.280   0.369 -0.4615  0.7973  0.3163
    2MOL    C45  427   4.558   3.379   0.266  0.2465  0.5954  1.1690
    2MOL    C46  428   4.694   3.412   0.199 -0.5139  0.3653  0.3907
    2MOL    C47  429   4.444   3.356   0.164  0.7263  0.1361  0.4209
    2MOL    H48  430   4.551   3.304   0.716 -0.5225  0.3503  1.7161
    2MOL    H49  431   4.455   3.193   0.779  0.0790 -2.7756 -0.0215
    2MOL    H50  432   4.597   3.092   0.519 -0.9744 -0.6364 -0.1399
    2MOL    H51  433   4.646   3.215   0.369 -0.5950  0.6399 -0.2544
    2MOL    H52  434   4.523   3.467   0.320 -1.8152  0.9492 -0.6849
    2MOL    H53  435   4.673   3.491   0.128 -1.1446 -0.1898 -0.0433
    2MOL    H54  436   4.732   3.332   0.135 -3.2709 -0.5912 -0.0900
    2MOL    H55  437   4.766   3.450   0.272 -0.2306 -0.1489  0.3867
    2MOL    H56  438   4.436   3.441   0.096 -1.3649  0.1516  0.6372
    2MOL    H57  439   4.346   3.358   0.213  1.1789  1.6241  1.2927
    2MOL    H58  440   4.448   3.264   0.105  0.7332  1.2241 -1.3369
    2MOL    C59  441   4.396   3.031   0.566 -1.0127 -0.0661 -0.2376
    2MOL    C60  442   4.366   2.963   0.429 -0.2717 -0.3974 -0.0463
    2MOL    C61  443   4.219   2.930   0.418 -0.3997 -0.0079 -1.0869
    2MOL    O62  444   4.177   2.822   0.461 -0.4290  0.0689  0.2606
    2MOL    N63  445   4.131   3.012   0.363 -0.2968 -0.9312 -0.4565
    2MOL    C64  446   3.989   3.000   0.334  0.1080 -0.6015 -0.3794
    2MOL    C65  447   3.906   3.131   0.344 -0.0742  0.1231 -0.3798
    2MOL    C66  448   3.973   2.929   0.197  0.0034 -0.8433 -0.0254
    2MOL    H67  449   4.419   2.946   0.630 -0.9559  0.4118  0.3767
    2MOL    H68  450   4.311   3.083   0.610 -0.4359  2.6227 -2.1481
    2MOL    H69  451   4.384   3.032   0.346 -1.7152  2.0451  1.5826
    2MOL    H70  452   4.178   3.097   0.337 -1.4446 -0.0870  0.1701
    2MOL    H71  453   3.946   2.931   0.407  0.4222  0.4011  0.7687
    2MOL    H72  454   3.802   3.098   0.342 -0.0946  0.2560 -2.1490
    2MOL    H73  455   3.917   3.185   0.438 -2.9059  1.2742 -0.6567
    2MOL    H74  456   3.924   3.193   0.256 -0.4158 -1.6122 -1.6958
    2MOL    H75  457   3.869   2.916   0.168  0.0456  1.6280 -1.3789
    2MOL    H76  458   4.016   2.987   0.116 -0.2831  2.6749  2.2187
    2MOL    H77  459   4.021   2.831   0.196  0.0925 -0.8034  0.1625
    2MOL    C78  460   4.464   2.841   0.400 -0.1218  0.0501 -0.4699
    2MOL    C79  461   4.460   2.791   0.250 -0.4479 -0.7691 -0.5498
    2MOL    C80  462   4.477   2.890   0.140  0.4034 -0.7893 -0.0730
    2MOL    O81  463   4.569   2.976   0.141 -0.3589 -0.1057  0.6323
    2MOL    N82  464   4.382   2.885   0.049 -0.2150 -0.2404  0.2789
    2MOL    C83  465   4.374   2.976   7.774  0.1032  0.2492 -0.2425
    2MOL    C84  466   4.482   2.945   7.667 -0.4190  0.8033  0.5515
    2MOL    C85  467   4.242   2.960   7.707 -0.2343  0.4314  0.3035
    2MOL    H86  468   4.432   2.761   0.466 -2.0537  0.3408 -1.0337
    2MOL    H87  469   4.564   2.873   0.432 -1.5964  2.9899  1.4074
    2MOL    H88  470   4.360   2.748   0.241  0.2334 -2.8022  1.1873
    2MOL    H89  471   4.321   2.805   0.052  0.5711 -0.8427  0.6584
    2MOL    H90  472   4.386   3.075   7.817 -0.1390 -0.0630  0.5492
    2MOL    H91  473   4.463   2.982   7.566 -2.6294 -1.5508  0.0409
    2MOL    H92  474   4.582   2.980   7.692 -0.0860  0.0949  0.2297
    2MOL    H93  475   4.499   2.838   7.659 -0.4779  0.8341 -0.0247
    2MOL    H94  476   4.233   3.034   7.627 -1.8461  1.4221  1.3580
    2MOL    H95  477   4.151   2.975   7.765  0.1203  1.1136  0.6738
    2MOL    H96  478   4.240   2.857   7.671  2.0026  0.2957  0.5558
    2MOL    C97  479   4.563   2.677   0.233 -0.1238 -0.2290  0.4184
    2MOL    C98  480   4.526   2.545   0.307 -0.3588 -0.2891 -0.3148
    2MOL    C99  481   4.639   2.439   0.283  0.3706 -0.3194  0.1369
    2MOL   O100  482   4.734   2.458   0.205  0.3906 -0.1144  0.2211
    2MOL   N101  483   4.621   2.329   0.359 -0.2497 -0.4246  0.8039
    2MOL   C102  484   4.715   2.212   0.354  0.2768  0.6693 -0.2249
    2MOL   C103  485   4.817   2.228   0.461  0.1668  0.4148 -0.2623
    2MOL   C104  486   4.644   2.079   0.364  0.4105  0.5444  0.2168
    2MOL   H105  487   4.662   2.696   0.273 -1.0822  1.1473  2.2284
    2MOL   H106  488   4.576   2.653   0.128  1.1802  0.6468  0.3746
    2MOL   H107  489   4.544   2.570   0.412 -0.6373 -1.8587  0.1156
    2MOL   H108  490   4.542   2.311   0.419  0.3145 -4.0699  0.5736
    2MOL   H109  491   4.766   2.208   0.258  0.5236 -3.7707 -0.0091
    2MOL   H110  492   4.878   2.316   0.441 -1.1046  0.9694 -1.8334
    2MOL   H111  493   4.783   2.237   0.564  0.1736  0.4065 -0.2594
    2MOL   H112  494   4.891   2.148   0.455  2.0025  2.0247  0.1794
    2MOL   H113  495   4.715   1.996   0.370 -0.3954 -0.0236  1.9413
    2MOL   H114  496   4.576   2.051   0.283 -0.2537  2.9154 -0.0665
    2MOL   H115  497   4.587   2.075   0.456 -1.8576 -2.9890 -1.2219
    2MOL   C116  498   4.386   2.485   0.283  0.9868  0.0489  0.2396
    2MOL   C117  499   4.274   2.483   0.397 -0.4233 -0.6366  0.2308
    2MOL   C118  500   4.334   2.421   0.522  0.7095  0.2717  0.4953
    2MOL   O119  501   4.395   2.313   0.514 -0.2215  0.1447 -0.7575
    2MOL   N120  502   4.325   2.496   0.628 -0.0408  0.3906 -0.0647
    2MOL   C121  503   4.383   2.466   0.760  0.3935 -0.9091 -0.3916
    2MOL   C122  504   4.368   2.593   0.845  0.0892  0.1648 -0.3570
    2MOL   C123  505   4.314   2.347   0.820  0.2050  0.1924 -0.5009
    2MOL   H124  506   4.382   2.382   0.248 -3.3110 -0.8183  2.8989
    2MOL   H125  507   4.346   2.534   0.195 -2.0586 -1.6667  0.6009
    2MOL   H126  508   4.251   2.586   0.422 -1.7789 -0.7957 -0.3442
    2MOL   H127  509   4.283   2.587   0.620 -0.3180  0.1429 -1.5285
    2MOL   H128  510   4.490   2.451   0.745  1.2390  1.9911  2.1077
    2MOL   H129  511   4.435   2.587   0.932  0.6274  1.9668 -0.6199
    2MOL   H130  512   4.272   2.605   0.894  1.2154  0.2875  1.8995
    2MOL   H131  513   4.402   2.688   0.805  1.0060 -0.0945 -0.2243
    2MOL   H132  514   4.210   2.379   0.824 -0.2163 -1.0964 -0.9678
    2MOL   H133  515   4.328   2.255   0.763 -3.6978  0.2233 -1.6274
    2MOL   H134  516   4.356   2.319   0.916  0.9095 -1.6881 -1.3251
    2MOL   C135  517   4.141   2.424   0.346  0.1276 -0.1252 -0.4730
    2MOL   C136  518   4.014   2.471   0.409  0.3743 -0.3958 -0.0737
    2MOL   C137  519   3.901   2.429   0.317 -0.7645 -0.9916 -0.8852
    2MOL   O138  520   3.887   2.311   0.289 -0.1985 -0.6381  0.1827
    2MOL   N139  521   3.812   2.527   0.284  0.4388  0.0562 -0.0307
    2MOL   C140  522   3.691   2.505   0.200 -0.2307  0.1926 -0.3445
    2MOL   C141  523   3.666   2.618   0.088 -0.7313  0.0050 -0.7540
    2MOL   C142  524   3.560   2.489   0.281 -0.4378  0.2754  0.1858
    2MOL   H143  525   4.155   2.317   0.361  1.3063 -0.2671 -2.4368
    2MOL   H144  526   4.142   2.439   0.238  0.0892 -0.8110 -0.5690
    2MOL   H145  527   4.018   2.580   0.403 -1.2505 -0.1761  2.2522
    2MOL   H146  528   3.810   2.612   0.339  1.0308  1.8646 -2.7003
    2MOL   H147  529   3.701   2.412   0.143 -0.4819 -2.2148  3.3478
    2MOL   H148  530   3.572   2.596   0.037 -0.9341  1.1051 -0.8598
    2MOL   H149  531   3.664   2.716   0.135  0.9638 -1.6804  3.0472
    2MOL   H150  532   3.741   2.622   0.008 -0.3226  0.2915 -0.3599
    2MOL   H151  533   3.528   2.586   0.318 -1.4186 -0.0912  0.3041
    2MOL   H152  534   3.566   2.435   0.376 -0.9288 -0.3306 -0.1252
    2MOL   H153  535   3.473   2.454   0.226 -0.7089 -0.6364  1.1825
    2MOL   C154  536   3.967   2.429   0.554  0.2939 -0.1364  1.1626
    2MOL   C155  537   3.848   2.505   0.610 -0.0682  0.2524 -0.0560
    2MOL   C156  538   3.873   2.648   0.641 -0.1008  0.4214 -0.7147
    2MOL   O157  539   3.841   2.738   0.562  0.3024 -0.7246 -0.2063
    2MOL   N158  540   3.933   2.670   0.758  0.2451 -0.4046 -0.2685
    2MOL   C159  541   3.946   2.794   0.831 -0.7532  0.0432  0.4072
    2MOL   C160  542   4.067   2.883   0.776  0.6870  0.1723  0.3749
    2MOL   C161  543   3.971   2.767   0.986 -0.5474  0.7519 -0.3919
    2MOL   H162  544   4.054   2.433   0.620  1.9698 -1.3252 -0.9333
    2MOL   H163  545   3.941   2.323   0.560 -1.1839  0.1528  0.0705
    2MOL   H164  546   3.769   2.505   0.536  1.0175 -1.3942 -1.2539
    2MOL   H165  547   3.955   2.590   0.816  1.3674  0.0681 -0.0124
    2MOL   H166  548   3.852   2.850   0.822 -0.9761 -0.2714  0.7647
    2MOL   H167  549   4.072   2.979   0.827 -0.1332  0.6320 -0.4046
    2MOL   H168  550   4.163   2.832   0.768  0.8443  0.4315  0.6161
    2MOL   H169  551   4.028   2.910   0.678  2.1155  0.9622  0.0054
    2MOL   H170  552   4.045   2.689   1.005  0.8292  2.1749  0.1639
    2MOL   H171  553   3.888   2.724   1.041 -0.7530 -1.8677 -2.6389
    2MOL   H172  554   4.009   2.851   1.043 -0.5233 -0.3831  1.3054
    2MOL   C173  555   3.791   2.411   0.728 -0.1191  0.0192 -0.2120
    2MOL   C174  556   3.669   2.474   0.794  0.1578 -0.8593 -0.9143
    2MOL   C175  557   3.542   2.476   0.707 -0.3303 -0.3419  0.3000
    2MOL   O176  558   3.516   2.378   0.640  1.0431 -0.3012 -0.6715
    2MOL   N177  559   3.460   2.576   0.728 -0.5560  0.9895  0.4440
    2MOL   C178  560   3.330   2.603   0.667 -0.1073  0.0014 -0.1626
    2MOL   C179  561   3.350   2.704   0.550 -0.4841  0.3308  0.0517
    2MOL   C180  562   3.228   2.665   0.757  0.2090  0.0141 -0.3536
    2MOL   H181  563   3.871   2.380   0.795 -2.0449  0.9726  2.6075
    2MOL   H182  564   3.753   2.319   0.683 -1.1633 -0.1543  0.9894
    2MOL   H183  565   3.695   2.570   0.840 -0.7158 -0.4911 -1.1695
    2MOL   H184  566   3.504   2.656   0.772  1.0120  1.2271 -1.4634
    2MOL   H185  567   3.286   2.512   0.627  1.3011 -1.1034  0.7792
    2MOL   H186  568   3.262   2.715   0.486  0.8810  0.4082 -1.8582
    2MOL   H187  569   3.435   2.671   0.491 -0.3847  0.4283  0.1399
    2MOL   H188  570   3.362   2.808   0.581  1.6599 -0.5246  2.2854
    2MOL   H189  571   3.125   2.658   0.721  0.0696 -2.4216  0.3868
    2MOL   H190  572   3.258   2.766   0.787 -1.9403  0.4787  0.2962
    2MOL   H191  573   3.232   2.608   0.851  0.2679  0.0448 -0.3372
    2MOL   C192  574   3.650   2.395   0.926  0.0595 -0.2664 -0.3048
    2MOL   C193  575   3.543   2.442   1.033  0.2365  0.0534  0.2193
    2MOL   C194  576   3.570   2.594   1.074  1.0884 -0.0941 -0.1726
    2MOL   O195  577   3.673   2.620   1.125  0.5800 -0.5566  0.5972
    2MOL   N196  578   3.469   2.683   1.063 -0.4356 -0.0904  0.1512
    2MOL   C197  579   3.482   2.823   1.073 -0.0604  0.1128  0.3662
    2MOL   C198  580   3.507   2.880   0.936 -0.6222  0.6103  0.5150
    2MOL   C199  581   3.352   2.874   1.131 -0.6442 -0.7361  0.2683
    2MOL   H200  582   3.743   2.398   0.983 -0.3642 -0.0383  0.3802
    2MOL   H201  583   3.634   2.289   0.904  0.1078 -0.4191  0.3829
    2MOL   H202  584   3.446   2.437   0.985  0.3172  2.0065 -0.1646
    2MOL   H203  585   3.375   2.646   1.056 -0.6820  0.5757 -0.0826
    2MOL   H204  586   3.561   2.858   1.140  0.5829  0.4992 -0.6004
    2MOL   H205  587   3.414   2.895   0.883  0.3201  0.0109 -1.3294
    2MOL   H206  588   3.567   2.818   0.869 -1.8212  0.1977 -0.1852
    2MOL   H207  589   3.553   2.979   0.933  0.9482 -0.0478  1.4461
    2MOL   H208  590   3.319   2.818   1.218 -1.5466 -2.9256 -1.4417
    2MOL   H209  591   3.267   2.853   1.066 -0.5731 -2.8202  0.8093
    2MOL   H210  592   3.351   2.980   1.157  0.4658 -0.4559 -0.7833
    2MOL   C211  593   3.550   2.345   1.159  0.0138  0.2956  0.3914
    2MOL   C212  594   3.449   2.361   1.278 -0.3021  0.7285 -0.0753
    2MOL   C213  595   3.299   2.338   1.230 -0.1318 -0.1275 -0.3405
    2MOL   O214  596   3.271   2.250   1.149 -0.4124  0.2988  0.3020
    2MOL   N215  597   3.220   2.435   1.271  0.7563  0.1033  0.0794
    2MOL   C216  598   3.081   2.454   1.221  0.6342 -0.2496  0.2263
    2MOL   C217  599   3.046   2.601   1.228  0.8933 -0.6864 -0.1278
    2MOL   C218  600   2.981   2.362   1.309  0.1395  0.1392  0.0948
    2MOL   H219  601   3.653   2.349   1.196  0.3570 -1.3786 -0.3420
    2MOL   H220  602   3.552   2.242   1.123  0.0823 -0.1204  1.5563
    2MOL   H221  603   3.461   2.465   1.308  2.3855  0.5329 -0.3059
    2MOL   H222  604   3.256   2.508   1.332  1.9652 -0.7036  0.3571
    2MOL   H223  605   3.055   2.426   1.119 -0.8437 -4.0333  1.5555
    2MOL   H224  606   3.102   2.661   1.156  0.6821 -0.5782 -0.2044
    2MOL   H225  607   2.943   2.616   1.194  0.5663  0.5493  1.3327
    2MOL   H226  608   3.068   2.648   1.324  2.5169 -2.6323  0.4919
    2MOL   H227  609   2.987   2.386   1.415  1.6761 -0.7623  0.2220
    2MOL   H228  610   2.999   2.255   1.304 -0.3893  0.0018  1.0841
    2MOL   H229  611   2.881   2.384   1.270 -0.3223 -1.9597  0.0339
    2MOL   C230  612   3.475   2.273   1.405 -0.2938  0.2969  0.5738
    2MOL   C231  613   3.617   2.242   1.458 -0.0984  0.3092 -0.2263
    2MOL   C232  614   3.704   2.373   1.469 -0.1507 -0.4876  0.3590
    2MOL   O233  615   3.664   2.479   1.518 -0.6723 -0.0119 -0.1018
    2MOL   N234  616   3.818   2.361   1.399  0.2872 -0.4390 -0.1970
    2MOL   C235  617   3.909   2.472   1.367 -0.1221  0.0160  0.5049
    2MOL   C236  618   4.006   2.477   1.483 -0.2137  0.4776 -0.1872
    2MOL   C237  619   3.980   2.456   1.231 -0.8372  0.8209  0.2435
    2MOL   H238  620   3.417   2.182   1.390 -0.4800  0.6499 -0.8798
    2MOL   H239  621   3.432   2.326   1.490  1.8495  1.0890  1.2186
    2MOL   H240  622   3.659   2.171   1.387  0.7357  1.7094 -1.1511
    2MOL   H241  623   3.844   2.269   1.367  0.7885  0.0169 -1.1122
    2MOL   H242  624   3.849   2.562   1.379  0.9211  1.0578 -1.8608
    2MOL   H243  625   4.087   2.548   1.466 -0.0478  0.3168 -0.0684
    2MOL   H244  626   3.955   2.516   1.572  1.8476 -1.1719  1.7966
    2MOL   H245  627   4.051   2.380   1.501 -0.7643  0.5956  2.0650
    2MOL   H246  628   4.054   2.535   1.217  0.8374 -0.4930  1.4167
    2MOL   H247  629   3.911   2.471   1.149 -0.4948 -2.2082 -0.6425
    2MOL   H248  630   4.032   2.360   1.235 -2.2581  0.0820  1.2756
    2MOL   C249  631   3.612   2.181   1.602 -0.0062  0.5018 -0.6690
    2MOL   C250  632   3.752   2.143   1.655  0.2267 -0.1634  0.3789
    2MOL   C251  633   3.828   2.042   1.568  1.0515 -0.7908  0.9818
    2MOL   O252  634   3.780   1.939   1.523  0.0339  0.3690  0.6087
    2MOL   N253  635   3.956   2.077   1.538  0.2221 -0.3234  0.5318
    2MOL   C254  636   4.029   2.026   1.422  1.4968  1.0123 -0.0128
    2MOL   C255  637   4.151   2.117   1.390 -0.7743  0.4642 -0.5280
    2MOL   C256  638   4.085   1.889   1.454 -0.7691  0.4797  0.1308
    2MOL   H257  639   3.548   2.092   1.601  2.2016 -1.2870  2.8715
    2MOL   H258  640   3.558   2.253   1.663 -2.2141 -1.1095 -0.6291
    2MOL   H259  641   3.820   2.227   1.653 -0.5914  0.4807 -0.6376
    2MOL   H260  642   4.006   2.151   1.585  0.4984 -1.1897  1.6106
    2MOL   H261  643   3.973   2.017   1.329  0.7578  0.7111  0.4590
    2MOL   H262  644   4.112   2.216   1.363 -2.4604 -0.3025 -0.9790
    2MOL   H263  645   4.224   2.122   1.470 -0.2113  0.9669 -1.0621
    2MOL   H264  646   4.198   2.089   1.295  0.4000  1.6747 -0.3151
    2MOL   H265  647   4.145   1.886   1.545  2.0937  1.8292 -1.6764
    2MOL   H266  648   4.000   1.823   1.470  1.0345 -1.8366  0.2937
    2MOL   H267  649   4.158   1.857   1.380  0.0248  0.6966  0.8086
    2MOL   C268  650   3.742   2.076   1.793  0.5027 -0.0471  0.5020
    2MOL   C269  651   3.717   2.168   1.911 -0.7183  0.7192  0.2466
    2MOL   C270  652   3.672   2.085   2.025  0.1390  0.0309 -0.3727
    2MOL   O271  653   3.751   2.054   2.115  0.3976  0.2732  0.3875
    2MOL   N272  654   3.548   2.040   2.027  0.4841 -0.3066  0.2996
    2MOL   C273  655   3.491   1.956   2.135  0.4249 -0.2717 -0.4229
    2MOL   C274  656   3.376   2.039   2.207  0.2202 -0.4830  0.0719
    2MOL   C275  657   3.448   1.825   2.075  0.6038 -0.3870 -0.1381
    2MOL   H276  658   3.666   1.997   1.792 -1.7651  2.0714  0.6484
    2MOL   H277  659   3.831   2.017   1.817  0.6199 -0.6576 -1.3766
    2MOL   H278  660   3.629   2.227   1.887 -0.8100  0.0487 -1.1213
    2MOL   H279  661   3.483   2.081   1.962  0.9904 -0.4976 -0.3247
    2MOL   H280  662   3.570   1.945   2.209  0.5819 -1.8388 -0.8196
    2MOL   H281  663   3.311   1.973   2.264 -0.6691  1.4062  1.2853
    2MOL   H282  664   3.421   2.124   2.259 -2.0573  0.7434  0.0960
    2MOL   H283  665   3.309   2.099   2.147 -1.5230 -0.9283  1.5311
    2MOL   H284  666   3.531   1.785   2.017  1.7190 -1.0989  1.9253
    2MOL   H285  667   3.406   1.754   2.147  1.6622 -0.7538  0.1297
    2MOL   H286  668   3.365   1.854   2.010  0.8760  0.7585  0.0243
    2MOL   C287  669   3.845   2.255   1.948  0.3761 -0.0753 -0.0881
    2MOL   C288  670   3.801   2.394   2.009  0.2998  0.1140  0.4558
    2MOL   C289  671   3.756   2.390   2.162 -0.0199 -0.5865  0.0297
    2MOL   O290  672   3.661   2.457   2.203  0.2676  0.3560 -0.8243
    2MOL   N291  673   3.811   2.291   2.233 -0.0237  0.3440 -0.1916
    2MOL   C292  674   3.784   2.260   2.375  0.2731  0.5698 -0.4836
    2MOL   C293  675   3.819   2.119   2.418 -0.7772  0.2154  0.5193
    2MOL   C294  676   3.864   2.365   2.464  0.0796  0.8225  0.5092
    2MOL   H295  677   3.911   2.200   2.015 -0.3390  0.7398  1.3104
    2MOL   H296  678   3.908   2.285   1.864  1.2060  0.1116  0.5993
    2MOL   H297  679   3.893   2.452   2.009 -0.6818  1.7239  1.5735
    2MOL   H298  680   3.866   2.219   2.189 -1.1274 -0.2918 -0.5695
    2MOL   H299  681   3.679   2.272   2.402  0.2238  0.3139 -0.5555
    2MOL   H300  682   3.807   2.110   2.526 -0.9636 -0.1277  0.4714
    2MOL   H301  683   3.758   2.042   2.369  0.8365 -0.3560 -0.6111
    2MOL   H302  684   3.922   2.093   2.395 -1.0237  1.2478 -1.8887
    2MOL   H303  685   3.973   2.366   2.453  0.1065 -1.2290  0.3122
    2MOL   H304  686   3.814   2.460   2.443  0.3432  1.1624  1.4130
    2MOL   H305  687   3.856   2.346   2.571  2.0954  1.6041  0.8225
    2MOL   C306  688   3.699   2.476   1.929 -0.1167  0.2411  0.3246
    2MOL   C307  689   3.735   2.622   1.939  0.0702 -0.2399  0.9985
    2MOL   C308  690   3.613   2.716   1.927 -0.4732  0.0407 -0.4844
    2MOL   O309  691   3.583   2.776   1.825  0.0162 -0.3525 -0.0964
    2MOL   N310  692   3.542   2.731   2.046 -0.2170 -0.3291  0.1813
    2MOL   C311  693   3.431   2.829   2.071  0.3893  0.3679 -0.2508
    2MOL   C312  694   3.493   2.970   2.102  0.3800  0.4098 -0.2822
    2MOL   C313  695   3.321   2.839   1.970  0.1766 -0.3693  0.2091
    2MOL   H314  696   3.711   2.449   1.824 -3.2979 -1.4382  0.3314
    2MOL   H315  697   3.597   2.447   1.956 -0.9913  1.1634 -1.8383
    2MOL   H316  698   3.765   2.656   2.038  2.4052  3.8798 -0.9613
    2MOL   H317  699   3.565   2.672   2.125  2.5849 -1.7330 -1.6139
    2MOL   H318  700   3.386   2.789   2.161 -0.9643  0.1796 -0.9894
    2MOL   H319  701   3.418   3.035   2.146  0.2475 -0.2801  0.5314
    2MOL   H320  702   3.543   3.001   2.010  1.2095 -0.8467 -0.2711
    2MOL   H321  703   3.573   2.964   2.176 -2.1923  0.0132  2.5628
    2MOL   H322  704   3.285   2.757   1.909 -2.7531  0.9728  0.0493
    2MOL   H323  705   3.347   2.915   1.896  1.3177 -2.3603 -1.4521
    2MOL   H324  706   3.228   2.871   2.019  0.1821  1.4623 -0.9008
    2MOL   C325  707   3.848   2.660   1.836 -0.4417  0.6820 -0.7385
    2MOL   C326  708   3.905   2.800   1.846 -0.5724 -0.2429  0.0286
    2MOL   C327  709   3.993   2.820   1.974 -0.3572  0.0510  0.6908
    2MOL   O328  710   4.066   2.729   2.014  0.5499 -0.5986 -0.2725
    2MOL   N329  711   3.973   2.932   2.040 -0.2014 -0.1816  0.5614
    2MOL   C330  712   4.013   2.973   2.173 -0.5304  0.4695  0.4761
    2MOL   C331  713   3.908   2.915   2.266 -0.4306 -0.3471 -0.0218
    2MOL   C332  714   4.020   3.126   2.186 -0.3731  0.0526  0.6019
    2MOL   H333  715   3.818   2.637   1.733  0.0557 -1.9086 -0.3604
    2MOL   H334  716   3.931   2.593   1.858  0.8914  2.2971 -0.7868
    2MOL   H335  717   3.820   2.869   1.850 -0.6283 -0.4150  1.9769
    2MOL   H336  718   3.934   3.000   1.978  0.8151  1.0780  1.2829
    2MOL   H337  719   4.110   2.932   2.197 -0.4056  1.5334  1.8270
    2MOL   H338  720   3.809   2.945   2.231 -0.7231  0.4334  1.4179
    2MOL   H339  721   3.910   2.807   2.249  4.0320 -0.2281 -0.9165
    2MOL   H340  722   3.925   2.946   2.369  2.6271  0.6957 -0.7706
    2MOL   H341  723   4.056   3.161   2.283  1.0479  0.1374  0.0559
    2MOL   H342  724   3.927   3.180   2.171  0.5005  1.9148  1.7103
    2MOL   H343  725   4.087   3.159   2.107 -1.0328  0.4519  0.2100
    2MOL   C344  726   3.983   2.836   1.714 -0.3394  0.2826 -0.7132
    2MOL   C345  727   3.915   2.926   1.616  0.4175  0.2817  0.3110
    2MOL   C346  728   3.921   3.073   1.661  0.8096  1.0745 -0.2900
    2MOL   O347  729   4.022   3.138   1.653  0.2904 -0.2044 -0.1816
    2MOL   N348  730   3.806   3.116   1.714  0.4525  0.1684 -0.4360
    2MOL   C349  731   3.773   3.246   1.761  0.1172  0.6628  0.0812
    2MOL   C350  732   3.632   3.281   1.709  0.2203 -0.1364  0.6104
    2MOL   C351  733   3.797   3.257   1.908  0.1982 -0.5685  0.0715
    2MOL   H352  734   4.017   2.742   1.671  4.2547  0.7751  1.5018
    2MOL   H353  735   4.082   2.877   1.736 -1.4110  2.4667  0.2083
    2MOL   H354  736   3.811   2.893   1.615  0.9853 -1.7423 -3.2752
    2MOL   H355  737   3.734   3.046   1.719  1.3993 -1.0541 -3.0892
    2MOL   H356  738   3.837   3.321   1.714 -1.7900  3.4599  1.7959
    2MOL   H357  739   3.605   3.382   1.741 -1.1382 -0.7061  1.3267
    2MOL   H358  740   3.633   3.271   1.601  0.1726 -1.6824  0.7469
    2MOL   H359  741   3.562   3.200   1.728  0.1210 -0.9449 -2.8110
    2MOL   H360  742   3.790   3.362   1.937 -0.2791 -0.7823  0.7444
    2MOL   H361  743   3.727   3.197   1.966 -0.2063 -0.1728 -0.0032
    2MOL   H362  744   3.895   3.226   1.943  0.2146 -0.3710  0.2007
    2MOL   C363  745   3.960   2.908   1.465  0.9807 -0.0003  0.1195
    2MOL   C364  746   4.111   2.934   1.444 -0.3462  0.3458  1.0145
    2MOL   C365  747   4.163   2.887   1.308 -0.4314 -0.4574 -0.2698
    2MOL   O366  748   4.170   2.765   1.300 -0.3983  0.0749  0.3159
    2MOL   N367  749   4.221   2.965   1.216  0.3972 -0.8489 -0.0376
    2MOL   C368  750   4.296   2.911   1.105 -0.0440  0.5545  0.4807
    2MOL   C369  751   4.280   3.017   1.000 -0.2663  0.3283  0.9040
    2MOL   C370  752   4.441   2.903   1.144 -0.7746 -0.7172  0.4085
    2MOL   H371  753   3.903   2.976   1.403 -1.2867 -2.0349 -0.0951
    2MOL   H372  754   3.929   2.809   1.432  1.5324  0.2678 -1.2219
    2MOL   H373  755   4.179   2.897   1.520  2.0309  1.1183 -0.6458
    2MOL   H374  756   4.215   3.065   1.232  1.4838 -0.3937 -2.2029
    2MOL   H375  757   4.251   2.816   1.079  0.1467  0.0260  2.0186
    2MOL   H376  758   4.320   3.116   1.024 -0.9809  0.7556  0.3633
    2MOL   H377  759   4.306   2.991   0.897 -1.3238  2.8542 -0.0346
    2MOL   H378  760   4.174   3.037   0.989 -0.0872  0.0983 -1.7730
    2MOL   H379  761   4.476   2.833   1.067 -0.3517 -0.5225  0.4239
    2MOL   H380  762   4.507   2.988   1.131 -0.5732 -0.7731  1.0834
    2MOL   H381  763   4.459   2.849   1.237  0.3769  0.2230  0.7402
    2MOL   H382  764   4.127   3.042   1.443 -1.7664  0.5627 -0.8745
    3MOL     C1  765   5.510   1.938   5.977  0.2209  0.4671 -0.0051
    3MOL     C2  766   5.573   1.912   5.839  0.3448 -0.4563 -0.1645
    3MOL     C3  767   5.722   1.958   5.840 -0.0807  0.7807 -0.8173
    3MOL     O4  768   5.804   1.872   5.887 -0.1728 -0.6583  0.1273
    3MOL     N5  769   5.747   2.084   5.803  0.1049 -0.0674 -0.0366
    3MOL     C6  770   5.881   2.147   5.788 -0.6272 -0.2322 -0.4444
    3MOL     C7  771   5.958   2.089   5.661 -0.4464 -0.8928 -0.3227
    3MOL     C8  772   5.867   2.297   5.778  0.0059 -0.6253 -0.8045
    3MOL     H9  773   5.540   1.854   6.040  0.7414  0.4725 -0.2455
    3MOL    H10  774   5.402   1.943   5.982  0.3556  2.5160  1.3546
    3MOL    H11  775   5.512   1.964   5.765  1.0879 -2.9984 -2.6610
    3MOL    H12  776   5.672   2.130   5.753 -1.7903 -2.8036  0.1585
    3MOL    H13  777   5.942   2.130   5.876 -1.6627  2.8674  0.9320
    3MOL    H14  778   5.917   2.125   5.566 -1.4769 -1.6875 -0.1942
    3MOL    H15  779   5.961   1.980   5.654 -0.7601 -0.7533 -2.9793
    3MOL    H16  780   6.058   2.131   5.672 -0.9362  0.0912  0.3708
    3MOL    H17  781   5.813   2.336   5.691  1.6895  0.8638 -1.2180
    3MOL    H18  782   5.845   2.335   5.878 -0.2352 -1.5126 -0.5177
    3MOL    H19  783   5.969   2.336   5.771  0.2583 -1.0476  0.4903
    3MOL    H20  784   5.544   2.032   6.020  0.2403  0.7415 -0.6123
    3MOL    C21  785   5.562   1.766   5.804  0.2452 -0.0149  0.6378
    3MOL    C22  786   5.626   1.716   5.672  0.4232 -0.8689 -0.0170
    3MOL    C23  787   5.567   1.793   5.555 -0.9560  0.3586 -0.1422
    3MOL    O24  788   5.447   1.790   5.536  0.2759 -0.2021 -0.0647
    3MOL    N25  789   5.656   1.870   5.487 -0.4616 -0.6460 -0.1640
    3MOL    C26  790   5.618   1.952   5.374 -0.0874  0.0734  0.3777
    3MOL    C27  791   5.730   1.951   5.266  0.0031  0.5222 -0.8653
    3MOL    C28  792   5.587   2.092   5.422  0.0911  0.1782 -0.4218
    3MOL    H29  793   5.461   1.728   5.821 -0.0163 -0.0858 -1.0274
    3MOL    H30  794   5.599   1.705   5.886 -1.9547 -3.3328 -0.7111
    3MOL    H31  795   5.733   1.738   5.674  0.3519 -0.5046 -0.0680
    3MOL    H32  796   5.753   1.855   5.510 -0.6697  0.5406  1.6093
    3MOL    H33  797   5.530   1.908   5.326 -1.2444  0.3639  2.2153
    3MOL    H34  798   5.827   1.964   5.312 -0.7426  1.1215  0.5658
    3MOL    H35  799   5.718   2.033   5.195  0.4673  1.4468  0.1145
    3MOL    H36  800   5.742   1.859   5.209  2.6117 -1.6331  3.0104
    3MOL    H37  801   5.679   2.138   5.455  1.9195 -1.9975 -2.2686
    3MOL    H38  802   5.553   2.165   5.348  1.3902  0.0872 -1.1209
    3MOL    H39  803   5.515   2.103   5.503 -1.3020  1.0942 -1.7589
    3MOL    C40  804   5.607   1.559   5.662  0.4238  0.4175  0.4546
    3MOL    C41  805   5.703   1.499   5.556 -0.1694  0.4003 -0.7921
    3MOL    C42  806   5.659   1.359   5.497 -0.7366  0.3577  0.1970
    3MOL    O43  807   5.736   1.300   5.422  0.5395  0.2849 -0.5451
    3MOL    N44  808   5.544   1.307   5.544  0.7826  0.4566 -0.0717
    3MOL    C45  809   5.498   1.173   5.534 -0.6498  0.3520  0.2366
    3MOL    C46  810   5.577   1.085   5.633  0.1239 -0.4224 -0.2379
    3MOL    C47  811   5.343   1.165   5.560 -0.3023  0.5335 -0.1685
    3MOL    H48  812   5.505   1.532   5.635  0.4772  1.5653 -0.9277
    3MOL    H49  813   5.632   1.513   5.758  1.5869 -0.5040 -0.2702
    3MOL    H50  814   5.708   1.565   5.470  4.0943 -0.7493 -1.5475
    3MOL    H51  815   5.489   1.375   5.596  0.2194 -0.8582  1.1165
    3MOL    H52  816   5.509   1.141   5.430  1.8636  0.0137  0.5913
    3MOL    H53  817   5.587   0.980   5.607  1.5719  0.2699 -2.6978
    3MOL    H54  818   5.523   1.076   5.727  1.5680  0.4540  0.6882
    3MOL    H55  819   5.671   1.129   5.667  1.7337 -3.6805 -0.3184
    3MOL    H56  820   5.286   1.189   5.470 -0.6266 -1.2677 -0.4494
    3MOL    H57  821   5.308   1.230   5.640  0.3368  0.8734 -0.1626
    3MOL    H58  822   5.310   1.063   5.576 -3.1319  1.2146 -1.3754
    3MOL    C59  823   5.853   1.491   5.609  0.0768 -0.0567 -0.1459
    3MOL    C60  824   5.974   1.511   5.508  0.7535  0.8543  0.2980
    3MOL    C61  825   6.093   1.428   5.548 -0.1815 -0.3237 -0.5500
    3MOL    O62  826   6.158   1.463   5.646  0.2280 -0.3772  0.0339
    3MOL    N63  827   6.128   1.335   5.458 -0.2108  0.0176 -0.7114
    3MOL    C64  828   6.251   1.261   5.459  0.3308 -0.3053  0.3027
    3MOL    C65  829   6.221   1.109   5.464 -0.2287 -0.8087  0.1304
    3MOL    C66  830   6.351   1.303   5.345 -0.0014 -0.1205 -0.4474
    3MOL    H67  831   5.860   1.562   5.691  1.1142  0.5564 -0.7587
    3MOL    H68  832   5.861   1.391   5.652 -2.8171  0.1223  0.9300
    3MOL    H69  833   5.941   1.483   5.408 -1.9765  3.4201  0.4306
    3MOL    H70  834   6.065   1.307   5.385 -2.8000 -0.9460  1.7728
    3MOL    H71  835   6.306   1.275   5.552  2.1718 -0.9446 -0.6819
    3MOL    H72  836   6.133   1.092   5.528 -2.4568  1.9470 -2.0940
    3MOL    H73  837   6.191   1.075   5.365 -2.3835  2.1255 -0.2911
    3MOL    H74  838   6.291   1.037   5.506 -1.4402 -2.6079 -0.8538
    3MOL    H75  839   6.386   1.406   5.355  2.1673 -1.0121  1.6440
    3MOL    H76  840   6.441   1.242   5.341  0.2056  0.1076  0.5212
    3MOL    H77  841   6.310   1.288   5.245 -1.7274 -0.1222  0.2434
    3MOL    C78  842   6.001   1.661   5.490 -0.7908  0.4549 -0.1060
    3MOL    C79  843   6.117   1.703   5.394  0.2929  0.0813 -0.0072
    3MOL    C80  844   6.070   1.680   5.254 -0.0382 -0.2470  0.0222
    3MOL    O81  845   5.969   1.733   5.212 -0.1567  0.0632 -0.5118
    3MOL    N82  846   6.153   1.614   5.177  0.6645 -0.3880 -0.2215
    3MOL    C83  847   6.151   1.591   5.036  0.1988 -0.5411  0.6077
    3MOL    C84  848   6.227   1.700   4.958  0.0174  0.8857 -0.0247
    3MOL    C85  849   6.204   1.454   5.012 -0.5990 -0.1497 -0.5360
    3MOL    H86  850   6.014   1.721   5.580 -0.2401  1.6938 -0.9902
    3MOL    H87  851   5.909   1.697   5.444 -0.8276 -0.0574 -0.4350
    3MOL    H88  852   6.202   1.644   5.429 -0.7017 -0.4166  1.5976
    3MOL    H89  853   6.231   1.585   5.234 -0.9129 -0.1300  2.1106
    3MOL    H90  854   6.049   1.585   4.997  1.2974  0.3345 -2.6178
    3MOL    H91  855   6.237   1.679   4.851  1.6658 -1.8212  0.6366
    3MOL    H92  856   6.170   1.793   4.966 -2.8514 -0.7930 -0.5363
    3MOL    H93  857   6.326   1.722   4.998 -0.1842 -0.6391  1.3396
    3MOL    H94  858   6.155   1.379   5.073 -0.9285  1.0553  0.7142
    3MOL    H95  859   6.311   1.441   5.031 -0.4246 -0.2616 -1.5274
    3MOL    H96  860   6.191   1.418   4.910 -0.5553  3.7172 -2.0188
    3MOL    C97  861   6.153   1.847   5.420  0.2307 -0.3569  0.4181
    3MOL    C98  862   6.271   1.905   5.338  0.8067  0.4323  0.7203
    3MOL    C99  863   6.393   1.826   5.377 -0.9788 -1.0433  0.5111
    3MOL   O100  864   6.430   1.821   5.494  0.1813  0.1131  0.4812
    3MOL   N101  865   6.473   1.776   5.275  0.0432 -1.3220 -0.0237
    3MOL   C102  866   6.592   1.692   5.296 -0.5957  0.3963  0.5494
    3MOL   C103  867   6.597   1.584   5.183  0.5286 -0.4003 -1.1731
    3MOL   C104  868   6.720   1.778   5.314 -0.2083 -0.3875 -0.5707
    3MOL   H105  869   6.174   1.856   5.527 -0.6065  2.9140  0.3685
    3MOL   H106  870   6.069   1.913   5.398  0.3148  0.2442  1.7970
    3MOL   H107  871   6.265   1.889   5.230  1.5571  2.2037  0.3948
    3MOL   H108  872   6.443   1.797   5.181 -0.0858 -0.7219  0.1486
    3MOL   H109  873   6.586   1.648   5.395  3.1665 -0.7118  0.3471
    3MOL   H110  874   6.681   1.516   5.199 -0.9111 -1.7588  0.8353
    3MOL   H111  875   6.509   1.520   5.175  1.1230 -1.3525 -0.2574
    3MOL   H112  876   6.608   1.625   5.083 -1.5072 -1.7014 -1.9694
    3MOL   H113  877   6.717   1.817   5.416 -1.8203  0.0578 -0.7635
    3MOL   H114  878   6.719   1.864   5.247  0.2490 -0.8014 -1.1110
    3MOL   H115  879   6.814   1.725   5.299  0.8940  1.3337  0.1121
    3MOL   C116  880   6.298   2.054   5.362  0.2002 -0.3919 -0.2233
    3MOL   C117  881   6.200   2.164   5.306  0.0115 -0.2813  0.5826
    3MOL   C118  882   6.170   2.143   5.154  0.4428  0.1020  0.3421
    3MOL   O119  883   6.259   2.178   5.076  0.0349  0.4530  0.3411
    3MOL   N120  884   6.055   2.090   5.114  0.5774  0.2741 -0.7806
    3MOL   C121  885   6.013   2.078   4.972  0.0943  0.2363 -0.4113
    3MOL   C122  886   5.898   1.967   4.961  0.2460 -0.0913  0.3902
    3MOL   C123  887   5.949   2.212   4.933  0.7208 -0.3497  0.0431
    3MOL   H124  888   6.397   2.088   5.332 -0.0030 -1.6893 -2.4854
    3MOL   H125  889   6.292   2.058   5.470 -1.3521  1.2734 -0.3540
    3MOL   H126  890   6.100   2.151   5.348 -0.1093 -0.9073  0.0991
    3MOL   H127  891   5.990   2.061   5.185 -0.0110 -0.8131 -1.7356
    3MOL   H128  892   6.089   2.043   4.903 -1.0220  0.5817 -1.8346
    3MOL   H129  893   5.808   2.015   5.000 -0.7975 -0.2003 -1.8038
    3MOL   H130  894   5.922   1.873   5.011 -0.9113 -0.5310  0.1567
    3MOL   H131  895   5.860   1.940   4.862 -0.2550  1.6376  0.0861
    3MOL   H132  896   5.909   2.203   4.832  0.8303 -0.1216 -0.0203
    3MOL   H133  897   5.876   2.256   5.000  1.4634 -0.5247  0.9837
    3MOL   H134  898   6.024   2.289   4.916  0.4559  0.1749  1.1891
    3MOL   C135  899   6.254   2.302   5.349  0.7972  0.0779  0.3406
    3MOL   C136  900   6.192   2.435   5.306  0.9125 -0.8552 -0.2975
    3MOL   C137  901   6.053   2.446   5.364 -1.1672  0.6646 -1.0269
    3MOL   O138  902   6.035   2.444   5.485 -0.4913  0.1442 -0.3376
    3MOL   N139  903   5.950   2.458   5.276 -0.3830 -0.3876 -0.5154
    3MOL   C140  904   5.818   2.454   5.316 -0.0236  0.6620 -0.2953
    3MOL   C141  905   5.732   2.432   5.190  0.6682 -0.4765  0.6084
    3MOL   C142  906   5.770   2.576   5.387 -0.2140  0.6422  0.2607
    3MOL   H143  907   6.359   2.303   5.318  0.3140 -0.4461 -1.3440
    3MOL   H144  908   6.255   2.303   5.458  2.9631 -1.4080  0.3601
    3MOL   H145  909   6.184   2.428   5.197  1.8107  1.1383 -0.5221
    3MOL   H146  910   5.965   2.486   5.180  0.1685  0.9507 -0.0526
    3MOL   H147  911   5.802   2.366   5.379  0.9126  0.4251 -0.3841
    3MOL   H148  912   5.639   2.487   5.202  1.2071  0.4900  0.3983
    3MOL   H149  913   5.790   2.457   5.101  0.3796 -1.2678  0.1914
    3MOL   H150  914   5.699   2.328   5.186 -5.1908  1.2090  0.4052
    3MOL   H151  915   5.779   2.659   5.317  0.0216 -0.0225 -0.4928
    3MOL   H152  916   5.822   2.595   5.481 -0.2739  1.8267  0.0557
    3MOL   H153  917   5.663   2.572   5.408 -0.2054  1.1981  0.4223
    3MOL   C154  918   6.271   2.559   5.348 -0.0814  0.2804 -0.6786
    3MOL   C155  919   6.346   2.628   5.233 -0.0882  0.8787  0.4709
    3MOL   C156  920   6.478   2.552   5.204 -0.0917 -0.7404  0.3081
    3MOL   O157  921   6.570   2.553   5.289  0.8287 -0.3247  0.1054
    3MOL   N158  922   6.478   2.486   5.088  0.0685  0.1096 -0.1607
    3MOL   C159  923   6.583   2.384   5.045 -0.0901 -0.2176  0.6300
    3MOL   C160  924   6.551   2.359   4.894  0.6055 -0.6185 -0.4072
    3MOL   C161  925   6.575   2.259   5.131 -0.1928  0.7965 -0.3740
    3MOL   H162  926   6.338   2.528   5.429  0.7630 -0.3475 -1.6046
    3MOL   H163  927   6.210   2.639   5.389  0.1066  0.0383  0.0857
    3MOL   H164  928   6.290   2.628   5.139 -0.1943  2.5725  0.5210
    3MOL   H165  929   6.397   2.491   5.028 -0.7625  0.4461  0.9723
    3MOL   H166  930   6.680   2.430   5.062 -1.1871  2.0914  0.7276
    3MOL   H167  931   6.619   2.285   4.851 -0.1592 -0.9641 -1.0365
    3MOL   H168  932   6.450   2.317   4.894  0.1242  0.5008 -1.2566
    3MOL   H169  933   6.557   2.449   4.834 -2.7155  0.6191  0.9662
    3MOL   H170  934   6.489   2.197   5.106  1.8176 -1.4496 -1.9713
    3MOL   H171  935   6.583   2.284   5.237 -0.0927 -0.3246 -0.1060
    3MOL   H172  936   6.659   2.189   5.127  1.3415  2.5928 -0.1997
    3MOL   C173  937   6.380   2.780   5.260 -0.3976 -0.0110  0.1343
    3MOL   C174  938   6.246   2.873   5.261 -0.1592  0.1836 -0.0313
    3MOL   C175  939   6.213   2.936   5.391  0.4951 -1.1091 -0.0534
    3MOL   O176  940   6.295   3.016   5.442  0.4241  0.3026 -0.0749
    3MOL   N177  941   6.107   2.885   5.455 -0.2063  0.1483  0.2656
    3MOL   C178  942   6.049   2.913   5.587  0.5262 -0.6239 -0.0402
    3MOL   C179  943   5.944   2.798   5.611  1.1001 -0.0905  0.2446
    3MOL   C180  944   5.976   3.048   5.582 -0.1785  0.4545 -0.1405
    3MOL   H181  945   6.439   2.814   5.176  0.4431  0.7060  0.9972
    3MOL   H182  946   6.434   2.799   5.353 -1.7108  2.1946  0.4925
    3MOL   H183  947   6.166   2.802   5.242  0.6056 -0.4077 -1.1145
    3MOL   H184  948   6.055   2.815   5.404  1.9268 -1.4366  0.2084
    3MOL   H185  949   6.123   2.912   5.667 -0.2696  0.5562  0.7305
    3MOL   H186  950   5.934   2.786   5.719 -0.1370  1.3004  0.2939
    3MOL   H187  951   5.977   2.699   5.576  2.4648 -0.6329  2.9528
    3MOL   H188  952   5.848   2.822   5.565  0.8899  0.5956  1.0408
    3MOL   H189  953   6.040   3.136   5.569 -1.3022  1.3404  0.2087
    3MOL   H190  954   5.915   3.063   5.671  1.5825  0.6161  1.0804
    3MOL   H191  955   5.918   3.054   5.490 -0.0217 -1.3986 -0.3815
    3MOL   C192  956   6.241   2.972   5.140 -0.3006 -0.5958 -0.7751
    3MOL   C193  957   6.111   3.060   5.113  0.4686 -0.5562 -0.1882
    3MOL   C194  958   6.104   3.189   5.199 -0.0390 -0.0615  0.6286
    3MOL   O195  959   6.032   3.199   5.299  0.2177  0.4469  0.7154
    3MOL   N196  960   6.178   3.293   5.145  0.4115 -0.6114  0.0582
    3MOL   C197  961   6.155   3.431   5.191  0.6181 -0.6980 -0.0929
    3MOL   C198  962   6.210   3.462   5.326 -0.3641  0.0759 -0.2178
    3MOL   C199  963   6.208   3.540   5.091  0.1027  0.3748  0.0116
    3MOL   H200  964   6.266   2.914   5.052  0.1510 -0.2094 -0.9042
    3MOL   H201  965   6.316   3.050   5.153  0.9428 -2.2322  2.5080
    3MOL   H202  966   6.120   3.100   5.012 -1.5198  0.4185  0.0069
    3MOL   H203  967   6.227   3.280   5.058 -0.1047  1.6431 -0.6217
    3MOL   H204  968   6.047   3.437   5.202  0.5767 -2.5787  0.5301
    3MOL   H205  969   6.163   3.398   5.399  2.2968 -0.2424  1.2583
    3MOL   H206  970   6.186   3.564   5.358 -1.3195 -0.6664  1.4461
    3MOL   H207  971   6.316   3.446   5.341 -0.1008  1.9890  0.1551
    3MOL   H208  972   6.315   3.526   5.076  0.1268 -0.9195  1.2506
    3MOL   H209  973   6.197   3.641   5.131  0.1791  1.1724 -1.9176
    3MOL   H210  974   6.154   3.535   4.996  1.4080 -0.3399 -0.6927
    3MOL   C211  975   5.979   2.985   5.116  0.4942  0.7711  0.1978
    3MOL   C212  976   5.940   2.904   4.986  0.3155  0.0486  0.2212
    3MOL   C213  977   5.992   2.757   4.984  0.0106  1.0957  0.5455
    3MOL   O214  978   5.941   2.673   5.065 -0.3811  0.0066 -0.4682
    3MOL   N215  979   6.084   2.722   4.897 -0.3499  0.4535  0.2212
    3MOL   C216  980   6.151   2.598   4.872 -0.4742 -0.0443 -0.1779
    3MOL   C217  981   6.291   2.628   4.799 -0.0048  0.0204  0.2828
    3MOL   C218  982   6.062   2.517   4.776 -0.0504  0.1219 -0.3273
    3MOL   H219  983   5.892   3.047   5.140  0.8406  1.1179  0.5673
    3MOL   H220  984   5.981   2.919   5.203 -1.5092  0.8612  0.3452
    3MOL   H221  985   5.987   2.957   4.903  0.7959 -0.1567  0.3591
    3MOL   H222  986   6.127   2.806   4.860 -0.6214  0.0349 -1.0382
    3MOL   H223  987   6.167   2.548   4.968 -3.3798 -1.3073 -0.3111
    3MOL   H224  988   6.290   2.682   4.705 -0.6048 -0.1112  0.2109
    3MOL   H225  989   6.357   2.677   4.870  0.0989  1.1194 -0.5732
    3MOL   H226  990   6.330   2.530   4.773  0.5113  0.5400 -0.9473
    3MOL   H227  991   6.115   2.427   4.745  0.2996  0.0670  0.4198
    3MOL   H228  992   6.049   2.576   4.686  1.1365 -2.5640 -2.3496
    3MOL   H229  993   5.962   2.494   4.814  0.8530  0.3295  2.2825
    3MOL   C230  994   5.786   2.907   4.969 -0.1071  0.2546  0.8023
    3MOL   C231  995   5.722   2.898   4.826 -0.5719 -0.4408 -0.5246
    3MOL   C232  996   5.757   3.025   4.737 -0.0404 -0.2780  0.0211
    3MOL   O233  997   5.867   3.080   4.737  0.1247 -0.8375 -0.1347
    3MOL   N234  998   5.648   3.084   4.680 -0.1074  0.5281 -0.0763
    3MOL   C235  999   5.632   3.201   4.601  0.7298  0.7160  0.0172
    3MOL   C236 1000   5.650   3.182   4.445 -0.0393  0.3722 -0.5793
    3MOL   C237 1001   5.491   3.248   4.632  0.5075  0.0311  0.4994
    3MOL   H238 1002   5.755   3.003   5.009  0.5614  0.4640  0.8192
    3MOL   H239 1003   5.737   2.833   5.032 -1.2502  1.1345  0.9585
    3MOL   H240 1004   5.616   2.906   4.851 -0.3324 -1.0249  0.7013
    3MOL   H241 1005   5.566   3.026   4.695  0.6505 -0.5060  0.1472
    3MOL   H242 1006   5.703   3.275   4.639  2.0132  0.2938 -1.4963
    3MOL   H243 1007   5.608   3.087   4.412  2.4506 -0.3919 -1.6370
    3MOL   H244 1008   5.593   3.266   4.406 -0.8100  0.0236 -0.2154
    3MOL   H245 1009   5.752   3.203   4.413 -0.6265  5.5427  0.5904
    3MOL   H246 1010   5.406   3.191   4.594  0.2285  1.3521 -0.9532
    3MOL   H247 1011   5.469   3.349   4.596  0.1085  0.7554  2.7373
    3MOL   H248 1012   5.482   3.261   4.739 -0.2947  0.8208  0.3500
    3MOL   C249 1013   5.742   2.768   4.750  0.5720 -1.0559  0.2109
    3MOL   C250 1014   5.681   2.755   4.610 -0.4383 -0.4541 -0.4104
    3MOL   C251 1015   5.528   2.797   4.601  0.2090 -0.6528 -0.0428
    3MOL   O252 1016   5.456   2.815   4.696  1.0442 -0.1665 -0.5603
    3MOL   N253 1017   5.474   2.816   4.482 -0.5022  0.3783  0.1086
    3MOL   C254 1018   5.336   2.857   4.464 -0.5930 -0.1038 -0.6392
    3MOL   C255 1019   5.313   2.955   4.348 -0.0700 -0.4368 -0.6241
    3MOL   C256 1020   5.248   2.734   4.458  0.1322  0.5582  0.6313
    3MOL   H257 1021   5.707   2.684   4.810 -3.1970  0.9273  0.9402
    3MOL   H258 1022   5.850   2.764   4.733  0.5352  0.4350 -0.4364
    3MOL   H259 1023   5.730   2.830   4.548 -0.2145 -0.6962 -0.5315
    3MOL   H260 1024   5.534   2.788   4.406 -0.3821 -1.4439  0.8542
    3MOL   H261 1025   5.300   2.914   4.549  1.7145  0.4493 -0.0198
    3MOL   H262 1026   5.400   3.020   4.349  0.7904 -1.5746  0.0746
    3MOL   H263 1027   5.318   2.895   4.256  0.8208 -1.6408  0.1861
    3MOL   H264 1028   5.220   3.009   4.361  0.1925 -0.4884  1.6761
    3MOL   H265 1029   5.272   2.662   4.379  0.4063  1.1816  0.1379
    3MOL   H266 1030   5.247   2.681   4.553  2.3424  1.1045  0.9863
    3MOL   H267 1031   5.146   2.766   4.441 -0.2885  1.0974  3.9731
    3MOL   C268 1032   5.719   2.607   4.561  0.0398  0.1048  0.0846
    3MOL   C269 1033   5.724   2.596   4.406 -0.0980 -0.0569 -0.3045
    3MOL   C270 1034   5.778   2.717   4.332  0.0579  0.3078 -0.9784
    3MOL   O271 1035   5.705   2.787   4.266  0.4579 -0.3507 -0.4513
    3MOL   N272 1036   5.910   2.737   4.362  0.2090 -0.7187  0.3070
    3MOL   C273 1037   5.988   2.854   4.323  0.3665  0.2683 -0.7480
    3MOL   C274 1038   6.015   2.944   4.449  0.0646  0.1329  0.7047
    3MOL   C275 1039   6.130   2.818   4.276 -0.3488  0.3778  0.1252
    3MOL   H276 1040   5.815   2.575   4.599 -0.4443 -0.1668  1.0951
    3MOL   H277 1041   5.636   2.546   4.596 -0.4381 -0.8485 -2.6374
    3MOL   H278 1042   5.621   2.575   4.378 -0.7422 -0.6103  2.3511
    3MOL   H279 1043   5.959   2.666   4.414  3.0465  1.0855  0.1838
    3MOL   H280 1044   5.931   2.900   4.242  0.5949  1.1314 -0.4217
    3MOL   H281 1045   6.079   3.029   4.426  2.5047 -2.0770 -0.8910
    3MOL   H282 1046   5.924   2.970   4.504  0.1937  2.8241 -0.2966
    3MOL   H283 1047   6.070   2.887   4.524  1.5227  0.1474 -0.3475
    3MOL   H284 1048   6.204   2.789   4.351  3.7568  2.9916 -2.6775
    3MOL   H285 1049   6.130   2.742   4.197  2.3962 -0.3393  0.7420
    3MOL   H286 1050   6.172   2.908   4.231 -1.0082 -0.1516 -1.6235
    3MOL   C287 1051   5.797   2.468   4.358  0.6916  0.5993 -0.1806
    3MOL   C288 1052   5.770   2.435   4.207  0.2671 -0.2918 -0.4427
    3MOL   C289 1053   5.649   2.344   4.189 -0.1072 -0.1269  0.1676
    3MOL   O290 1054   5.624   2.261   4.278  0.0121 -0.7636 -0.0181
    3MOL   N291 1055   5.571   2.361   4.083  0.2301 -0.3493  0.9675
    3MOL   C292 1056   5.440   2.300   4.061 -0.1980  0.0774  0.4447
    3MOL   C293 1057   5.331   2.411   4.021 -0.5087  0.3752  0.3137
    3MOL   C294 1058   5.451   2.191   3.956 -0.2655  0.1482 -0.7742
    3MOL   H295 1059   5.904   2.479   4.378  0.4664  1.6216  0.4939
    3MOL   H296 1060   5.767   2.376   4.409 -1.5888  0.3883 -1.8431
    3MOL   H297 1061   5.743   2.525   4.153  2.2470  1.2188  0.9931
    3MOL   H298 1062   5.592   2.446   4.032  0.6413 -1.0569 -0.0636
    3MOL   H299 1063   5.410   2.267   4.161 -1.1473 -1.3489 -0.3002
    3MOL   H300 1064   5.363   2.496   3.960 -0.0822 -0.8468 -1.1966
    3MOL   H301 1065   5.235   2.374   3.986 -1.0032  0.7163  1.2892
    3MOL   H302 1066   5.305   2.455   4.117 -1.5956 -0.4407  0.4040
    3MOL   H303 1067   5.361   2.187   3.895 -0.2320  2.6192 -1.0532
    3MOL   H304 1068   5.534   2.207   3.887 -1.1243  2.3579 -1.3487
    3MOL   H305 1069   5.472   2.096   4.004 -2.0424 -0.3027 -0.8346
    3MOL   C306 1070   5.900   2.383   4.134 -0.2042  0.5261  0.3077
    3MOL   C307 1071   5.946   2.238   4.161 -0.5381 -0.6534 -0.8586
    3MOL   C308 1072   5.959   2.203   4.307  0.3374  0.1057 -0.3021
    3MOL   O309 1073   6.041   2.266   4.380  0.0322 -0.3645 -0.4530
    3MOL   N310 1074   5.874   2.108   4.350  0.7606 -0.1944  0.1186
    3MOL   C311 1075   5.855   2.071   4.491 -0.2319  0.3485  0.1651
    3MOL   C312 1076   5.727   1.985   4.495  0.7305  0.3487 -0.7035
    3MOL   C313 1077   5.984   1.996   4.537  0.0109 -0.7452  0.1649
    3MOL   H314 1078   5.884   2.405   4.028  0.9104  1.8451  0.4083
    3MOL   H315 1079   5.984   2.445   4.164  1.0161  0.1220 -2.1736
    3MOL   H316 1080   5.869   2.170   4.123 -1.4026  1.2126 -2.5835
    3MOL   H317 1081   5.796   2.092   4.288 -0.8248 -2.3004  2.5566
    3MOL   H318 1082   5.841   2.166   4.542  0.1653 -0.5935  2.0852
    3MOL   H319 1083   5.642   2.048   4.469  2.4178  2.6340 -0.8239
    3MOL   H320 1084   5.724   1.948   4.598  0.2793  1.7964 -0.1901
    3MOL   H321 1085   5.745   1.903   4.425 -0.9701 -0.7746  0.1412
    3MOL   H322 1086   6.050   2.070   4.582  0.5548 -0.1497 -1.5834
    3MOL   H323 1087   6.042   1.953   4.456  2.4463  0.2838  1.2887
    3MOL   H324 1088   5.966   1.921   4.614 -1.4738  0.4045  0.9820
    3MOL   C325 1089   6.082   2.223   4.087  0.0287 -0.1152  0.4347
    3MOL   C326 1090   6.150   2.089   4.078 -0.1843  0.3842  0.3181
    3MOL   C327 1091   6.056   1.974   4.032  0.0988 -0.2970 -0.5490
    3MOL   O328 1092   6.031   1.946   3.915 -0.0733  0.0932  0.3575
    3MOL   N329 1093   6.009   1.910   4.134  0.5141 -0.7825  0.3180
    3MOL   C330 1094   5.913   1.800   4.126 -0.2391  0.0822  0.2930
    3MOL   C331 1095   5.770   1.848   4.098  0.3460 -0.7515  0.5005
    3MOL   C332 1096   5.927   1.717   4.261  0.0675  0.1729  0.5284
    3MOL   H333 1097   6.161   2.286   4.128  1.7841 -1.0246 -1.4525
    3MOL   H334 1098   6.070   2.261   3.985  0.5707  2.1544  1.1861
    3MOL   H335 1099   6.180   2.070   4.181 -0.4155  1.5005  0.5921
    3MOL   H336 1100   6.051   1.928   4.223  1.8763 -0.1447 -0.4373
    3MOL   H337 1101   5.943   1.733   4.045 -0.8259 -1.0354  0.9857
    3MOL   H338 1102   5.699   1.769   4.074 -1.5727  0.5687  1.6964
    3MOL   H339 1103   5.736   1.906   4.183  2.6023 -0.9592  1.5672
    3MOL   H340 1104   5.757   1.915   4.013 -1.1441 -1.0398  0.4876
    3MOL   H341 1105   5.925   1.777   4.352  0.5650  1.4944 -0.3083
    3MOL   H342 1106   6.026   1.672   4.271 -0.2716 -0.4290  1.2135
    3MOL   H343 1107   5.846   1.645   4.263 -0.3443  0.5932 -0.6966
    3MOL   C344 1108   6.285   2.085   4.001 -0.0057  0.3023  0.8888
    3MOL   C345 1109   6.395   2.191   4.044  0.2795  0.2376 -0.0091
    3MOL   C346 1110   6.405   2.211   4.199  0.0492  0.7709  0.1044
    3MOL   O347 1111   6.432   2.119   4.278  0.3247  0.0185  0.2684
    3MOL   N348 1112   6.379   2.337   4.240 -0.3580  0.2001 -0.2257
    3MOL   C349 1113   6.353   2.372   4.378 -0.3664 -0.2708 -0.3729
    3MOL   C350 1114   6.481   2.383   4.463  0.3886  0.3147  0.4794
    3MOL   C351 1115   6.274   2.504   4.396 -0.1133  0.1063 -0.1579
    3MOL   H352 1116   6.254   2.090   3.896  2.0423 -0.0830  0.2489
    3MOL   H353 1117   6.335   1.989   4.015 -1.3091 -0.5455 -0.1075
    3MOL   H354 1118   6.371   2.289   4.003 -0.7892 -1.0892 -2.6371
    3MOL   H355 1119   6.351   2.401   4.168  1.1455 -0.8904 -1.8234
    3MOL   H356 1120   6.289   2.291   4.415 -1.5173  1.1267  0.7331
    3MOL   H357 1121   6.534   2.477   4.453 -0.4190  0.6494 -0.8326
    3MOL   H358 1122   6.459   2.368   4.569 -0.8766 -1.7100 -0.0293
    3MOL   H359 1123   6.549   2.301   4.441 -0.4586 -0.3470  0.3165
    3MOL   H360 1124   6.175   2.493   4.353 -0.3334  1.9329 -0.1357
    3MOL   H361 1125   6.263   2.522   4.503  0.5122 -0.0346 -0.0626
    3MOL   H362 1126   6.308   2.596   4.350 -0.0123  0.6119  0.9125
    3MOL   C363 1127   6.544   2.147   3.999  1.0311  0.9035 -0.8749
    3MOL   C364 1128   6.574   2.122   3.856  0.8463  0.0185 -0.2113
    3MOL   C365 1129   6.561   2.248   3.768  0.2676 -0.2366 -0.1328
    3MOL   O366 1130   6.498   2.348   3.810 -0.0904  0.5269 -0.3667
    3MOL   N367 1131   6.625   2.245   3.646 -0.4482  0.0784  0.1448
    3MOL   C368 1132   6.641   2.353   3.547  0.0312 -0.2941  0.4501
    3MOL   C369 1133   6.758   2.432   3.589 -1.1334 -0.2993  0.2014
    3MOL   C370 1134   6.654   2.307   3.403 -0.0475  0.1944 -0.0277
    3MOL   H371 1135   6.577   2.060   4.054  2.7228 -0.2391 -3.5761
    3MOL   H372 1136   6.600   2.231   4.041  0.3840 -0.1796  2.2806
    3MOL   H373 1137   6.511   2.042   3.816 -3.3448  2.7849  0.5730
    3MOL   H374 1138   6.682   2.163   3.632 -2.1502 -1.0348 -0.3444
    3MOL   H375 1139   6.558   2.423   3.539 -0.5025 -0.8686  0.9318
    3MOL   H376 1140   6.845   2.367   3.597 -0.7030  0.2417 -0.0246
    3MOL   H377 1141   6.762   2.512   3.515 -2.1246  0.0065  0.4670
    3MOL   H378 1142   6.740   2.482   3.684  2.7187 -0.6739  1.2323
    3MOL   H379 1143   6.725   2.225   3.394 -2.3154 -1.8989  0.4741
    3MOL   H380 1144   6.555   2.276   3.368 -0.6335  1.2771  0.6499
    3MOL   H381 1145   6.692   2.389   3.344 -0.6237  0.3093 -0.2399
    3MOL   H382 1146   6.677   2.093   3.838  1.9535  4.1354 -0.9816
    4MOL     C1 1147   6.868   7.205   0.106 -0.0898 -0.3151 -0.0447
    4MOL     C2 1148   6.965   7.109   0.170 -0.1980  0.0237  0.3013
    4MOL     C3 1149   6.900   6.970   0.179  0.1148 -0.0043  0.0778
    4MOL     O4 1150   6.832   6.932   0.083  0.0419  0.3203  0.5467
    4MOL     N5 1151   6.916   6.902   0.295 -0.4314  0.3200  0.1718
    4MOL     C6 1152   6.850   6.773   0.320  0.3741  0.0653 -0.1566
    4MOL     C7 1153   6.959   6.671   0.366  0.1271  0.4298  0.6919
    4MOL     C8 1154   6.735   6.800   0.417 -0.8529 -0.2928  0.5282
    4MOL     H9 1155   6.783   7.226   0.171 -0.0579 -0.7466  0.1398
    4MOL    H10 1156   6.842   7.179   0.004 -2.0021  0.7864  0.1537
    4MOL    H11 1157   6.981   7.142   0.272  1.1737  0.5265 -0.0714
    4MOL    H12 1158   6.974   6.947   0.364 -1.1328 -1.0968  1.7160
    4MOL    H13 1159   6.808   6.739   0.226  0.2536  0.5625 -0.2870
    4MOL    H14 1160   7.018   6.711   0.448 -0.7349 -0.6796  1.8788
    4MOL    H15 1161   7.020   6.653   0.278  0.4546  1.3702  0.7224
    4MOL    H16 1162   6.912   6.574   0.386  0.7110 -0.6088 -2.7082
    4MOL    H17 1163   6.681   6.706   0.426 -0.1472 -0.6680  0.9171
    4MOL    H18 1164   6.767   6.832   0.517 -0.2624  1.0022 -0.0646
    4MOL    H19 1165   6.668   6.879   0.383  0.8117  0.4210 -1.2335
    4MOL    H20 1166   6.909   7.305   0.092 -1.7954  0.1876 -1.5849
    4MOL    C21 1167   7.100   7.108   0.090 -0.1724  0.3795  0.2072
    4MOL    C22 1168   7.209   7.014   0.148  0.3115  0.2932 -0.0597
    4MOL    C23 1169   7.298   7.083   0.257 -0.2007 -0.0412 -0.5077
    4MOL    O24 1170   7.328   7.205   0.249 -0.7133 -0.4693 -0.4553
    4MOL    N25 1171   7.339   7.009   0.355  0.1349  0.0080  0.0186
    4MOL    C26 1172   7.387   7.061   0.483  0.0157 -0.2463  0.2968
    4MOL    C27 1173   7.539   7.033   0.499 -0.7350  0.0484 -0.1445
    4MOL    C28 1174   7.305   6.995   0.600 -0.0554 -1.1084 -0.0657
    4MOL    H29 1175   7.137   7.201   0.046  1.7964 -0.9203 -0.9585
    4MOL    H30 1176   7.077   7.059   7.832 -1.1001  1.0288  0.0775
    4MOL    H31 1177   7.143   6.936   0.186 -1.7338  1.3608 -1.3772
    4MOL    H32 1178   7.328   6.908   0.347  0.4993  0.1253 -2.3321
    4MOL    H33 1179   7.370   7.169   0.488  1.0851 -0.0727  0.2493
    4MOL    H34 1180   7.600   7.063   0.415  1.2916  1.0768  1.6594
    4MOL    H35 1181   7.550   6.925   0.509  1.2032  0.0901 -1.7014
    4MOL    H36 1182   7.583   7.090   0.580  0.3921  0.3530 -0.9648
    4MOL    H37 1183   7.202   7.030   0.589 -0.0931 -0.6529  1.5761
    4MOL    H38 1184   7.313   6.887   0.614  2.1355 -0.6884  2.0610
    4MOL    H39 1185   7.349   7.040   0.688 -1.2172  0.4198 -0.2484
    4MOL    C40 1186   7.307   6.945   0.039  0.6240  0.2469  0.2948
    4MOL    C41 1187   7.279   6.790   0.021  0.0603  0.4672 -0.1064
    4MOL    C42 1188   7.370   6.706   0.112 -0.0037  0.3706 -0.6465
    4MOL    O43 1189   7.489   6.718   0.104  0.0674 -0.3472 -0.3710
    4MOL    N44 1190   7.318   6.620   0.207  0.6168 -0.2549 -0.0201
    4MOL    C45 1191   7.390   6.537   0.303 -0.4113 -0.1256  0.4488
    4MOL    C46 1192   7.310   6.520   0.432  0.4792 -0.0569 -0.4176
    4MOL    C47 1193   7.435   6.409   0.243 -0.3252  0.0885 -0.1974
    4MOL    H48 1194   7.413   6.966   0.056  0.8181 -1.1748  0.8943
    4MOL    H49 1195   7.283   7.003   7.786 -1.3052  2.1470  1.9887
    4MOL    H50 1196   7.176   6.780   0.054 -0.5193 -0.1118 -1.9848
    4MOL    H51 1197   7.220   6.601   0.191  1.2028 -3.8757  0.4711
    4MOL    H52 1198   7.483   6.582   0.337 -0.1425 -0.8769  0.7421
    4MOL    H53 1199   7.353   6.440   0.492  0.7163  0.4117  0.0453
    4MOL    H54 1200   7.204   6.505   0.412  0.3025  0.6511 -0.0452
    4MOL    H55 1201   7.322   6.604   0.501 -2.1363  0.4563 -0.5254
    4MOL    H56 1202   7.484   6.443   0.151 -0.3868  1.4719  0.2758
    4MOL    H57 1203   7.353   6.346   0.209  0.4646 -1.9852  1.6216
    4MOL    H58 1204   7.506   6.354   0.304  0.2436 -0.6530 -1.4950
    4MOL    C59 1205   7.282   6.744   7.712  0.9500 -0.3032  0.5448
    4MOL    C60 1206   7.143   6.717   7.644  0.5683 -0.2473  0.6514
    4MOL    C61 1207   7.084   6.590   7.714  0.1336  0.2416 -0.2978
    4MOL    O62 1208   6.967   6.589   7.753 -0.4668  0.2312 -0.3709
    4MOL    N63 1209   7.162   6.478   7.718 -0.0140  0.0912 -0.7244
    4MOL    C64 1210   7.120   6.346   7.772  0.6737  0.0442  1.3378
    4MOL    C65 1211   7.065   6.351   0.078 -0.3662  0.2700  0.1146
    4MOL    C66 1212   7.024   6.283   7.667 -0.5089  0.3322 -0.4949
    4MOL    H67 1213   7.337   6.817   7.652  0.1050  0.2990  0.4842
    4MOL    H68 1214   7.340   6.652   7.701  0.5854 -0.2417 -2.4906
    4MOL    H69 1215   7.089   6.808   7.671  0.7336  0.0886 -0.1328
    4MOL    H70 1216   7.251   6.474   7.671  2.7888  1.3656  4.0718
    4MOL    H71 1217   7.204   6.277   7.779  0.8820  0.0036 -1.0453
    4MOL    H72 1218   7.129   6.408   0.145  0.3046  1.5513 -1.5855
    4MOL    H73 1219   6.971   6.404   0.092  0.1621  1.0033  0.9531
    4MOL    H74 1220   7.056   6.254   0.127  2.8370 -0.0833  0.1342
    4MOL    H75 1221   6.991   6.183   7.695 -1.3173  0.8497  0.4452
    4MOL    H76 1222   6.930   6.338   7.657 -1.4444 -1.2484 -0.5412
    4MOL    H77 1223   7.076   6.266   7.573  0.8605  0.6151  0.2004
    4MOL    C78 1224   7.143   6.693   7.495 -0.1970 -0.3715  0.1907
    4MOL    C79 1225   7.156   6.820   7.402 -0.0354  0.3859  0.0929
    4MOL    C80 1226   7.087   6.941   7.459 -0.4289  0.1239 -0.4929
    4MOL    O81 1227   7.159   7.022   7.516  0.0997  0.0930 -0.4818
    4MOL    N82 1228   6.960   6.968   7.436  0.4720 -0.5993 -0.2692
    4MOL    C83 1229   6.878   7.086   7.465  0.2514  0.1498 -0.5899
    4MOL    C84 1230   6.778   7.110   7.359 -0.6539 -0.2601 -0.0910
    4MOL    C85 1231   6.812   7.064   7.596  0.3021 -0.2889 -0.3302
    4MOL    H86 1232   7.052   6.648   7.456  0.1976 -0.3820 -0.7307
    4MOL    H87 1233   7.218   6.620   7.463 -0.3751  0.4309 -2.1036
    4MOL    H88 1234   7.092   6.791   7.318 -1.4171  0.7183  1.0043
    4MOL    H89 1235   6.906   6.895   7.391  1.4162 -1.5669  0.1296
    4MOL    H90 1236   6.938   7.178   7.462 -0.7854  0.7922 -2.9807
    4MOL    H91 1237   6.833   7.099   7.265  2.0109  0.5823  1.3144
    4MOL    H92 1238   6.690   7.045   7.358 -0.4117 -0.6119  1.0271
    4MOL    H93 1239   6.736   7.211   7.355 -0.2562  0.0113  2.1523
    4MOL    H94 1240   6.753   7.149   7.630 -0.8027 -0.6745 -1.2458
    4MOL    H95 1241   6.885   7.040   7.673  0.7593  1.4805 -0.1972
    4MOL    H96 1242   6.734   6.988   7.604 -0.6656  0.6022 -1.2346
    4MOL    C97 1243   7.297   6.836   7.341 -1.1761  0.3769 -0.0591
    4MOL    C98 1244   7.326   6.945   7.238 -0.3337  0.2091 -0.3489
    4MOL    C99 1245   7.228   6.950   7.125 -0.3819  0.3293  0.4309
    4MOL   O100 1246   7.176   6.842   7.084 -0.2152  0.2541 -0.5494
    4MOL   N101 1247   7.187   7.071   7.086  0.3387  0.0687 -0.3015
    4MOL   C102 1248   7.089   7.076   6.975 -0.1578 -0.1717 -0.5592
    4MOL   C103 1249   7.010   7.201   6.983 -0.3858 -0.0334  0.1716
    4MOL   C104 1250   7.146   7.050   6.835 -0.2945  0.0981  0.4438
    4MOL   H105 1251   7.310   6.742   7.289 -2.8749  0.2165 -0.1973
    4MOL   H106 1252   7.370   6.842   7.422  0.0126  0.0287 -1.0973
    4MOL   H107 1253   7.308   7.039   7.292 -3.1923 -0.2635 -0.4201
    4MOL   H108 1254   7.210   7.155   7.137 -2.0319  1.3225 -1.2072
    4MOL   H109 1255   7.009   7.005   6.991  1.4130 -1.7460  0.5340
    4MOL   H110 1256   7.079   7.283   6.961 -1.9458  1.6122  1.2636
    4MOL   H111 1257   6.921   7.201   6.921  1.1002  0.8846 -2.0567
    4MOL   H112 1258   6.987   7.219   7.088 -1.0217  0.3945 -0.0391
    4MOL   H113 1259   7.253   7.067   6.829 -0.7801  2.3042 -3.4681
    4MOL   H114 1260   7.094   7.123   6.774  0.8420  1.0495  0.6136
    4MOL   H115 1261   7.134   6.946   6.803 -0.0321 -0.5471  2.3296
    4MOL   C116 1262   7.469   6.947   7.183 -0.3543 -0.3266  0.1696
    4MOL   C117 1263   7.562   7.044   7.262  0.4433 -0.9360  0.6162
    4MOL   C118 1264   7.521   7.194   7.257 -0.5188 -0.8951 -0.6306
    4MOL   O119 1265   7.517   7.260   7.155  0.1545 -0.6782  0.0358
    4MOL   N120 1266   7.484   7.239   7.375  0.7686  0.2578 -0.4356
    4MOL   C121 1267   7.412   7.366   7.399 -0.3004 -0.7555  0.1909
    4MOL   C122 1268   7.267   7.332   7.426 -0.0593  0.8108  0.9759
    4MOL   C123 1269   7.482   7.416   7.522  0.8407 -0.3131 -0.1567
    4MOL   H124 1270   7.471   6.978   7.078  2.1502  2.3065  0.9240
    4MOL   H125 1271   7.510   6.846   7.191  0.8603  0.2197  0.8999
    4MOL   H126 1272   7.539   7.014   7.364 -0.8224  0.1448  0.6685
    4MOL   H127 1273   7.486   7.172   7.450 -0.2456  0.0342 -0.6032
    4MOL   H128 1274   7.422   7.433   7.313  0.1816  0.6835  1.3530
    4MOL   H129 1275   7.201   7.417   7.443  0.1483  1.5471 -1.7315
    4MOL   H130 1276   7.255   7.270   7.514  0.8019 -0.8790 -0.0803
    4MOL   H131 1277   7.228   7.287   7.335  0.6656 -0.5612  1.3288
    4MOL   H132 1278   7.588   7.430   7.503  0.7095  1.8732  0.5974
    4MOL   H133 1279   7.445   7.515   7.550 -1.1603 -1.1705  0.3729
    4MOL   H134 1280   7.468   7.344   7.603 -1.3907  1.8462  1.4461
    4MOL   C135 1281   7.715   7.015   7.226  0.0963 -0.2405 -0.2507
    4MOL   C136 1282   7.812   7.095   7.308  0.2101 -0.0598 -0.1387
    4MOL   C137 1283   7.803   7.062   7.457 -0.5783 -0.8666  0.3050
    4MOL   O138 1284   7.818   6.942   7.489  0.5669 -0.6249  0.6843
    4MOL   N139 1285   7.766   7.161   7.539 -0.1879  0.4106  0.0098
    4MOL   C140 1286   7.748   7.143   7.682  0.2240  0.6307  0.2415
    4MOL   C141 1287   7.616   7.084   7.717 -0.5157  0.1250 -0.0237
    4MOL   C142 1288   7.771   7.279   7.753  0.2340  0.3652 -0.4421
    4MOL   H143 1289   7.731   7.026   7.119  3.8671  0.1960  0.2912
    4MOL   H144 1290   7.721   6.909   7.251  1.2823 -0.3620 -1.0387
    4MOL   H145 1291   7.777   7.197   7.294  2.7451  1.0179  1.1686
    4MOL   H146 1292   7.771   7.256   7.505  1.3069  0.7913  1.2227
    4MOL   H147 1293   7.823   7.078   7.728 -1.8679 -2.8323 -1.0769
    4MOL   H148 1294   7.602   6.983   7.679  3.4672 -0.3728 -0.3784
    4MOL   H149 1295   7.598   7.088   7.824  1.1128 -0.7967  0.2950
    4MOL   H150 1296   7.534   7.145   7.679 -1.0225  0.6639  1.8834
    4MOL   H151 1297   7.689   7.348   7.731  0.2921 -0.2319 -2.6188
    4MOL   H152 1298   0.025   7.332   7.722  0.1698  0.7828  0.0745
    4MOL   H153 1299   7.773   7.273   0.025  1.2707 -0.0920 -0.4807
    4MOL   C154 1300   0.120   7.095   7.251  0.7316  1.0991 -0.5113
    4MOL   C155 1301   0.192   6.961   7.231 -0.1518 -0.1864  0.0418
    4MOL   C156 1302   0.301   6.931   7.327 -0.1410  0.4203  0.0960
    4MOL   O157 1303   0.411   6.993   7.321 -0.2013  0.5536  0.0831
    4MOL   N158 1304   0.275   6.839   7.422 -0.8888  0.6152 -0.2192
    4MOL   C159 1305   0.361   6.803   7.532  0.0782  0.5418  0.8609
    4MOL   C160 1306   0.461   6.695   7.482  0.5475  0.3097 -0.2209
    4MOL   C161 1307   0.297   6.753   7.656  0.0540 -0.4341  0.5143
    4MOL   H162 1308   0.178   7.171   7.304 -0.1481  0.9524  0.6787
    4MOL   H163 1309   0.113   7.157   7.162  0.2867  1.4178 -0.2547
    4MOL   H164 1310   0.125   6.875   7.239 -1.0436  0.5464  0.4547
    4MOL   H165 1311   0.181   6.803   7.411 -0.9940 -0.1817  2.8288
    4MOL   H166 1312   0.425   6.890   7.549  2.8428 -1.2161 -0.3500
    4MOL   H167 1313   0.505   6.720   7.386  0.6716  0.3651 -0.1492
    4MOL   H168 1314   0.540   6.656   7.546 -0.2656 -0.7587  0.1496
    4MOL   H169 1315   0.404   6.606   7.454 -1.7938  2.0041 -1.0130
    4MOL   H170 1316   0.242   6.662   7.634 -1.7316  0.0011  2.9546
    4MOL   H171 1317   0.222   6.825   7.690 -0.7539 -0.7722 -0.5182
    4MOL   H172 1318   0.365   6.735   7.740 -0.4634 -1.3658  0.7388
    4MOL   C173 1319   0.259   6.964   7.092  0.5913  0.4065 -0.0653
    4MOL   C174 1320   0.324   6.833   7.030  0.3330 -0.1433 -0.7632
    4MOL   C175 1321   0.227   6.710   7.047  0.1734  0.5816  0.6672
    4MOL   O176 1322   0.247   6.636   7.141  0.5059 -0.1940  0.4640
    4MOL   N177 1323   0.118   6.710   6.967 -0.3969 -0.4956  0.3231
    4MOL   C178 1324   0.024   6.606   6.953  0.7209  0.1693  0.5453
    4MOL   C179 1325   0.074   6.480   6.880  0.1051 -0.2310 -0.0350
    4MOL   C180 1326   7.741   6.665   6.876 -0.1366 -0.1713 -0.2831
    4MOL   H181 1327   0.340   7.037   7.096  0.3913  0.5729  1.4030
    4MOL   H182 1328   0.182   6.993   7.022 -0.8719 -1.8202  0.5511
    4MOL   H183 1329   0.411   6.827   7.095 -1.7583 -1.6868  2.0386
    4MOL   H184 1330   0.108   6.783   6.899  0.5874  0.4449  1.1670
    4MOL   H185 1331   7.829   6.580   7.054 -1.4462  0.9560  0.1043
    4MOL   H186 1332   7.821   6.429   6.843 -0.0559  0.2923 -0.3830
    4MOL   H187 1333   0.131   6.411   6.942  0.9034 -0.4746 -1.0392
    4MOL   H188 1334   0.130   6.511   6.792 -1.1546 -0.2475 -0.8497
    4MOL   H189 1335   7.777   6.706   6.782  1.8696  0.4081  0.6846
    4MOL   H190 1336   7.702   6.748   6.936  1.8664  1.9820 -1.8250
    4MOL   H191 1337   7.667   6.588   6.858 -0.6064  0.5602 -1.4976
    4MOL   C192 1338   0.372   6.855   6.882  0.4277 -0.5645 -0.0091
    4MOL   C193 1339   0.479   6.750   6.839  0.1724  0.7199  0.1057
    4MOL   C194 1340   0.618   6.787   6.905  0.9170  0.5760 -0.0880
    4MOL   O195 1341   0.697   6.868   6.857  0.3131 -0.3517 -0.1599
    4MOL   N196 1342   0.636   6.720   7.020 -0.5590  0.2550  0.4967
    4MOL   C197 1343   0.758   6.718   7.098  1.0375 -0.6166 -0.5228
    4MOL   C198 1344   0.756   6.846   7.182 -0.5137 -0.1682  0.3652
    4MOL   C199 1345   0.748   6.603   7.191  0.4580 -0.1202  0.0135
    4MOL   H200 1346   0.404   6.958   6.869  2.0138 -1.1730 -1.0812
    4MOL   H201 1347   0.291   6.841   6.810  0.7449 -1.2192 -0.2439
    4MOL   H202 1348   0.446   6.649   6.865  1.0025  0.8102  1.5954
    4MOL   H203 1349   0.565   6.659   7.057 -2.7529  2.4998  0.0876
    4MOL   H204 1350   0.839   6.714   7.025 -0.0621  2.4331 -2.0087
    4MOL   H205 1351   0.749   6.928   7.111 -1.2574  0.7405  1.4981
    4MOL   H206 1352   0.854   6.854   7.230  0.5324 -0.2292 -1.6940
    4MOL   H207 1353   0.669   6.854   7.247  0.4202 -1.2673  1.7902
    4MOL   H208 1354   0.779   6.516   7.132 -1.4368 -1.2636  0.6419
    4MOL   H209 1355   0.652   6.579   7.238  0.7927 -0.5616  0.4818
    4MOL   H210 1356   0.822   6.588   7.269 -0.4303 -1.2475  0.6659
    4MOL   C211 1357   0.499   6.755   6.682 -0.4216 -0.1965 -0.3189
    4MOL   C212 1358   0.582   6.649   6.619  0.5047 -0.2389  0.3606
    4MOL   C213 1359   0.537   6.510   6.655 -0.2611  0.3832 -0.8913
    4MOL   O214 1360   0.430   6.472   6.603  0.3991 -0.3092 -0.0253
    4MOL   N215 1361   0.610   6.442   6.746  0.2082  0.9987  0.9268
    4MOL   C216 1362   0.570   6.335   6.830  0.1878 -0.4845  0.1750
    4MOL   C217 1363   0.471   6.369   6.941  0.5252 -0.6547  0.6229
    4MOL   C218 1364   0.691   6.271   6.883  0.1811 -0.2714  0.1865
    4MOL   H219 1365   0.537   6.857   6.669 -0.7723 -0.0558 -0.2513
    4MOL   H220 1366   0.400   6.755   6.636 -0.3821 -2.2928 -0.4603
    4MOL   H221 1367   0.684   6.657   6.657  0.0017 -0.1418  1.7278
    4MOL   H222 1368   0.696   6.491   6.765  0.7592  0.6183 -0.5175
    4MOL   H223 1369   0.528   6.256   6.767 -1.9947  0.1738  0.7620
    4MOL   H224 1370   0.427   6.275   6.973 -1.4278  0.9287  2.7358
    4MOL   H225 1371   0.507   6.431   7.024  2.3800 -1.1848  0.2366
    4MOL   H226 1372   0.395   6.427   6.890  0.5522 -0.2412  1.0449
    4MOL   H227 1373   0.665   6.173   6.925 -0.1503 -0.0857  0.4157
    4MOL   H228 1374   0.727   6.332   6.965 -1.4512  0.3770  0.4463
    4MOL   H229 1375   0.770   6.248   6.812 -0.2515 -0.0351 -0.3770
    4MOL   C230 1376   0.586   6.671   6.465  0.0923 -0.7678  0.6389
    4MOL   C231 1377   0.688   6.777   6.418  1.5454 -0.3212  0.1552
    4MOL   C232 1378   0.832   6.733   6.438 -0.4751 -0.7533 -0.4978
    4MOL   O233 1379   0.874   6.633   6.390  0.3326 -0.0815 -0.5955
    4MOL   N234 1380   0.904   6.815   6.511  0.1504  0.4820 -0.4654
    4MOL   C235 1381   1.041   6.806   6.550 -1.2505 -0.5697 -0.2157
    4MOL   C236 1382   1.082   6.939   6.627  1.1670 -0.1632 -0.6556
    4MOL   C237 1383   1.060   6.682   6.632  0.1077  0.0094 -0.4883
    4MOL   H238 1384   0.481   6.688   6.441 -0.1353 -2.2998  0.5149
    4MOL   H239 1385   0.614   6.573   6.427  1.8360  1.4086 -4.1487
    4MOL   H240 1386   0.672   6.873   6.467  0.3350  0.6780 -2.1404
    4MOL   H241 1387   0.862   6.903   6.539 -0.4350 -0.0981  0.4910
    4MOL   H242 1388   1.114   6.804   6.469  0.3710 -1.1833  1.2393
    4MOL   H243 1389   1.173   6.924   6.684  0.4078  0.0912  0.6583
    4MOL   H244 1390   1.085   7.028   6.565 -1.3709  0.7184  0.3758
    4MOL   H245 1391   1.006   6.949   6.706  0.5394  0.9747 -1.3873
    4MOL   H246 1392   1.164   6.671   6.665  0.5048 -0.0254 -1.7169
    4MOL   H247 1393   1.015   6.592   6.591 -1.6264  0.4362  0.4166
    4MOL   H248 1394   1.007   6.697   6.726  1.1251  1.8450 -0.1826
    4MOL   C249 1395   0.668   6.818   6.268 -0.6977  0.2521 -0.4038
    4MOL   C250 1396   0.546   6.909   6.244 -0.4603 -0.2682  0.0753
    4MOL   C251 1397   0.485   6.881   6.113  0.5485 -0.4762  0.4849
    4MOL   O252 1398   0.369   6.844   6.102 -0.6563  0.5659  0.1453
    4MOL   N253 1399   0.568   6.893   6.010  0.5944  0.1866 -0.0802
    4MOL   C254 1400   0.548   6.840   5.873  0.5969  0.2969 -0.0831
    4MOL   C255 1401   0.526   6.685   5.869  0.0637  0.4882  0.2496
    4MOL   C256 1402   0.443   6.920   5.796 -0.0196  0.5961 -0.0980
    4MOL   H257 1403   0.669   6.734   6.198  1.4942 -0.9384  1.0229
    4MOL   H258 1404   0.758   6.877   6.251  0.6748 -1.9166 -0.7792
    4MOL   H259 1405   0.474   6.876   6.319 -1.2365  0.9538 -0.1246
    4MOL   H260 1406   0.660   6.932   6.026  0.9596 -0.0097 -1.6065
    4MOL   H261 1407   0.641   6.856   5.819  0.5119 -0.9477 -0.6416
    4MOL   H262 1408   0.423   6.665   5.896 -0.4289  0.5767 -1.5034
    4MOL   H263 1409   0.535   6.665   5.762  0.2977  0.4846  0.2691
    4MOL   H264 1410   0.601   6.625   5.921  1.1163  1.0490 -0.5908
    4MOL   H265 1411   0.485   7.018   5.773 -1.0186  1.4466  1.6269
    4MOL   H266 1412   0.426   6.886   5.694  2.2541  0.0355 -0.3284
    4MOL   H267 1413   0.353   6.939   5.855 -0.2555 -0.9199  0.0391
    4MOL   C268 1414   0.561   7.055   6.280 -0.2652 -0.4397 -0.1452
    4MOL   C269 1415   0.449   7.156   6.245  0.1140 -0.3534 -0.6472
    4MOL   C270 1416   0.339   7.132   6.342  0.5859  0.1881 -0.5240
    4MOL   O271 1417   0.341   7.173   6.455 -0.7154  0.7265  0.3317
    4MOL   N272 1418   0.242   7.058   6.285 -0.8579  0.2676  0.0959
    4MOL   C273 1419   0.123   7.001   6.341  0.0014  0.1750 -0.1922
    4MOL   C274 1420   0.036   6.969   6.217 -0.0970 -0.0431  0.1475
    4MOL   C275 1421   0.148   6.871   6.423 -0.3094  0.1473 -0.1356
    4MOL   H276 1422   0.582   7.064   6.387  0.2054 -0.6597 -0.2184
    4MOL   H277 1423   0.645   7.091   6.222  2.3811 -1.9137  2.6572
    4MOL   H278 1424   0.429   7.156   6.138 -0.6060 -0.0244 -0.5106
    4MOL   H279 1425   0.272   7.020   6.196  0.6599 -0.8471  1.0519
    4MOL   H280 1426   0.082   7.081   6.403 -0.1576  0.3017 -0.4606
    4MOL   H281 1427   0.014   7.059   6.160  0.7310 -1.7581 -2.9672
    4MOL   H282 1428   0.085   6.895   6.154 -0.3808  0.5775 -0.8129
    4MOL   H283 1429   7.782   6.915   6.246  0.5805 -1.3009 -0.0506
    4MOL   H284 1430   0.106   6.785   6.371  3.7965 -1.8121 -0.4310
    4MOL   H285 1431   0.254   6.847   6.421 -0.2856  0.2343  0.1632
    4MOL   H286 1432   0.111   6.883   6.524  0.9570 -0.4488  0.4068
    4MOL   C287 1433   0.507   7.301   6.253 -0.0502  0.2858 -0.2412
    4MOL   C288 1434   0.411   7.415   6.209 -0.7398  0.1780 -0.2965
    4MOL   C289 1435   0.389   7.402   6.054 -0.1327  0.7289  0.1674
    4MOL   O290 1436   0.477   7.432   5.979  0.4686 -0.4597 -0.3547
    4MOL   N291 1437   0.268   7.353   6.023  0.6875 -0.3161  0.1522
    4MOL   C292 1438   0.239   7.316   5.883  0.0168 -0.5592 -0.3355
    4MOL   C293 1439   0.137   7.205   5.881  0.0064  0.5355  0.1148
    4MOL   C294 1440   0.196   7.438   5.802  0.0060 -0.3866  0.7294
    4MOL   H295 1441   0.537   7.328   6.354 -2.5932  1.4982  0.2361
    4MOL   H296 1442   0.601   7.304   6.199  1.5668  1.0818  2.5261
    4MOL   H297 1443   0.316   7.401   6.261  0.4201 -1.1712  1.4956
    4MOL   H298 1444   0.192   7.338   6.087  0.3411 -1.7077 -0.5592
    4MOL   H299 1445   0.335   7.276   5.851  2.4178  1.1363  4.2934
    4MOL   H300 1446   0.032   7.221   5.908 -0.1214 -0.5467  0.2885
    4MOL   H301 1447   0.126   7.183   5.775 -0.8836  0.9577  0.1071
    4MOL   H302 1448   0.176   7.127   5.946  2.1368  1.3083 -0.1977
    4MOL   H303 1449   0.118   7.502   5.842  1.5111  1.0475  1.4224
    4MOL   H304 1450   0.281   7.502   5.776 -0.8997 -0.0496 -1.4440
    4MOL   H305 1451   0.157   7.405   5.706 -0.4697  2.6066 -0.1430
    4MOL   C306 1452   0.460   7.557   6.261 -1.3492  0.2348  0.4769
    4MOL   C307 1453   0.448   7.603   6.411 -0.0215  0.5956 -0.6064
    4MOL   C308 1454   0.582   7.621   6.485 -0.0536 -0.1449 -0.0911
    4MOL   O309 1455   0.656   7.528   6.498 -0.1826 -0.5095  1.0729
    4MOL   N310 1456   0.612   7.741   6.537 -0.1049 -0.0175 -0.0618
    4MOL   C311 1457   0.733   7.773   6.615  0.0642 -0.4649 -0.0511
    4MOL   C312 1458   0.842   7.836   6.527  0.5190  0.0435 -0.4521
    4MOL   C313 1459   0.702   0.043   6.717 -0.1730 -0.0573 -0.0736
    4MOL   H314 1460   0.566   7.560   6.232 -1.8396  0.2641 -1.3665
    4MOL   H315 1461   0.417   7.632   6.194  2.1180 -1.3878 -3.8956
    4MOL   H316 1462   0.413   7.705   6.393  1.8740  1.3438 -0.1853
    4MOL   H317 1463   0.540   7.810   6.524  1.3093  1.7154  1.0952
    4MOL   H318 1464   0.769   7.682   6.663 -1.3302 -1.8342 -1.5585
    4MOL   H319 1465   0.924   0.039   6.586  0.0356 -0.6352  0.6823
    4MOL   H320 1466   0.809   0.090   6.475  0.5820  1.9874  2.7400
    4MOL   H321 1467   0.871   7.764   6.450  2.4030 -1.4179  1.5654
    4MOL   H322 1468   0.772   0.045   6.801 -0.1778  0.0521 -0.0718
    4MOL   H323 1469   0.601   0.027   6.756 -0.3105 -0.4113 -0.5756
    4MOL   H324 1470   0.698   0.145   6.679  0.0183 -0.6771 -1.7590
    4MOL   C325 1471   0.349   7.523   6.496  0.2499 -0.1731  0.1612
    4MOL   C326 1472   0.332   7.554   6.649 -0.0275  0.1223 -0.1161
    4MOL   C327 1473   0.304   7.698   6.687 -0.4379  0.1167  0.5756
    4MOL   O328 1474   0.275   7.787   6.609  0.2231 -0.3024 -0.0620
    4MOL   N329 1475   0.317   7.719   6.823  0.3930  0.2614 -0.1552
    4MOL   C330 1476   0.329   0.004   6.895 -0.1286 -0.1379 -0.5810
    4MOL   C331 1477   0.428   7.823   7.015  0.0126  0.0170 -0.3428
    4MOL   C332 1478   0.188   0.053   6.938 -0.0308 -0.5833  0.2862
    4MOL   H333 1479   0.359   7.415   6.481  3.0378  0.4193 -2.8916
    4MOL   H334 1480   0.247   7.541   6.464  0.8368 -0.3018 -1.9034
    4MOL   H335 1481   0.430   7.529   6.690  0.1824 -1.4829 -1.5127
    4MOL   H336 1482   0.330   7.631   6.871  0.5469  0.4503  0.1481
    4MOL   H337 1483   0.371   0.079   6.829  1.9372 -0.5773  0.1909
    4MOL   H338 1484   0.512   7.784   6.957  0.7730 -0.7166  1.2215
    4MOL   H339 1485   0.462   0.076   7.067  1.3600 -0.8296  0.2512
    4MOL   H340 1486   0.407   7.746   7.088  1.1094  0.2725  0.2493
    4MOL   H341 1487   0.115   0.070   6.858  2.1202 -0.4310 -1.7083
    4MOL   H342 1488   0.202   0.142   7.000 -1.1024  1.3519 -2.1048
    4MOL   H343 1489   0.143   7.820   7.009  2.2669 -0.6412  1.7183
    4MOL   C344 1490   0.226   7.455   6.707  0.6135 -0.0209 -0.9306
    4MOL   C345 1491   0.297   7.330   6.777  0.4739 -0.5359  0.6268
    4MOL   C346 1492   0.380   7.377   6.897  0.4953 -0.1951 -0.5395
    4MOL   O347 1493   0.350   7.478   6.955  0.5333  0.8790 -0.2310
    4MOL   N348 1494   0.487   7.306   6.935  0.3837  0.6394 -0.1575
    4MOL   C349 1495   0.573   7.322   7.047 -0.6243 -0.7462  0.7545
    4MOL   C350 1496   0.641   7.184   7.071  0.0407 -0.0364  0.0997
    4MOL   C351 1497   0.670   7.440   7.015 -0.2757 -0.4284  0.6017
    4MOL   H352 1498   0.157   7.423   6.629  0.8945 -1.7676 -0.4774
    4MOL   H353 1499   0.154   7.500   6.775  1.8258  2.4580 -1.2327
    4MOL   H354 1500   0.365   7.271   6.715  1.2711  1.6942 -0.6800
    4MOL   H355 1501   0.507   7.224   6.879 -0.4257 -0.2349  0.8231
    4MOL   H356 1502   0.516   7.361   7.131 -0.6750  1.1771 -0.1508
    4MOL   H357 1503   0.577   7.099   7.090 -0.2828  0.6697  2.4013
    4MOL   H358 1504   0.699   7.150   6.985 -0.9482 -1.6205  0.0451
    4MOL   H359 1505   0.716   7.186   7.150 -0.2339  3.2307  0.3542
    4MOL   H360 1506   0.762   7.412   6.964  1.0740  1.1038  2.1063
    4MOL   H361 1507   0.624   7.521   6.959 -2.6153 -2.3126 -0.3001
    4MOL   H362 1508   0.714   7.486   7.104  0.4259  1.1618 -0.5303
    4MOL   C363 1509   0.200   7.222   6.820  0.0725 -0.5728 -0.6316
    4MOL   C364 1510   0.141   7.129   6.709  0.1557 -0.5160 -0.1142
    4MOL   C365 1511   0.020   7.049   6.759 -0.7392 -0.0117  0.7364
    4MOL   O366 1512   0.040   6.930   6.792 -0.1040 -0.4091  0.2398
    4MOL   N367 1513   7.739   7.112   6.760 -0.2789  0.1970 -0.4355
    4MOL   C368 1514   7.617   7.065   6.828 -0.4013 -1.0273  0.0632
    4MOL   C369 1515   7.523   7.180   6.834  0.0716  0.0348 -0.1200
    4MOL   C370 1516   7.543   6.951   6.755  0.5059 -0.5968 -0.5851
    4MOL   H371 1517   0.110   7.270   6.859  0.4143 -0.4427 -0.0105
    4MOL   H372 1518   0.235   7.157   6.900 -3.3400 -2.5986 -0.6472
    4MOL   H373 1519   0.218   7.063   6.668 -0.0395 -1.9609  1.7794
    4MOL   H374 1520   7.735   7.205   6.722  0.4349  0.5974  0.4458
    4MOL   H375 1521   7.648   7.032   6.927 -1.8605  0.2224  0.9616
    4MOL   H376 1522   7.569   7.264   6.884 -1.9887  0.6046  0.9069
    4MOL   H377 1523   7.481   7.209   6.738  2.3114 -1.1260 -1.4907
    4MOL   H378 1524   7.436   7.159   6.897  1.1777 -1.5746  0.9362
    4MOL   H379 1525   7.442   6.938   6.793  0.6123  2.0671  0.6820
    4MOL   H380 1526   7.534   6.976   6.649  2.5677 -1.9345 -1.1056
    4MOL   H381 1527   7.587   6.851   6.763 -1.1176 -1.2352  0.6294
    4MOL   H382 1528   0.100   7.194   6.631 -0.9988  0.5600  1.3526
    5MOL     C1 1529   2.041   7.812   5.940  0.0914  0.2840 -0.0936
    5MOL     C2 1530   1.940   7.756   5.835 -0.0960  0.3018 -0.3847
    5MOL     C3 1531   1.881   7.619   5.876 -0.6070 -0.1826  0.1690
    5MOL     O4 1532   1.823   7.604   5.983  0.2016 -0.5734 -0.3814
    5MOL     N5 1533   1.935   7.518   5.806  0.0702 -0.4654  0.1488
    5MOL     C6 1534   1.898   7.378   5.809 -1.0369  0.3909  0.1213
    5MOL     C7 1535   1.889   7.338   5.661 -0.5470  0.5452 -0.0725
    5MOL     C8 1536   2.008   7.300   5.890  0.6683  0.6265 -0.3417
    5MOL     H9 1537   1.995   7.811   6.038 -1.8855  0.3347 -0.9892
    5MOL    H10 1538   2.059   0.081   5.921  1.2556 -0.0267 -0.7645
    5MOL    H11 1539   1.998   7.748   5.743 -0.3102 -0.8996 -0.4274
    5MOL    H12 1540   1.999   7.534   5.730  0.4794 -1.1917  0.3410
    5MOL    H13 1541   1.802   7.356   5.855  0.0727 -2.8528  0.9823
    5MOL    H14 1542   1.870   7.231   5.665 -0.9342  0.5859 -0.6729
    5MOL    H15 1543   1.992   7.343   5.626  0.0410  1.1494  1.6868
    5MOL    H16 1544   1.810   7.390   5.606 -1.0937 -0.8082 -0.5970
    5MOL    H17 1545   2.014   7.344   5.989  1.5180  0.6340 -0.3935
    5MOL    H18 1546   1.972   7.202   5.921  2.1698  0.0179 -0.4843
    5MOL    H19 1547   2.110   7.300   5.854  1.0233 -0.6105  0.6337
    5MOL    H20 1548   2.131   7.752   5.953 -0.6855 -0.3499  2.7484
    5MOL    C21 1549   1.824   0.027   5.806 -0.6367 -0.2610 -0.3569
    5MOL    C22 1550   1.792   0.073   5.668 -0.3935 -0.2097 -0.1404
    5MOL    C23 1551   1.765   7.797   5.570 -0.6829 -0.4416  0.1611
    5MOL    O24 1552   1.855   7.757   5.493  0.0614  0.1340  0.1503
    5MOL    N25 1553   1.638   7.753   5.572 -0.1766  0.2396 -0.3993
    5MOL    C26 1554   1.580   7.647   5.496  0.1074  0.1687 -0.3343
    5MOL    C27 1555   1.507   7.695   5.368  0.8177 -0.6768  0.8900
    5MOL    C28 1556   1.497   7.552   5.584  0.5950  0.6313  0.6963
    5MOL    H29 1557   1.844   0.114   5.869 -1.8043 -0.2751  0.0580
    5MOL    H30 1558   1.731   7.833   5.855  0.1322  0.1642  1.4188
    5MOL    H31 1559   1.694   0.120   5.679 -0.5787 -0.5844 -0.1744
    5MOL    H32 1560   1.586   7.783   5.653  2.6384 -1.4389  2.1485
    5MOL    H33 1561   1.664   7.583   5.469 -1.5373 -1.8846 -0.7247
    5MOL    H34 1562   1.569   7.765   5.312 -1.1564  0.7039  0.4031
    5MOL    H35 1563   1.419   7.747   5.405  2.9033  1.7204  2.6784
    5MOL    H36 1564   1.488   7.611   5.301  1.6964  0.9990 -1.5484
    5MOL    H37 1565   1.568   7.526   5.663  0.0423  0.7182  1.2248
    5MOL    H38 1566   1.408   7.593   5.630  1.3720  0.9081  1.9873
    5MOL    H39 1567   1.471   7.468   5.520 -1.8040  2.6727 -1.1015
    5MOL    C40 1568   1.892   0.182   5.622  0.6719 -0.8281  0.4196
    5MOL    C41 1569   1.859   0.261   5.487 -0.2583 -0.2472 -0.6980
    5MOL    C42 1570   1.993   0.304   5.422 -0.0530 -0.3135 -0.4886
    5MOL    O43 1571   2.050   0.407   5.467  0.7425  0.4972 -0.0969
    5MOL    N44 1572   2.050   0.224   5.333 -0.4164 -0.4660 -0.4409
    5MOL    C45 1573   2.170   0.260   5.251  0.4761 -0.5037 -0.5310
    5MOL    C46 1574   2.254   0.138   5.256 -0.8941 -0.3464 -0.2762
    5MOL    C47 1575   2.127   0.303   5.112 -0.3128  0.2246 -0.0563
    5MOL    H48 1576   1.989   0.132   5.616  0.7833 -0.7558  1.5484
    5MOL    H49 1577   1.909   0.252   5.704  0.2434  0.3318 -0.4672
    5MOL    H50 1578   1.810   0.202   5.410 -0.6023 -0.6915 -0.1503
    5MOL    H51 1579   2.006   0.134   5.320 -2.6352  0.2903  1.4494
    5MOL    H52 1580   2.219   0.350   5.288 -0.0737 -0.6620  0.5987
    5MOL    H53 1581   2.191   0.052   5.233 -0.0562 -0.8575 -0.6539
    5MOL    H54 1582   2.282   0.121   5.360  1.8854  1.5737 -0.6699
    5MOL    H55 1583   2.345   0.134   5.197  0.9154 -2.3306  2.5217
    5MOL    H56 1584   2.215   0.316   5.049 -0.7581 -0.6609 -0.8697
    5MOL    H57 1585   2.077   0.399   5.120 -0.5828 -0.0284  1.4454
    5MOL    H58 1586   2.057   0.230   5.072  0.2167 -1.0592  1.2844
    5MOL    C59 1587   1.773   0.392   5.517  0.3938 -0.2596  0.3419
    5MOL    C60 1588   1.626   0.373   5.573  0.2558 -0.4346 -0.8596
    5MOL    C61 1589   1.518   0.462   5.509 -0.3252  0.5615 -0.4927
    5MOL    O62 1590   1.502   0.584   5.547  0.0848  0.1060 -0.6091
    5MOL    N63 1591   1.418   0.400   5.440 -0.1623  0.4816 -0.1066
    5MOL    C64 1592   1.285   0.449   5.408 -0.8028  0.4038  0.1659
    5MOL    C65 1593   1.230   0.353   5.310  0.2302  0.6410 -0.7424
    5MOL    C66 1594   1.206   0.441   5.535  0.0511  0.3962  0.1549
    5MOL    H67 1595   1.832   0.452   5.586  2.4576 -0.7144 -0.9912
    5MOL    H68 1596   1.756   0.449   5.425 -1.9020 -1.5967 -0.1155
    5MOL    H69 1597   1.605   0.268   5.554  3.5501 -1.7422  2.2427
    5MOL    H70 1598   1.426   0.301   5.422 -0.6922  0.0458  1.9559
    5MOL    H71 1599   1.301   0.547   5.364 -2.2434  1.2684  1.5360
    5MOL    H72 1600   1.299   0.328   5.229  1.2635 -1.1015  0.6349
    5MOL    H73 1601   1.206   0.257   5.357  1.5365  0.6921  0.0670
    5MOL    H74 1602   1.135   0.396   5.279 -1.3392 -1.2180  1.3613
    5MOL    H75 1603   1.180   0.342   5.575 -2.0265  1.1646  0.7863
    5MOL    H76 1604   1.256   0.499   5.612 -1.6102  1.4043  0.5133
    5MOL    H77 1605   1.107   0.482   5.513 -0.3115 -0.8005 -0.4757
    5MOL    C78 1606   1.626   0.388   5.731  0.4093 -0.2089 -0.3602
    5MOL    C79 1607   1.491   0.373   5.813  0.2046 -0.7491 -0.3605
    5MOL    C80 1608   1.450   0.225   5.814  0.3269 -0.4810 -0.8899
    5MOL    O81 1609   1.525   0.136   5.846  0.0937 -0.0879 -0.1206
    5MOL    N82 1610   1.317   0.204   5.793  0.6454  0.1117  0.2021
    5MOL    C83 1611   1.248   0.077   5.796 -0.5494 -0.1999 -0.6669
    5MOL    C84 1612   1.101   0.097   5.794 -0.0658  0.6373  0.1481
    5MOL    C85 1613   1.299   7.821   5.683  0.7093  0.2415 -1.2491
    5MOL    H86 1614   1.649   0.492   5.754 -4.9604  0.7437  1.4077
    5MOL    H87 1615   1.688   0.319   5.787 -0.2932 -0.7482 -0.2345
    5MOL    H88 1616   1.413   0.443   5.784  2.0935  0.4213 -2.8142
    5MOL    H89 1617   1.269   0.287   5.762  1.6868  0.6007 -0.1189
    5MOL    H90 1618   1.277   0.029   5.889 -2.0466  0.6338  0.2486
    5MOL    H91 1619   1.042   0.009   5.821  0.6409  1.0410  3.2144
    5MOL    H92 1620   1.096   0.154   5.886  1.8106  0.0323  0.6625
    5MOL    H93 1621   1.059   0.143   5.704 -2.4354 -2.0791 -0.2171
    5MOL    H94 1622   1.407   7.810   5.692  0.1475 -3.0150  2.6078
    5MOL    H95 1623   1.269   0.018   5.584 -0.7054 -0.2171 -0.9857
    5MOL    H96 1624   1.247   7.728   5.707 -0.4070  1.0310 -0.5516
    5MOL    C97 1625   1.516   0.413   5.966 -0.1349  0.2542  0.4514
    5MOL    C98 1626   1.406   0.381   6.075 -0.1918  0.4278 -0.8884
    5MOL    C99 1627   1.267   0.434   6.048 -0.2328  0.0282  0.3638
    5MOL   O100 1628   1.243   0.537   5.981  0.1092 -0.0871 -0.0518
    5MOL   N101 1629   1.168   0.373   6.114  0.7625 -0.3865  0.0833
    5MOL   C102 1630   1.026   0.407   6.138 -0.4602 -0.2115  0.1028
    5MOL   C103 1631   0.938   0.352   6.031  0.8754  0.2154  0.4553
    5MOL   C104 1632   0.984   0.348   6.269 -0.1071  0.0555  0.4316
    5MOL   H105 1633   1.529   0.521   5.954  2.4918  0.1287  1.8394
    5MOL   H106 1634   1.615   0.386   6.002  0.1642  1.6595  0.7069
    5MOL   H107 1635   1.386   0.274   6.072  1.4168  0.0098  1.6064
    5MOL   H108 1636   1.198   0.302   6.179 -2.9866  0.3980  2.8735
    5MOL   H109 1637   1.013   0.515   6.135 -1.0058 -0.2903 -0.4973
    5MOL   H110 1638   0.836   0.387   6.046 -0.1659 -2.1960 -0.6348
    5MOL   H111 1639   0.963   0.374   5.927  1.3575  0.9679  0.7242
    5MOL   H112 1640   0.921   0.244   6.030 -1.8074  0.6077 -2.1199
    5MOL   H113 1641   1.031   0.396   6.356  0.9433 -0.9360  0.4254
    5MOL   H114 1642   1.021   0.246   6.281  0.9038  0.3216 -0.3840
    5MOL   H115 1643   0.876   0.339   6.270 -0.0230 -1.2923 -0.7699
    5MOL   C116 1644   1.453   0.437   6.216  0.1685  0.3244 -0.8920
    5MOL   C117 1645   1.548   0.331   6.288 -0.1679  0.6435 -0.2507
    5MOL   C118 1646   1.469   0.203   6.320 -0.1760 -0.5347  0.3375
    5MOL   O119 1647   1.393   0.204   6.418  0.5790 -0.7055  0.2074
    5MOL   N120 1648   1.495   0.097   6.240 -0.4395  0.2072  0.2948
    5MOL   C121 1649   1.440   7.801   6.260 -0.0932 -0.3599  0.6683
    5MOL   C122 1650   1.287   7.811   6.217  0.5766 -0.5105 -0.1710
    5MOL   C123 1651   1.525   7.700   6.177  0.5564  0.0023  0.5617
    5MOL   H124 1652   1.366   0.467   6.276  0.2540 -1.6526  0.2654
    5MOL   H125 1653   1.502   0.531   6.189  1.0436  0.1592  0.0746
    5MOL   H126 1654   1.632   0.310   6.222 -0.4477  1.4335 -0.8569
    5MOL   H127 1655   1.569   0.114   6.174  0.4830 -2.2596  0.6131
    5MOL   H128 1656   1.449   7.785   6.368 -1.7192  1.6225  1.1093
    5MOL   H129 1657   1.236   7.715   6.228 -3.8447  1.7900  0.6155
    5MOL   H130 1658   1.274   0.013   6.117  1.5329  1.6276  0.4998
    5MOL   H131 1659   1.242   0.045   6.287 -0.5987 -1.5929  0.1924
    5MOL   H132 1660   1.627   7.678   6.208  1.0811  1.1459 -0.3229
    5MOL   H133 1661   1.482   7.601   6.186  0.5790 -0.0874 -0.2835
    5MOL   H134 1662   1.529   7.728   6.072  0.1197 -0.2944  0.4627
    5MOL   C135 1663   1.602   0.400   6.413 -0.7261  0.1673 -0.0582
    5MOL   C136 1664   1.697   0.315   6.506 -0.6606 -0.4359  0.6079
    5MOL   C137 1665   1.809   0.249   6.419 -0.5032 -0.6273 -0.6494
    5MOL   O138 1666   1.878   0.327   6.358  0.4681  0.2183  0.0986
    5MOL   N139 1667   1.821   0.118   6.406 -0.2220  0.3102  0.5116
    5MOL   C140 1668   1.943   0.036   6.381 -0.1395  0.0682  0.4865
    5MOL   C141 1669   1.901   7.748   6.305  0.4587 -0.2321  0.1967
    5MOL   C142 1670   2.021   0.010   6.509  0.9125 -0.2023  0.1787
    5MOL   H143 1671   1.513   0.433   6.467 -1.9303  0.5015 -2.1855
    5MOL   H144 1672   1.661   0.487   6.383 -1.1236  0.4824  0.0722
    5MOL   H145 1673   1.651   0.227   6.551  0.6336 -0.5874  1.6566
    5MOL   H146 1674   1.745   0.069   6.450 -0.5409 -1.6942 -2.1186
    5MOL   H147 1675   2.014   0.095   6.322 -0.0254  1.4644  1.9863
    5MOL   H148 1676   1.844   7.768   6.214 -3.2168 -1.2044  2.1703
    5MOL   H149 1677   1.986   7.688   6.274  0.1317 -0.5092 -0.1719
    5MOL   H150 1678   1.833   7.683   6.361  0.6308 -0.0420  0.6251
    5MOL   H151 1679   1.970   7.779   6.577  2.0440 -2.4240 -1.1187
    5MOL   H152 1680   2.047   0.102   6.562 -1.0475  1.0802 -1.0252
    5MOL   H153 1681   2.121   7.807   6.488  0.9559  0.8685 -1.7905
    5MOL   C154 1682   1.746   0.401   6.623 -0.5606  0.4252 -0.6806
    5MOL   C155 1683   1.875   0.356   6.707  0.3927 -0.1100 -0.0910
    5MOL   C156 1684   1.847   0.234   6.794  0.3764  1.1589  0.6794
    5MOL   O157 1685   1.742   0.224   6.857  0.6040 -0.2540  0.0940
    5MOL   N158 1686   1.953   0.155   6.814  0.0916  0.3384  0.0346
    5MOL   C159 1687   1.957   0.033   6.898  0.1410 -0.1143 -0.4935
    5MOL   C160 1688   1.942   0.069   7.049  0.0842  0.2919 -0.3368
    5MOL   C161 1689   2.084   7.797   6.867 -0.0678  0.2143 -0.2241
    5MOL   H162 1690   1.656   0.419   6.682 -0.9778 -1.5096 -0.7116
    5MOL   H163 1691   1.768   0.501   6.584 -0.2382  0.8417  0.5445
    5MOL   H164 1692   1.947   0.323   6.633 -3.3452 -0.8057 -3.5931
    5MOL   H165 1693   2.029   0.171   6.751 -0.6383  2.0206 -0.4259
    5MOL   H166 1694   1.887   7.793   6.865  0.9723 -1.3532  0.5913
    5MOL   H167 1695   2.021   0.131   7.093 -1.6011  1.4398  1.1527
    5MOL   H168 1696   1.841   0.105   7.068 -0.3128  1.3101 -4.0638
    5MOL   H169 1697   1.933   7.819   7.115  0.7432  2.2429  2.4244
    5MOL   H170 1698   2.170   0.021   6.895 -0.7269  0.9473  0.2518
    5MOL   H171 1699   2.099   7.756   6.767  0.2161  1.9881 -0.9265
    5MOL   H172 1700   2.089   7.711   6.933  2.4451 -1.3865 -2.4313
    5MOL   C173 1701   1.951   0.474   6.771 -0.2814 -0.0725  0.6139
    5MOL   C174 1702   1.870   0.546   6.886 -0.9911  0.9614 -0.4503
    5MOL   C175 1703   1.912   0.502   7.026 -0.2566  0.2589 -0.1121
    5MOL   O176 1704   2.026   0.471   7.064 -0.6886  0.0306  0.2929
    5MOL   N177 1705   1.813   0.512   7.112  0.5717  0.4108 -0.2880
    5MOL   C178 1706   1.811   0.481   7.261 -0.7671  0.7836  0.1634
    5MOL   C179 1707   1.678   0.415   7.316  0.3759 -0.6239 -0.0942
    5MOL   C180 1708   1.831   0.614   7.332  0.0693  0.3752 -0.5149
    5MOL   H181 1709   1.992   0.543   6.696  1.4905 -0.1715  1.4667
    5MOL   H182 1710   2.046   0.441   6.813 -1.0006 -0.0228  2.2903
    5MOL   H183 1711   1.766   0.511   6.885 -0.2919 -1.2258 -0.4272
    5MOL   H184 1712   1.723   0.543   7.080 -0.3974 -0.4177  1.5168
    5MOL   H185 1713   1.892   0.412   7.281  0.2155  1.0787 -2.5583
    5MOL   H186 1714   1.588   0.475   7.302  1.5530  0.6039 -2.8566
    5MOL   H187 1715   1.680   0.400   7.424  0.4873  1.4695  0.2290
    5MOL   H188 1716   1.666   0.319   7.267  0.1723  0.3460 -2.0208
    5MOL   H189 1717   1.869   0.606   7.434  1.0464 -1.5506 -1.0133
    5MOL   H190 1718   1.740   0.674   7.328 -0.3495 -0.1074  1.3623
    5MOL   H191 1719   1.910   0.674   7.287  0.8196 -0.5061 -0.3731
    5MOL   C192 1720   1.880   0.697   6.879  0.3905 -0.1118  0.1981
    5MOL   C193 1721   1.769   0.787   6.943  0.0979  0.2457 -0.1407
    5MOL   C194 1722   1.628   0.756   6.889 -0.8032  0.0595 -0.0981
    5MOL   O195 1723   1.570   0.674   6.958  0.4317  0.2530  0.4202
    5MOL   N196 1724   1.586   0.815   6.778 -0.3554  0.3203 -0.4424
    5MOL   C197 1725   1.453   0.799   6.725 -0.4501 -0.3816 -0.4718
    5MOL   C198 1726   1.396   0.942   6.705  0.0797  0.0486 -0.3883
    5MOL   C199 1727   1.462   0.721   6.595  0.0640 -0.1004 -0.1594
    5MOL   H200 1728   1.914   0.728   6.780  0.5467 -0.4278  0.1516
    5MOL   H201 1729   1.971   0.719   6.934  0.6484 -0.4288 -0.1010
    5MOL   H202 1730   1.767   0.764   7.050 -1.6385  2.3107  0.2980
    5MOL   H203 1731   1.655   0.882   6.747  2.0342 -0.6011  2.6343
    5MOL   H204 1732   1.380   0.750   6.789 -1.2998  3.2456  1.5004
    5MOL   H205 1733   1.405   0.990   6.803  1.3040 -0.8368 -0.0646
    5MOL   H206 1734   1.293   0.944   6.669  0.5177 -0.3622 -1.6834
    5MOL   H207 1735   1.458   1.010   6.646  1.1060 -2.2991 -2.0868
    5MOL   H208 1736   1.534   0.763   6.526  0.9234 -0.5365  0.4667
    5MOL   H209 1737   1.369   0.706   6.540  0.5185 -1.9712 -0.4506
    5MOL   H210 1738   1.491   0.620   6.622 -0.7272 -0.5473 -0.9415
    5MOL   C211 1739   1.805   0.939   6.935  0.4450 -0.1405 -1.0572
    5MOL   C212 1740   1.745   1.014   7.057  0.4439 -0.1150 -0.6683
    5MOL   C213 1741   1.850   1.026   7.167 -0.2033  0.1878 -0.6725
    5MOL   O214 1742   1.966   1.065   7.144  0.0113  0.8102  0.3486
    5MOL   N215 1743   1.809   1.007   7.295 -0.7794 -0.1389 -0.8558
    5MOL   C216 1744   1.902   1.010   7.411 -0.7771 -0.2269 -0.0227
    5MOL   C217 1745   1.829   0.945   7.531  0.2860 -0.9561 -0.6871
    5MOL   C218 1746   1.939   1.152   7.438  0.2673 -0.4166 -0.2189
    5MOL   H219 1747   1.778   0.984   6.840  0.2306 -1.4446 -1.6336
    5MOL   H220 1748   1.914   0.946   6.932  0.5785  0.4391  2.6289
    5MOL   H221 1749   1.667   0.952   7.100 -0.5951 -0.1629 -2.5626
    5MOL   H222 1750   1.715   1.004   7.331 -0.5921 -1.8660 -0.4577
    5MOL   H223 1751   1.993   0.961   7.378 -1.0278  0.4245 -1.7285
    5MOL   H224 1752   1.887   0.938   7.623 -0.3927 -2.5973 -0.3616
    5MOL   H225 1753   1.738   0.998   7.557  0.9558 -0.2085  0.1398
    5MOL   H226 1754   1.795   0.844   7.507 -0.8480 -0.7386 -0.0223
    5MOL   H227 1755   2.001   1.191   7.357 -0.0757  1.2088  0.2935
    5MOL   H228 1756   2.007   1.152   7.524  0.5823 -1.5824 -0.4563
    5MOL   H229 1757   1.868   1.227   7.473  0.1969  0.2824 -1.8028
    5MOL   C230 1758   1.665   1.142   7.028 -0.0768 -0.7785 -0.0045
    5MOL   C231 1759   1.745   1.274   7.009 -0.0871  0.6351 -0.1221
    5MOL   C232 1760   1.826   1.267   6.876 -0.3216 -0.3854  0.5050
    5MOL   O233 1761   1.764   1.279   6.767 -0.2700 -0.0679 -0.2211
    5MOL   N234 1762   1.951   1.243   6.882 -0.1826 -0.8124 -0.0353
    5MOL   C235 1763   2.048   1.218   6.772 -0.2178  0.2340 -0.0353
    5MOL   C236 1764   2.094   1.347   6.716 -0.3750  0.3630  0.4283
    5MOL   C237 1765   2.167   1.131   6.823  0.3112  0.6498  0.0373
    5MOL   H238 1766   1.597   1.149   7.113 -0.0404  0.9706 -0.0866
    5MOL   H239 1767   1.599   1.118   6.945 -0.4423 -1.3556  0.4522
    5MOL   H240 1768   1.824   1.280   7.085 -2.0159 -0.1827  1.9844
    5MOL   H241 1769   1.983   1.224   6.976  0.9350 -1.9616 -0.6203
    5MOL   H242 1770   1.991   1.167   6.694 -0.6643 -0.7482  0.9226
    5MOL   H243 1771   2.024   1.396   6.648  0.4896 -0.5416 -1.1556
    5MOL   H244 1772   2.104   1.420   6.795  2.9749  0.8417 -0.3724
    5MOL   H245 1773   2.191   1.332   6.669  0.0204 -0.5792  1.5184
    5MOL   H246 1774   2.128   1.039   6.869  1.7672  0.3942  0.7745
    5MOL   H247 1775   2.227   1.167   6.907 -0.9181  0.5170  0.9953
    5MOL   H248 1776   2.225   1.094   6.739 -0.0893  2.3296 -1.0026
    5MOL   C249 1777   1.663   1.402   7.018  0.5465 -0.5324 -0.2483
    5MOL   C250 1778   1.735   1.538   7.053 -0.0210  0.7146  0.3849
    5MOL   C251 1779   1.765   1.546   7.202  0.0243 -0.7847  0.4366
    5MOL   O252 1780   1.876   1.547   7.238 -0.3619 -0.2944  0.2379
    5MOL   N253 1781   1.668   1.545   7.293 -0.5152  0.1901  0.3339
    5MOL   C254 1782   1.691   1.546   7.437  0.6434 -0.2368 -0.3258
    5MOL   C255 1783   1.709   1.688   7.500  0.8216 -0.0673  0.1754
    5MOL   C256 1784   1.569   1.477   7.512 -0.2511 -0.3197  0.2354
    5MOL   H257 1785   1.573   1.380   7.075  0.5883 -1.2957 -0.4733
    5MOL   H258 1786   1.614   1.420   6.922 -1.3184  0.2471  0.8076
    5MOL   H259 1787   1.830   1.542   7.000  0.5271 -0.3585  1.2655
    5MOL   H260 1788   1.580   1.517   7.253  0.4589 -1.0738 -0.9759
    5MOL   H261 1789   1.776   1.485   7.468  0.7800 -0.7647 -1.7153
    5MOL   H262 1790   1.804   1.735   7.474  0.2292  1.2944  0.4399
    5MOL   H263 1791   1.629   1.760   7.482  0.6864  0.5622  3.1381
    5MOL   H264 1792   1.709   1.682   7.608  0.5673 -0.4718  0.1529
    5MOL   H265 1793   1.551   1.373   7.485 -1.1657  0.3722 -1.9672
    5MOL   H266 1794   1.577   1.479   7.621  2.0947 -0.7878  0.0886
    5MOL   H267 1795   1.482   1.531   7.475  1.7187  1.9413 -1.2378
    5MOL   C268 1796   1.661   1.661   7.003 -0.0640 -0.1098 -0.5437
    5MOL   C269 1797   1.719   1.803   7.039 -0.1871 -0.1098 -0.1400
    5MOL   C270 1798   1.863   1.835   6.992  0.1042 -0.0089  0.6493
    5MOL   O271 1799   1.895   1.878   6.882 -0.0223 -0.0008  0.1035
    5MOL   N272 1800   1.957   1.812   7.085 -0.3325 -0.7725 -0.4408
    5MOL   C273 1801   2.099   1.819   7.070 -0.5524 -0.4791  0.4146
    5MOL   C274 1802   2.156   1.831   7.211  0.2019 -0.8463 -0.7327
    5MOL   C275 1803   2.145   1.691   6.996  0.4426 -0.6031 -0.6632
    5MOL   H276 1804   1.664   1.652   6.895 -1.2240  1.3633 -0.7189
    5MOL   H277 1805   1.562   1.659   7.048  1.0003 -0.1299  1.8901
    5MOL   H278 1806   1.715   1.815   7.147  0.5271  0.0318 -0.1266
    5MOL   H279 1807   1.921   1.787   7.177  0.7066  0.4611  0.3223
    5MOL   H280 1808   2.129   1.908   7.015 -1.9000  0.4091  1.0678
    5MOL   H281 1809   2.265   1.826   7.211  0.1829 -1.3314 -1.7055
    5MOL   H282 1810   2.136   1.935   7.238  2.0566 -0.9034  0.9464
    5MOL   H283 1811   2.114   1.757   7.278  1.4387 -0.2243  0.7608
    5MOL   H284 1812   2.243   1.659   7.031  0.7210 -0.7679 -1.5760
    5MOL   H285 1813   2.077   1.606   6.998  0.5101 -0.6585 -0.7253
    5MOL   H286 1814   2.155   1.713   6.890 -1.5770 -0.5156 -0.8667
    5MOL   C287 1815   1.623   1.917   6.990 -0.0502 -0.7977 -0.2095
    5MOL   C288 1816   1.669   2.063   7.015 -0.2683 -0.1133  0.1498
    5MOL   C289 1817   1.654   2.095   7.164 -0.4405 -0.0268 -0.2289
    5MOL   O290 1818   1.547   2.105   7.223  0.8017 -0.0364  0.4452
    5MOL   N291 1819   1.775   2.109   7.219 -0.2370 -0.1887  0.9402
    5MOL   C292 1820   1.802   2.126   7.359 -0.2320  0.4408 -0.2679
    5MOL   C293 1821   1.934   2.056   7.398 -0.5189 -0.5876 -0.9537
    5MOL   C294 1822   1.825   2.276   7.384 -0.3161 -0.0964  0.1066
    5MOL   H295 1823   1.612   1.901   6.883 -0.9456  0.0422 -0.2488
    5MOL   H296 1824   1.523   1.906   7.031  0.9197 -0.9684  2.1733
    5MOL   H297 1825   1.771   2.077   6.979  0.8727 -3.0835  2.0496
    5MOL   H298 1826   1.859   2.089   7.167 -1.3910 -1.9555 -0.3155
    5MOL   H299 1827   1.727   2.085   7.428 -0.8970 -0.7460 -1.6821
    5MOL   H300 1828   1.938   2.038   7.505  1.2857  2.1448 -0.4903
    5MOL   H301 1829   1.931   1.961   7.345 -0.9742 -0.5144 -1.0644
    5MOL   H302 1830   2.016   2.120   7.364 -2.0718  1.4032 -1.0992
    5MOL   H303 1831   1.902   2.313   7.316  1.2302 -1.8878  0.8372
    5MOL   H304 1832   1.734   2.332   7.363 -0.7879 -0.8743  0.0549
    5MOL   H305 1833   1.862   2.305   7.482  0.2398  1.4579 -0.5539
    5MOL   C306 1834   1.582   2.151   6.926  0.3094  0.1686  0.0206
    5MOL   C307 1835   1.596   2.304   6.940  0.6376 -0.6252 -0.1931
    5MOL   C308 1836   1.490   2.382   6.866 -0.4540  0.5029 -0.7088
    5MOL   O309 1837   1.433   2.480   6.915 -0.0553  0.9980 -0.0414
    5MOL   N310 1838   1.462   2.338   6.750  0.5551 -0.1551  0.4791
    5MOL   C311 1839   1.363   2.409   6.665  0.0133 -0.1101 -0.5248
    5MOL   C312 1840   1.400   2.406   6.512 -0.4553 -0.4121 -0.2589
    5MOL   C313 1841   1.217   2.371   6.674  0.3690 -0.4164 -0.4544
    5MOL   H314 1842   1.599   2.126   6.821 -2.5107  0.6979 -0.6162
    5MOL   H315 1843   1.476   2.126   6.938 -0.0890  1.2608 -1.1031
    5MOL   H316 1844   1.579   2.337   7.043  2.1078 -1.4434  0.3247
    5MOL   H317 1845   1.514   2.261   6.711  1.7206  0.5434  0.6356
    5MOL   H318 1846   1.370   2.514   6.693  1.5886 -1.3504  3.9857
    5MOL   H319 1847   1.508   2.413   6.499 -0.1498 -1.3849  1.6244
    5MOL   H320 1848   1.349   2.488   6.462 -1.4058 -1.6517 -1.3647
    5MOL   H321 1849   1.372   2.307   6.474  2.1432 -0.6689 -1.5711
    5MOL   H322 1850   1.179   2.369   6.777 -1.6335 -2.2378 -1.1828
    5MOL   H323 1851   1.195   2.275   6.629  0.6817  0.1915 -1.9377
    5MOL   H324 1852   1.156   2.442   6.617  2.1802  0.6032 -1.1606
    5MOL   C325 1853   1.735   2.363   6.927  0.0691 -0.0009 -0.0972
    5MOL   C326 1854   1.791   2.472   7.024  0.6770  0.0958  0.2177
    5MOL   C327 1855   1.949   2.472   7.018 -0.6423 -0.1691 -0.2885
    5MOL   O328 1856   2.007   2.514   6.919  0.0861  0.3578 -0.1620
    5MOL   N329 1857   2.012   2.439   7.136 -0.1118 -0.2092 -0.8134
    5MOL   C330 1858   2.156   2.461   7.153 -0.0062  0.4031  0.2546
    5MOL   C331 1859   2.207   2.332   7.231 -0.0074  0.1620  0.0923
    5MOL   C332 1860   2.173   2.586   7.232 -0.5941 -0.2711  0.8361
    5MOL   H333 1861   1.741   2.423   6.836 -1.9486 -1.3211 -1.1681
    5MOL   H334 1862   1.813   2.288   6.911 -1.1734 -0.7725 -2.9342
    5MOL   H335 1863   1.755   2.457   7.126  0.1278  0.9790  0.1675
    5MOL   H336 1864   1.952   2.430   7.217 -0.7088 -0.5055 -1.2837
    5MOL   H337 1865   2.207   2.469   7.057  3.0487 -1.1518  1.6663
    5MOL   H338 1866   2.187   2.244   7.170  1.6126 -0.5040  0.5038
    5MOL   H339 1867   2.312   2.343   7.257 -0.0032 -0.8566  0.5389
    5MOL   H340 1868   2.147   2.330   7.322 -0.1475 -1.4559 -0.0149
    5MOL   H341 1869   2.272   2.592   7.277 -0.6564 -2.0173  1.2587
    5MOL   H342 1870   2.116   2.581   7.325 -2.8311 -1.6214 -0.5560
    5MOL   H343 1871   2.149   2.675   7.174  0.8265  0.4293  1.3023
    5MOL   C344 1872   1.732   2.609   6.996  0.9341 -0.0414 -0.3697
    5MOL   C345 1873   1.774   2.719   7.102  0.3050  0.4109 -0.2199
    5MOL   C346 1874   1.814   2.857   7.049 -0.6822  0.3838  1.3534
    5MOL   O347 1875   1.739   2.920   6.970 -0.0808  0.5777  0.2373
    5MOL   N348 1876   1.935   2.902   7.083  0.1224  0.1333  0.1059
    5MOL   C349 1877   2.005   3.018   7.029 -0.0730  0.5223 -0.7533
    5MOL   C350 1878   2.018   3.122   7.134  0.3703  0.6070  0.2586
    5MOL   C351 1879   2.129   2.988   6.942 -0.2476  0.1780 -0.2250
    5MOL   H352 1880   1.623   2.615   7.004  0.9131 -0.3359 -0.4225
    5MOL   H353 1881   1.755   2.642   6.895 -0.3311  1.8711 -0.0573
    5MOL   H354 1882   1.866   2.691   7.153  0.4750 -0.2622 -0.8800
    5MOL   H355 1883   1.996   2.847   7.142 -0.5025  0.1398  0.7676
    5MOL   H356 1884   1.941   3.069   6.956 -0.3828  1.1230 -0.0747
    5MOL   H357 1885   2.057   3.208   7.080  1.3416  1.1203  1.7308
    5MOL   H358 1886   1.923   3.147   7.184 -1.4007 -0.8036 -2.2949
    5MOL   H359 1887   2.090   3.095   7.211  0.1380 -0.7852 -0.0050
    5MOL   H360 1888   2.221   2.979   6.999 -1.5848  1.9854  2.3022
    5MOL   H361 1889   2.110   2.892   6.895  1.0859  0.5669 -1.6089
    5MOL   H362 1890   2.142   3.056   6.858  0.5514  0.2941 -0.0030
    5MOL   C363 1891   1.672   2.748   7.212  0.1622 -0.3349 -0.4607
    5MOL   C364 1892   1.671   2.649   7.330 -0.1578 -0.1873  0.0731
    5MOL   C365 1893   1.782   2.645   7.439 -0.6331 -0.0500  0.3553
    5MOL   O366 1894   1.892   2.695   7.426  0.2947 -0.5479  0.2969
    5MOL   N367 1895   1.743   2.583   7.554  0.7628 -0.1047 -0.6600
    5MOL   C368 1896   1.826   2.561   7.673  0.0705 -0.1502  0.5445
    5MOL   C369 1897   1.818   2.682   7.771  0.6543 -0.5064  0.0503
    5MOL   C370 1898   1.778   2.432   7.741  0.2927  0.3761  0.9000
    5MOL   H371 1899   1.575   2.745   7.164 -0.4619  2.8590  0.4847
    5MOL   H372 1900   1.689   2.843   7.262  0.3435 -2.4170  3.7391
    5MOL   H373 1901   1.642   2.548   7.302 -0.0403 -0.5017  1.0748
    5MOL   H374 1902   1.660   2.526   7.549  1.2614 -0.8782 -0.0758
    5MOL   H375 1903   1.929   2.546   7.640 -0.4689 -0.9165 -0.8687
    5MOL   H376 1904   1.882   2.767   7.751 -1.5991  1.6379  1.6457
    5MOL   H377 1905   1.714   2.709   7.792  0.9242  2.2424 -1.9366
    5MOL   H378 1906   1.860   2.645   0.028  0.2372 -1.1461 -0.0134
    5MOL   H379 1907   1.680   2.450   7.786 -1.2867  0.0717 -2.2871
    5MOL   H380 1908   1.759   2.349   7.673  1.0238  0.3969  0.6619
    5MOL   H381 1909   1.850   2.391   7.812 -0.5560 -0.1248  1.4793
    5MOL   H382 1910   1.596   2.685   7.401  0.7876 -1.4138  1.7374
    6MOL     C1 1911   6.236   2.784   0.699 -0.0484 -0.7326  0.2197
    6MOL     C2 1912   6.336   2.674   0.726 -0.3507  0.9220  0.2396
    6MOL     C3 1913   6.456   2.670   0.634 -0.7348  0.7530  0.0808
    6MOL     O4 1914   6.549   2.745   0.663  0.0660 -0.6047 -0.6335
    6MOL     N5 1915   6.465   2.579   0.532 -0.6285  0.1583  0.3543
    6MOL     C6 1916   6.576   2.571   0.440  0.0453 -0.0125 -0.5148
    6MOL     C7 1917   6.677   2.463   0.481 -0.2134  0.0234  0.4046
    6MOL     C8 1918   6.531   2.550   0.297 -0.2669  0.1054  0.5106
    6MOL     H9 1919   6.139   2.754   0.738 -0.9755  2.0664  0.1978
    6MOL    H10 1920   6.220   2.800   0.592 -1.5321 -2.6424  0.1395
    6MOL    H11 1921   6.281   2.584   0.699 -0.2916  0.3523  1.9677
    6MOL    H12 1922   6.388   2.517   0.509 -0.1645  0.5773 -2.4814
    6MOL    H13 1923   6.621   2.670   0.446  0.8832 -0.4568  0.6410
    6MOL    H14 1924   6.757   2.449   0.409 -0.8959  1.6017 -0.6802
    6MOL    H15 1925   6.632   2.363   0.482  2.7952 -1.3859  0.2906
    6MOL    H16 1926   6.703   2.477   0.586 -1.8779  0.9491  0.7179
    6MOL    H17 1927   6.481   2.640   0.261 -0.9680  0.4946  2.3683
    6MOL    H18 1928   6.612   2.522   0.230 -0.2348  1.1281  0.1196
    6MOL    H19 1929   6.473   2.458   0.288 -0.5124 -0.0937  3.6222
    6MOL    H20 1930   6.271   2.876   0.746  3.4045 -2.0635  0.4395
    6MOL    C21 1931   6.371   2.658   0.879 -0.8951  0.3453  0.2087
    6MOL    C22 1932   6.445   2.527   0.921 -0.0486  0.0631 -0.8533
    6MOL    C23 1933   6.372   2.396   0.892  0.1009  0.1962 -0.0006
    6MOL    O24 1934   6.255   2.381   0.930 -0.3909 -0.7081  0.6004
    6MOL    N25 1935   6.443   2.310   0.819  0.7747  0.0115 -0.2129
    6MOL    C26 1936   6.374   2.195   0.755 -0.5114 -0.3872 -0.7473
    6MOL    C27 1937   6.462   2.076   0.795 -0.3960  0.4644  0.3712
    6MOL    C28 1938   6.369   2.215   0.598 -0.4597 -0.9134 -0.0301
    6MOL    H29 1939   6.283   2.664   0.943 -1.2663 -1.6308 -0.0785
    6MOL    H30 1940   6.436   2.741   0.908 -0.0725 -0.4421  0.6579
    6MOL    H31 1941   6.534   2.524   0.857  0.2672  0.2690 -0.4265
    6MOL    H32 1942   6.542   2.328   0.806  0.9279  1.9566  3.1212
    6MOL    H33 1943   6.272   2.180   0.789 -0.4257  1.9314  0.6075
    6MOL    H34 1944   6.560   2.095   0.751  0.0543  0.4033  1.3543
    6MOL    H35 1945   6.421   1.985   0.751  1.9307  0.6629 -2.3131
    6MOL    H36 1946   6.470   2.064   0.903 -1.3263  4.5605  1.0051
    6MOL    H37 1947   6.469   2.198   0.558  0.1873 -1.4380  1.7520
    6MOL    H38 1948   6.304   2.148   0.543 -1.9074 -0.0181  0.5651
    6MOL    H39 1949   6.324   2.312   0.578 -1.5536 -0.9913  1.9635
    6MOL    C40 1950   6.502   2.533   1.070  0.4353  0.2936  0.4009
    6MOL    C41 1951   6.413   2.514   1.198  0.2961 -0.1117  0.3618
    6MOL    C42 1952   6.323   2.634   1.224 -0.2168  0.1764  1.0504
    6MOL    O43 1953   6.370   2.733   1.275 -0.3043  0.7113  0.0793
    6MOL    N44 1954   6.191   2.610   1.207  0.2756 -0.3584  0.0545
    6MOL    C45 1955   6.083   2.696   1.241  0.2947 -0.7618 -0.6693
    6MOL    C46 1956   6.033   2.777   1.122  0.4769  0.5477  1.2658
    6MOL    C47 1957   5.973   2.614   1.301  0.4941  0.5907 -0.6711
    6MOL    H48 1958   6.554   2.627   1.087  1.4540 -0.5255  1.9284
    6MOL    H49 1959   6.580   2.457   1.074  0.5339  0.3719 -0.0414
    6MOL    H50 1960   6.350   2.427   1.181 -0.8036  0.0748  3.1759
    6MOL    H51 1961   6.172   2.512   1.195 -1.7939 -0.0187  0.2611
    6MOL    H52 1962   6.113   2.764   1.321 -2.0949 -0.8994  0.3766
    6MOL    H53 1963   6.001   2.718   1.036  2.2766 -1.8146  2.2021
    6MOL    H54 1964   6.118   2.839   1.093  0.9396 -0.0547  1.3308
    6MOL    H55 1965   5.955   2.847   1.153 -0.7021 -1.0293  1.8882
    6MOL    H56 1966   5.889   2.671   1.341  1.0103  0.6368  0.3574
    6MOL    H57 1967   6.017   2.562   1.386  2.2044  1.0869 -1.2273
    6MOL    H58 1968   5.937   2.537   1.232  1.1607 -0.5595  0.2523
    6MOL    C59 1969   6.504   2.494   1.327 -0.1222 -0.3045  0.1887
    6MOL    C60 1970   6.433   2.484   1.462  0.3660  0.4072  0.1256
    6MOL    C61 1971   6.496   2.571   1.566  0.3808  0.1304  0.6460
    6MOL    O62 1972   6.562   2.531   1.663  0.4097 -0.2234 -0.2938
    6MOL    N63 1973   6.484   2.700   1.539 -0.0699 -0.4235 -0.0179
    6MOL    C64 1974   6.529   2.813   1.617 -0.4012 -0.0981  0.1660
    6MOL    C65 1975   6.612   2.911   1.532  0.4219  0.1899 -0.7763
    6MOL    C66 1976   6.417   2.892   1.689  0.2685 -0.0789 -0.3554
    6MOL    H67 1977   6.567   2.409   1.299 -0.5774 -1.0562  1.3839
    6MOL    H68 1978   6.562   2.586   1.331 -0.6778  0.2192 -2.7170
    6MOL    H69 1979   6.332   2.525   1.453  0.7337  1.5144  0.8526
    6MOL    H70 1980   6.447   2.710   1.445 -0.8628  1.2265  0.4464
    6MOL    H71 1981   6.592   2.769   1.695  0.5092  2.7333  1.1099
    6MOL    H72 1982   6.569   2.961   1.445 -1.9740  1.0656  0.8484
    6MOL    H73 1983   6.671   2.984   1.588  0.3697  1.0320 -1.7904
    6MOL    H74 1984   6.689   2.848   1.490  0.3887 -0.2524 -0.1864
    6MOL    H75 1985   6.333   2.927   1.629  0.9928 -1.8545 -2.4381
    6MOL    H76 1986   6.373   2.829   1.767  0.4843  0.2414  0.0273
    6MOL    H77 1987   6.453   2.984   1.736  1.5606 -1.3712  1.2786
    6MOL    C78 1988   6.411   2.331   1.500 -0.4558 -0.2179  0.5204
    6MOL    C79 1989   6.327   2.299   1.624  1.2405 -0.2019 -0.5488
    6MOL    C80 1990   6.197   2.386   1.623 -0.6664 -0.0445  0.5979
    6MOL    O81 1991   6.123   2.383   1.525 -0.2340 -0.3389  0.1754
    6MOL    N82 1992   6.177   2.465   1.729  0.1235  0.2925 -0.6894
    6MOL    C83 1993   6.068   2.550   1.754 -0.3275 -0.4991  0.5696
    6MOL    C84 1994   5.951   2.467   1.815 -0.7815 -0.2288  0.3449
    6MOL    C85 1995   6.115   2.665   1.847  0.0754  0.1580  0.7239
    6MOL    H86 1996   6.509   2.287   1.518 -0.5476 -1.3841 -1.7513
    6MOL    H87 1997   6.381   2.281   1.409 -1.2569 -1.4600  1.4487
    6MOL    H88 1998   6.390   2.330   1.708  0.2870 -0.5306  0.3042
    6MOL    H89 1999   6.239   2.443   1.806  1.4454  3.8617 -0.6653
    6MOL    H90 2000   6.043   2.597   1.659  1.1955 -2.2027 -0.7138
    6MOL    H91 2001   5.965   2.425   1.915 -3.0441 -3.9558 -0.8388
    6MOL    H92 2002   5.856   2.518   1.824  0.0268  1.4771 -0.4830
    6MOL    H93 2003   5.928   2.380   1.754  0.9395  1.0951 -2.2773
    6MOL    H94 2004   6.043   2.746   1.863 -1.5664 -1.2097  0.4562
    6MOL    H95 2005   6.193   2.719   1.793  1.9561 -0.4248  2.8052
    6MOL    H96 2006   6.146   2.643   1.949  0.7522 -0.9159  0.2912
    6MOL    C97 2007   6.299   2.145   1.620 -0.3014  0.6562  0.3523
    6MOL    C98 2008   6.194   2.080   1.724 -0.0324  0.4445  0.4757
    6MOL    C99 2009   6.242   2.065   1.867  0.5088  0.2626  0.4594
    6MOL   O100 2010   6.354   2.094   1.908 -0.2370 -0.2930 -0.2866
    6MOL   N101 2011   6.141   2.023   1.945 -0.4747  0.0280  0.0978
    6MOL   C102 2012   6.149   2.010   2.090 -0.7008  0.4744  0.7464
    6MOL   C103 2013   6.017   2.047   2.160  0.1748  0.0900  0.2370
    6MOL   C104 2014   6.186   1.869   2.134 -0.4749  0.0874 -0.5133
    6MOL   H105 2015   6.400   2.106   1.631 -0.5955 -0.1718  0.1420
    6MOL   H106 2016   6.259   2.125   1.520  1.7292  1.5443 -0.6572
    6MOL   H107 2017   6.107   2.146   1.720  0.2482  0.8000  0.2883
    6MOL   H108 2018   6.056   1.996   1.899 -0.5740  2.5743 -1.3124
    6MOL   H109 2019   6.220   2.082   2.131 -0.0236  1.0300 -1.3326
    6MOL   H110 2020   6.008   2.156   2.152  0.4940  0.0862 -0.2542
    6MOL   H111 2021   5.939   2.020   2.089  0.9512 -0.8917 -0.2527
    6MOL   H112 2022   5.988   1.998   2.252 -2.1273  0.1214 -0.4321
    6MOL   H113 2023   6.183   1.851   2.241 -0.3991  0.0276 -0.5206
    6MOL   H114 2024   6.286   1.844   2.099 -1.0504 -3.8705  0.3806
    6MOL   H115 2025   6.119   1.792   2.095  1.2231 -3.0616  2.5414
    6MOL   C116 2026   6.148   1.951   1.655  0.1061  0.3644  0.1466
    6MOL   C117 2027   6.000   1.947   1.605  0.3143 -0.4924  0.3450
    6MOL   C118 2028   5.898   1.939   1.723 -0.4103  0.1691 -0.0957
    6MOL   O119 2029   5.924   1.869   1.823 -0.3751 -0.5444 -0.3127
    6MOL   N120 2030   5.788   2.013   1.712 -0.0628 -0.2067  0.3116
    6MOL   C121 2031   5.700   2.048   1.821  0.5436  0.3875  0.1309
    6MOL   C122 2032   5.767   2.155   1.905 -0.5245  0.2393 -0.6509
    6MOL   C123 2033   5.561   2.078   1.764 -0.0620 -0.7595 -0.1979
    6MOL   H124 2034   6.167   1.866   1.722 -1.5088  0.7756  1.1508
    6MOL   H125 2035   6.214   1.924   1.572  0.0362 -1.9286  0.7853
    6MOL   H126 2036   5.977   2.032   1.542  0.5925 -2.1583 -2.0470
    6MOL   H127 2037   5.783   2.065   1.625  2.2268 -0.8583 -0.2535
    6MOL   H128 2038   5.682   1.963   1.887  1.7428  2.0177  2.6520
    6MOL   H129 2039   5.871   2.129   1.928  0.5089  2.5020 -2.5345
    6MOL   H130 2040   5.720   2.167   2.002  0.4172 -0.7912 -0.0664
    6MOL   H131 2041   5.767   2.255   1.860  2.6484  0.5103 -0.1890
    6MOL   H132 2042   5.496   2.098   1.850 -0.6963  0.7184 -1.0050
    6MOL   H133 2043   5.556   2.171   1.708  2.6441  0.3883  1.3940
    6MOL   H134 2044   5.507   1.995   1.718 -0.4880 -0.6019  0.0057
    6MOL   C135 2045   5.981   1.814   1.515 -0.3187  0.1673  0.5313
    6MOL   C136 2046   5.842   1.785   1.464  0.0234  0.6900 -0.0868
    6MOL   C137 2047   5.785   1.897   1.377  0.3915  0.2453  0.8365
    6MOL   O138 2048   5.846   1.928   1.281  0.0425 -0.3478 -0.0205
    6MOL   N139 2049   5.674   1.960   1.410  1.0469 -0.2063 -0.1716
    6MOL   C140 2050   5.625   2.091   1.364 -0.2855 -0.1841  0.8194
    6MOL   C141 2051   5.700   2.219   1.415  0.2543 -0.5493 -0.1447
    6MOL   C142 2052   5.476   2.090   1.390  0.7516  0.0170  0.7482
    6MOL   H143 2053   6.036   1.725   1.543 -0.4793  0.4519  1.7607
    6MOL   H144 2054   6.046   1.841   1.432  0.1224 -1.2631  0.3999
    6MOL   H145 2055   5.767   1.782   1.543 -1.0866  2.2589 -1.0440
    6MOL   H146 2056   5.621   1.925   1.489 -0.1801  0.9569 -0.4524
    6MOL   H147 2057   5.644   2.086   1.257 -2.3559  0.0305  0.4146
    6MOL   H148 2058   5.688   2.247   1.519 -0.7533 -1.1491 -0.0956
    6MOL   H149 2059   5.808   2.214   1.400  0.2746  3.0507 -1.6213
    6MOL   H150 2060   5.662   2.304   1.358 -2.7010 -0.5980  1.6724
    6MOL   H151 2061   5.442   1.998   1.343  0.7317  0.2628  0.2829
    6MOL   H152 2062   5.416   2.174   1.355 -1.4708 -2.1326 -0.7338
    6MOL   H153 2063   5.452   2.074   1.496  1.6663  2.9095  1.4421
    6MOL   C154 2064   5.842   1.640   1.388 -0.6199 -0.5358 -0.5822
    6MOL   C155 2065   5.727   1.549   1.433  0.8299  0.4091  0.4307
    6MOL   C156 2066   5.601   1.608   1.377 -0.1486  0.5612 -0.1239
    6MOL   O157 2067   5.547   1.693   1.443  0.3819  0.6188  0.0028
    6MOL   N158 2068   5.570   1.577   1.251  0.0347 -0.2011  0.5667
    6MOL   C159 2069   5.465   1.635   1.170  0.2543 -0.6006  0.5545
    6MOL   C160 2070   5.387   1.522   1.104 -0.2556  0.1786 -0.2912
    6MOL   C161 2071   5.516   1.743   1.072  0.3580  0.2493  0.3816
    6MOL   H162 2072   5.938   1.591   1.408 -1.3114 -1.3965  0.6267
    6MOL   H163 2073   5.839   1.655   1.280 -1.3141  1.7546 -0.2855
    6MOL   H164 2074   5.726   1.453   1.382  1.0285  0.8475 -0.4100
    6MOL   H165 2075   5.630   1.506   1.212 -0.0205  0.4774 -0.7928
    6MOL   H166 2076   5.405   1.695   1.239  2.2104  3.2686 -0.9359
    6MOL   H167 2077   5.436   1.481   1.016 -0.5785 -0.3043 -0.2490
    6MOL   H168 2078   5.367   1.440   1.174  1.9822 -0.2251 -0.0982
    6MOL   H169 2079   5.293   1.566   1.070 -0.7031  0.4849  1.2983
    6MOL   H170 2080   5.575   1.693   0.995 -1.1524  0.5550 -0.9949
    6MOL   H171 2081   5.564   1.828   1.118  2.2081  0.2380 -1.4800
    6MOL   H172 2082   5.428   1.783   1.022 -1.3356 -1.7787  1.6518
    6MOL   C173 2083   5.732   1.504   1.582  0.4757  0.3667 -0.2886
    6MOL   C174 2084   5.608   1.432   1.650  0.2241  0.9582  0.0844
    6MOL   C175 2085   5.589   1.288   1.604  0.0646 -0.2695  0.4201
    6MOL   O176 2086   5.685   1.213   1.582 -0.4131  0.6277 -0.2078
    6MOL   N177 2087   5.462   1.247   1.588  0.3188  0.0351 -0.1104
    6MOL   C178 2088   5.415   1.112   1.569  0.0366  0.2585  0.2588
    6MOL   C179 2089   5.275   1.114   1.503 -0.9049  0.1657  0.3599
    6MOL   C180 2090   5.421   1.040   1.709  0.8514 -0.0521  0.1021
    6MOL   H181 2091   5.750   1.594   1.640 -0.0837  0.0502  0.3952
    6MOL   H182 2092   5.817   1.441   1.610 -0.8244  0.1215  3.4732
    6MOL   H183 2093   5.522   1.494   1.624 -0.9980 -0.9095 -0.5002
    6MOL   H184 2094   5.390   1.318   1.586  0.9441  0.6816  0.1313
    6MOL   H185 2095   5.485   1.056   1.507 -0.6720  0.5334 -0.7974
    6MOL   H186 2096   5.249   1.012   1.475  0.3158  0.0009 -0.2511
    6MOL   H187 2097   5.275   1.173   1.412 -1.6082 -0.6392 -0.1690
    6MOL   H188 2098   5.201   1.145   1.577  0.6181  2.1259  1.1094
    6MOL   H189 2099   5.522   1.027   1.746  1.1511 -0.0882 -0.7290
    6MOL   H190 2100   5.364   0.948   1.701 -2.3749  1.7515  1.2109
    6MOL   H191 2101   5.371   1.107   1.780 -1.1181 -0.2536 -1.0583
    6MOL   C192 2102   5.630   1.423   1.801  0.0716 -0.2942 -0.3175
    6MOL   C193 2103   5.510   1.385   1.892  0.7442 -0.8034 -0.5447
    6MOL   C194 2104   5.381   1.462   1.856  1.0587 -0.7149 -0.2420
    6MOL   O195 2105   5.282   1.400   1.817 -0.1510  0.3002  0.0348
    6MOL   N196 2106   5.387   1.598   1.852 -0.1853  0.0853  0.0770
    6MOL   C197 2107   5.286   1.685   1.806 -0.4822  0.4426 -1.4576
    6MOL   C198 2108   5.261   1.800   1.906  0.1121 -0.3083  0.0307
    6MOL   C199 2109   5.304   1.733   1.654  0.1088  0.1852 -0.3721
    6MOL   H200 2110   5.673   1.520   1.829 -0.5549 -0.1453  0.1335
    6MOL   H201 2111   5.714   1.357   1.825  0.9588  1.3402  1.2084
    6MOL   H202 2112   5.493   1.278   1.888  1.9595 -0.9351 -3.3373
    6MOL   H203 2113   5.473   1.645   1.878  0.9062 -0.9252 -1.6097
    6MOL   H204 2114   5.194   1.628   1.815 -0.5202  0.7240  0.0588
    6MOL   H205 2115   5.348   1.859   1.933 -1.0461  1.7551 -0.6274
    6MOL   H206 2116   5.202   1.774   1.994  1.1078  0.2545  0.8811
    6MOL   H207 2117   5.211   1.888   1.865  1.7908  0.3099 -0.7303
    6MOL   H208 2118   5.358   1.652   1.606  0.0159 -0.9646  1.4051
    6MOL   H209 2119   5.368   1.821   1.649  0.3515  0.0928  0.8698
    6MOL   H210 2120   5.210   1.751   1.602  0.3588  2.1481 -0.1888
    6MOL   C211 2121   5.551   1.401   2.037  0.0108  0.1612 -1.4601
    6MOL   C212 2122   5.445   1.397   2.147 -0.4115 -0.3368  0.3057
    6MOL   C213 2123   5.428   1.247   2.192 -0.2710  0.9097  0.0077
    6MOL   O214 2124   5.498   1.196   2.280  0.2050 -0.1834 -0.1738
    6MOL   N215 2125   5.341   1.184   2.113  0.1430  0.3103 -0.2590
    6MOL   C216 2126   5.283   1.053   2.141 -0.5595  0.6894 -0.1726
    6MOL   C217 2127   5.221   0.998   2.015  0.2463  0.5562 -0.5527
    6MOL   C218 2128   5.192   1.061   2.261 -0.7060 -0.4896  0.2067
    6MOL   H219 2129   5.612   1.491   2.042  1.6690 -1.1040  3.3968
    6MOL   H220 2130   5.613   1.316   2.066 -0.4111  0.0314 -0.9221
    6MOL   H221 2131   5.347   1.438   2.125  0.1874  0.6914 -0.5340
    6MOL   H222 2132   5.309   1.236   2.032 -0.6047 -2.7882 -2.0630
    6MOL   H223 2133   5.369   0.988   2.158 -2.0463 -1.0745  0.6530
    6MOL   H224 2134   5.290   0.987   1.931  1.7074 -0.4171  0.7485
    6MOL   H225 2135   5.184   0.898   2.038 -3.5053  1.4796 -2.1999
    6MOL   H226 2136   5.131   1.050   1.980  1.1010  1.6553 -1.1351
    6MOL   H227 2137   5.250   1.098   2.346  1.4430  0.9147 -1.8182
    6MOL   H228 2138   5.159   0.961   2.290 -0.1508  0.0239  2.7109
    6MOL   H229 2139   5.104   1.124   2.251  1.4240  2.8235  1.6032
    6MOL   C230 2140   5.493   1.476   2.273 -0.7044 -0.6719 -0.4870
    6MOL   C231 2141   5.389   1.497   2.384  0.6747  0.2420 -0.0157
    6MOL   C232 2142   5.465   1.546   2.507  0.4271  0.2830  0.2319
    6MOL   O233 2143   5.516   1.657   2.507 -0.0903  0.5077  0.2618
    6MOL   N234 2144   5.487   1.452   2.599 -0.1343 -0.5515 -0.2099
    6MOL   C235 2145   5.598   1.450   2.691  0.9557  0.1024 -0.2923
    6MOL   C236 2146   5.543   1.451   2.840 -0.2016 -0.2082  0.7410
    6MOL   C237 2147   5.678   1.321   2.681 -0.0056  0.0360 -0.2241
    6MOL   H238 2148   5.528   1.574   2.241 -1.5887 -0.1052  0.2797
    6MOL   H239 2149   5.582   1.431   2.318 -0.0366  2.9260  1.9553
    6MOL   H240 2150   5.342   1.400   2.401  2.8674 -0.8749 -0.2138
    6MOL   H241 2151   5.441   1.363   2.587  0.2501 -0.7117 -0.4951
    6MOL   H242 2152   5.653   1.544   2.679  2.0416 -0.3888  0.7350
    6MOL   H243 2153   5.623   1.449   2.914  1.5227  0.9302 -1.0233
    6MOL   H244 2154   5.493   1.545   2.865  0.4957  0.9899 -2.1233
    6MOL   H245 2155   5.479   1.364   2.852  2.2937 -2.0234  1.3797
    6MOL   H246 2156   5.768   1.323   2.742 -0.8629  0.9352  1.0265
    6MOL   H247 2157   5.713   1.301   2.580 -1.5276  0.2803 -0.8061
    6MOL   H248 2158   5.614   1.239   2.713 -0.3363  1.1638  2.1192
    6MOL   C249 2159   5.280   1.601   2.344 -0.1731 -0.0619  0.3222
    6MOL   C250 2160   5.172   1.642   2.441 -0.8263 -0.0953 -0.4681
    6MOL   C251 2161   5.088   1.519   2.491  0.1884 -0.1091 -0.0533
    6MOL   O252 2162   4.996   1.482   2.417 -0.4789 -0.3501  1.0091
    6MOL   N253 2163   5.127   1.465   2.604 -0.1604  0.6607  0.4744
    6MOL   C254 2164   5.065   1.345   2.666  0.1655  0.3899  0.6634
    6MOL   C255 2165   5.160   1.229   2.677 -0.2427  1.0613 -0.5514
    6MOL   C256 2166   5.014   1.381   2.804  0.3828  0.3264 -0.4922
    6MOL   H257 2167   5.236   1.566   2.250  0.2620 -1.1135  0.4991
    6MOL   H258 2168   5.329   1.691   2.308  2.0668 -1.1185  0.6564
    6MOL   H259 2169   5.216   1.674   2.535 -0.3653 -1.0165 -0.3589
    6MOL   H260 2170   5.188   1.524   2.658 -0.1213  0.0823  1.0714
    6MOL   H261 2171   4.985   1.305   2.605  1.0407  0.8940 -0.8430
    6MOL   H262 2172   5.238   1.245   2.751  2.4472  0.4073 -3.1725
    6MOL   H263 2173   5.127   1.130   2.708 -0.5248  1.1617 -0.5300
    6MOL   H264 2174   5.213   1.217   2.583 -0.7500 -0.6490 -0.6453
    6MOL   H265 2175   4.995   1.292   2.864  0.6984  1.4194  1.2375
    6MOL   H266 2176   5.078   1.449   2.860 -2.0979  1.7415  0.7047
    6MOL   H267 2177   4.917   1.431   2.802 -0.6906 -1.6613  0.2017
    6MOL   C268 2178   5.071   1.749   2.387  1.2062 -0.1055 -0.6139
    6MOL   C269 2179   5.112   1.901   2.419  0.3330  0.6994 -0.3158
    6MOL   C270 2180   5.201   1.952   2.303  0.2889 -0.1368 -0.0811
    6MOL   O271 2181   5.161   1.947   2.181  0.2037 -0.5158 -0.4884
    6MOL   N272 2182   5.321   1.987   2.346  0.5435  0.3947 -0.0838
    6MOL   C273 2183   5.434   2.022   2.263  0.4395  0.6261 -0.1523
    6MOL   C274 2184   5.439   2.165   2.225  0.2407 -0.0026  0.0494
    6MOL   C275 2185   5.563   1.978   2.336 -0.2030  0.5263  0.4544
    6MOL   H276 2186   5.044   1.730   2.283 -1.7326 -2.0787  0.4465
    6MOL   H277 2187   4.974   1.732   2.433  1.3580  2.3882  0.6630
    6MOL   H278 2188   5.176   1.891   2.507  2.4371 -0.6846 -1.9619
    6MOL   H279 2189   5.346   1.985   2.443  0.5555 -0.6710 -0.1033
    6MOL   H280 2190   5.434   1.973   2.165  2.2089  1.5834 -0.6581
    6MOL   H281 2191   5.339   2.191   2.191 -0.0306  0.9489  1.5280
    6MOL   H282 2192   5.459   2.235   2.307 -1.0686  0.5400 -0.0907
    6MOL   H283 2193   5.512   2.185   2.146  1.1752 -0.5377  0.7713
    6MOL   H284 2194   5.567   1.871   2.352  2.0978  0.4009 -0.7405
    6MOL   H285 2195   5.652   1.995   2.275 -0.9214  1.2266 -0.4170
    6MOL   H286 2196   5.571   2.022   2.436  0.3172 -2.4532  1.7529
    6MOL   C287 2197   4.980   1.992   2.439 -0.7131  0.2426 -0.1916
    6MOL   C288 2198   5.002   2.142   2.482  0.3704  0.2621  0.7688
    6MOL   C289 2199   5.101   2.150   2.600  0.2282 -0.9403 -0.5377
    6MOL   O290 2200   5.096   2.078   2.700 -0.3316  0.2060 -0.0196
    6MOL   N291 2201   5.190   2.250   2.595  0.7026  0.9888 -0.4906
    6MOL   C292 2202   5.294   2.283   2.690 -0.6292  0.2633 -0.5886
    6MOL   C293 2203   5.413   2.316   2.605  0.0048  0.5738 -0.0087
    6MOL   C294 2204   5.250   2.399   2.777 -0.0449  0.2087  0.6875
    6MOL   H295 2205   4.944   1.997   2.337 -3.4744 -2.2611  0.5720
    6MOL   H296 2206   4.913   1.938   2.505  0.2753 -0.6657  0.0933
    6MOL   H297 2207   5.039   2.192   2.393 -0.0593 -1.5515 -0.4625
    6MOL   H298 2208   5.157   2.324   2.535 -1.6590  1.3852  1.2330
    6MOL   H299 2209   5.320   2.198   2.753 -0.2041 -0.1006 -1.2558
    6MOL   H300 2210   5.504   2.323   2.665  1.0664 -0.9114 -1.3697
    6MOL   H301 2211   5.431   2.250   2.520 -0.3639  0.5081 -0.0362
    6MOL   H302 2212   5.398   2.407   2.547  1.6968 -0.5452 -2.3115
    6MOL   H303 2213   5.171   2.362   2.842  0.5942 -0.3425  1.1618
    6MOL   H304 2214   5.336   2.425   2.838 -0.1705 -1.7223  1.7176
    6MOL   H305 2215   5.219   2.486   2.719  0.4460  0.1652  0.3582
    6MOL   C306 2216   4.862   2.206   2.501  0.2759  0.1836  0.3704
    6MOL   C307 2217   4.838   2.359   2.531  0.1191  0.5802 -0.2761
    6MOL   C308 2218   4.923   2.452   2.453  0.0298 -0.3401 -0.4354
    6MOL   O309 2219   5.043   2.438   2.433 -0.0362 -0.0910 -0.0355
    6MOL   N310 2220   4.852   2.557   2.408 -0.4669  0.2602 -0.7985
    6MOL   C311 2221   4.898   2.687   2.348 -0.6344  1.0049  0.0397
    6MOL   C312 2222   4.772   2.768   2.301  0.5799  0.2250  0.0474
    6MOL   C313 2223   4.994   2.756   2.448  0.2362 -0.0465  0.6919
    6MOL   H314 2224   4.812   2.171   2.411  1.2323 -0.1678 -0.0330
    6MOL   H315 2225   4.808   2.151   2.578 -1.2956  0.8462 -0.2342
    6MOL   H316 2226   4.736   2.363   2.494  0.1115 -1.9419 -0.6362
    6MOL   H317 2227   4.752   2.543   2.415 -0.3315 -0.6487 -0.6501
    6MOL   H318 2228   4.953   2.661   2.258 -0.2594 -0.4794  0.6849
    6MOL   H319 2229   4.714   2.800   2.387 -0.9420 -3.5647  0.5655
    6MOL   H320 2230   4.692   2.707   2.258  1.1394 -0.1795 -0.4351
    6MOL   H321 2231   4.787   2.849   2.230  0.1695 -0.3491 -0.7108
    6MOL   H322 2232   5.072   2.688   2.482 -1.6904 -1.8962  1.5782
    6MOL   H323 2233   4.940   2.775   2.540 -1.5377 -1.2053 -0.0556
    6MOL   H324 2234   5.032   2.850   2.408  0.0278 -0.3547 -0.2589
    6MOL   C325 2235   4.840   2.388   2.678 -0.0882  0.2739  0.7074
    6MOL   C326 2236   4.766   2.510   2.729 -0.9009  0.0998 -0.7035
    6MOL   C327 2237   4.615   2.500   2.693 -0.0375  0.2274  0.8615
    6MOL   O328 2238   4.554   2.389   2.695 -1.1453  0.6426  0.2726
    6MOL   N329 2239   4.549   2.608   2.646  0.0995 -0.4409  0.2001
    6MOL   C330 2240   4.413   2.618   2.585 -1.1314  0.6593  0.2249
    6MOL   C331 2241   4.381   2.760   2.562  0.3366 -0.0923  0.4594
    6MOL   C332 2242   4.299   2.560   2.670 -0.4608 -0.0608  0.7910
    6MOL   H333 2243   4.942   2.408   2.709  0.5102 -0.3256 -0.8218
    6MOL   H334 2244   4.820   2.305   2.745 -1.0018 -0.3154 -0.2826
    6MOL   H335 2245   4.815   2.595   2.683  0.5681 -0.5082 -0.3104
    6MOL   H336 2246   4.607   2.687   2.624  2.0330 -1.7435  0.5450
    6MOL   H337 2247   4.420   2.563   2.491  3.4470 -0.1904  0.9622
    6MOL   H338 2248   4.462   2.790   2.497  0.6979  0.1816  1.0380
    6MOL   H339 2249   4.279   2.787   2.532  0.6918  0.5637 -0.1654
    6MOL   H340 2250   4.401   2.809   2.657  1.8657  0.4448 -0.1313
    6MOL   H341 2251   4.295   2.613   2.765  1.0222  3.5756 -1.0951
    6MOL   H342 2252   4.305   2.456   2.701 -0.8639  0.0259  1.1614
    6MOL   H343 2253   4.201   2.567   2.622 -0.8043 -2.5628  1.0795
    6MOL   C344 2254   4.790   2.530   2.881 -0.0593  1.2616  0.0676
    6MOL   C345 2255   4.794   2.671   2.944  0.8335 -0.2283  0.4591
    6MOL   C346 2256   4.873   2.774   2.858  0.8132  0.0401  0.4667
    6MOL   O347 2257   4.813   2.828   2.764  0.4356 -0.2149  0.1754
    6MOL   N348 2258   5.000   2.813   2.892 -0.0165  0.8621  0.1100
    6MOL   C349 2259   5.085   2.910   2.831 -0.3005 -0.6295  0.0184
    6MOL   C350 2260   5.069   3.038   2.915 -0.0259 -0.2305 -0.1101
    6MOL   C351 2261   5.229   2.866   2.829  0.1317 -0.4325  0.2656
    6MOL   H352 2262   4.889   2.495   2.911 -0.9733 -2.0612 -0.6142
    6MOL   H353 2263   4.722   2.472   2.942  0.1265 -3.1774 -3.6873
    6MOL   H354 2264   4.858   2.671   3.032  2.4327 -0.1558 -0.6796
    6MOL   H355 2265   5.027   2.768   2.978  2.1564 -0.5014 -1.2307
    6MOL   H356 2266   5.059   2.916   2.725  0.7481  0.8813 -0.1618
    6MOL   H357 2267   4.963   3.066   2.920 -0.3424 -1.4574  0.1232
    6MOL   H358 2268   5.105   3.026   3.017  0.0197 -1.5615 -0.2739
    6MOL   H359 2269   5.132   3.115   2.870  0.6960 -0.0484  1.2017
    6MOL   H360 2270   5.244   2.779   2.765  1.1564 -0.3595  0.3968
    6MOL   H361 2271   5.298   2.948   2.809 -0.4924  0.3366  1.2556
    6MOL   H362 2272   5.263   2.831   2.926 -0.1487 -2.5278 -0.3559
    6MOL   C363 2273   4.650   2.715   2.987 -0.6834 -0.7791 -0.4354
    6MOL   C364 2274   4.635   2.868   3.021 -0.5785 -0.1188 -0.6618
    6MOL   C365 2275   4.715   2.905   3.146 -0.1176  0.6969  0.3008
    6MOL   O366 2276   4.836   2.926   3.143 -0.3619 -0.1936  0.2264
    6MOL   N367 2277   4.644   2.898   3.262 -0.1909  0.2842  0.4032
    6MOL   C368 2278   4.709   2.900   3.392  0.2589  0.3041 -1.6247
    6MOL   C369 2279   4.588   2.922   3.489 -0.3285 -0.5623 -0.8243
    6MOL   C370 2280   4.794   2.775   3.419  0.0961 -0.1592  0.5437
    6MOL   H371 2281   4.626   2.664   3.080  0.6816  2.4961  1.8194
    6MOL   H372 2282   4.578   2.696   2.908 -1.0121 -2.3103  0.2079
    6MOL   H373 2283   4.530   2.893   3.035 -0.6539 -0.1493 -1.1563
    6MOL   H374 2284   4.549   2.865   3.256 -0.7765  1.6655  1.5827
    6MOL   H375 2285   4.765   2.993   3.390  2.0910 -0.7659 -1.5772
    6MOL   H376 2286   4.530   3.013   3.475 -1.2164 -0.8720  0.7091
    6MOL   H377 2287   4.523   2.837   3.508 -2.5820  1.6468  1.7549
    6MOL   H378 2288   4.638   2.929   3.586 -2.6068 -1.6907  0.4658
    6MOL   H379 2289   4.839   2.784   3.518 -0.7259  2.8757  0.6860
    6MOL   H380 2290   4.727   2.690   3.426  0.4098 -0.6146 -1.6524
    6MOL   H381 2291   4.866   2.748   3.342 -1.1682 -1.3903 -0.2215
    6MOL   H382 2292   4.676   2.929   2.941  1.1770  0.7872  0.9139
    7MOL     C1 2293   6.227   4.176   6.809  0.3264 -0.8447  0.0948
    7MOL     C2 2294   6.208   4.123   6.948  0.0732  0.1701 -0.1218
    7MOL     C3 2295   6.098   4.175   7.040 -0.0549  0.1380 -0.3703
    7MOL     O4 2296   5.988   4.121   7.044 -0.2796 -0.4179 -0.6465
    7MOL     N5 2297   6.126   4.287   7.109 -0.1813 -0.5976 -0.1736
    7MOL     C6 2298   6.031   4.358   7.192 -0.1806 -0.5827  0.1793
    7MOL     C7 2299   6.079   4.333   7.336  0.1172  0.7426  0.4774
    7MOL     C8 2300   6.024   4.498   7.156  0.2986  0.4479 -0.0013
    7MOL     H9 2301   6.215   4.284   6.820  0.5064 -0.7533 -0.5958
    7MOL    H10 2302   6.143   4.146   6.746 -0.4241  0.3420  0.5174
    7MOL    H11 2303   6.306   4.138   6.994 -0.0182  0.5612 -0.0538
    7MOL    H12 2304   6.206   4.338   7.073  0.1158 -0.4716  0.6471
    7MOL    H13 2305   5.929   4.319   7.197 -0.4600  0.3235  2.4727
    7MOL    H14 2306   6.009   4.376   7.408 -1.2867 -1.5118  0.5243
    7MOL    H15 2307   6.182   4.365   7.347  1.0480 -1.9148 -0.3100
    7MOL    H16 2308   6.075   4.225   7.352 -0.3635  0.7095  0.1428
    7MOL    H17 2309   5.948   4.552   7.211  1.6356 -0.0162  2.4100
    7MOL    H18 2310   6.120   4.548   7.169  0.2288  0.6323 -0.1946
    7MOL    H19 2311   5.994   4.510   7.052  1.9607  0.4097 -0.5087
    7MOL    H20 2312   6.323   4.142   6.771 -0.2112  0.1703 -2.2663
    7MOL    C21 2313   6.209   3.971   6.942 -0.2927  0.1223 -0.0986
    7MOL    C22 2314   6.219   3.886   7.069  0.1725  0.0887  0.0967
    7MOL    C23 2315   6.360   3.892   7.133 -0.0830  0.1039 -0.3782
    7MOL    O24 2316   6.454   3.826   7.095 -0.3404  0.1680  0.3119
    7MOL    N25 2317   6.364   3.982   7.232  0.1685  0.4834 -0.0049
    7MOL    C26 2318   6.488   4.003   7.310  0.0754  0.8998 -0.0894
    7MOL    C27 2319   6.468   3.937   7.450 -0.7671 -0.2761  0.4768
    7MOL    C28 2320   6.522   4.154   7.326 -0.6055 -0.3511 -0.0211
    7MOL    H29 2321   6.289   3.935   6.877 -1.1202 -1.6490 -0.1613
    7MOL    H30 2322   6.122   3.959   6.879 -0.7731 -1.0011  0.7581
    7MOL    H31 2323   6.150   3.928   7.142 -0.6925 -0.2026 -0.5454
    7MOL    H32 2324   6.289   4.046   7.253  0.5287  0.9109  0.0067
    7MOL    H33 2325   6.583   3.963   7.275  0.7169  1.3831  1.0768
    7MOL    H34 2326   6.447   3.830   7.444 -1.7202 -0.0118 -1.0792
    7MOL    H35 2327   6.378   3.982   7.490 -1.1807  0.4472 -1.2424
    7MOL    H36 2328   6.562   3.940   7.505  0.3017 -0.0264 -1.3162
    7MOL    H37 2329   6.433   4.208   7.357 -0.3061  0.7761 -1.1188
    7MOL    H38 2330   6.605   4.165   7.396  0.7306 -1.3212 -1.4190
    7MOL    H39 2331   6.551   4.194   7.230  1.0638 -1.0967  0.1608
    7MOL    C40 2332   6.180   3.738   7.035 -0.4525  0.3147  0.0317
    7MOL    C41 2333   6.030   3.705   7.032  0.1466  0.0290 -0.4057
    7MOL    C42 2334   5.956   3.733   7.167 -0.6570 -0.3522 -0.0099
    7MOL    O43 2335   5.959   3.651   7.259 -0.5405 -0.3979 -0.3073
    7MOL    N44 2336   5.882   3.844   7.169  0.0351  0.1317  0.6293
    7MOL    C45 2337   5.760   3.870   7.253  0.2207 -0.5169  1.5791
    7MOL    C46 2338   5.799   3.962   7.372  0.5700 -0.0224  0.0995
    7MOL    C47 2339   5.655   3.953   7.180 -0.3053 -0.0218  0.2489
    7MOL    H48 2340   6.228   3.655   7.086 -1.4728  0.9040  1.9920
    7MOL    H49 2341   6.216   3.716   6.934  0.8573  1.8810  0.1317
    7MOL    H50 2342   5.984   3.782   6.970 -1.3705 -0.5424 -0.0118
    7MOL    H51 2343   5.877   3.896   7.083  1.8663  1.6981  1.4450
    7MOL    H52 2344   5.719   3.779   7.296  1.0591 -1.2787  0.7693
    7MOL    H53 2345   5.705   3.997   7.415 -1.1522 -1.1209 -2.6590
    7MOL    H54 2346   5.836   4.059   7.340 -0.8599  0.9914  1.3874
    7MOL    H55 2347   5.855   3.913   7.452 -0.7589  0.1280  1.1498
    7MOL    H56 2348   5.562   3.969   7.233  0.0781 -0.2433  0.9943
    7MOL    H57 2349   5.625   3.895   7.092 -2.1912  1.6651 -0.2485
    7MOL    H58 2350   5.698   4.049   7.153  1.9461 -1.3409 -1.0636
    7MOL    C59 2351   5.991   3.568   6.970 -0.2682 -0.1711 -0.6956
    7MOL    C60 2352   5.836   3.527   6.935 -0.6850 -0.3936  0.1370
    7MOL    C61 2353   5.763   3.636   6.848 -0.3013  0.2458 -0.3520
    7MOL    O62 2354   5.699   3.730   6.900  0.4027  0.1843  0.2158
    7MOL    N63 2355   5.794   3.641   6.714  0.7726  0.2506 -0.1779
    7MOL    C64 2356   5.753   3.755   6.622 -0.8104 -0.6110 -0.1226
    7MOL    C65 2357   5.877   3.827   6.565 -0.9632  0.1093 -0.1365
    7MOL    C66 2358   5.670   3.702   6.507  0.0984  0.0154  0.4608
    7MOL    H67 2359   6.057   3.547   6.886  0.9331 -1.9711  0.6659
    7MOL    H68 2360   6.030   3.499   7.045 -1.0274 -1.1673 -1.2040
    7MOL    H69 2361   5.845   3.445   6.864 -1.4913 -0.6127  0.2827
    7MOL    H70 2362   5.839   3.557   6.680  0.6274  0.8047 -1.8065
    7MOL    H71 2363   5.700   3.828   6.683 -1.6225 -1.2833 -0.0003
    7MOL    H72 2364   5.953   3.859   6.637 -2.1287 -0.4491  1.3762
    7MOL    H73 2365   5.937   3.750   6.516 -0.8524  0.0972  0.0171
    7MOL    H74 2366   5.853   3.910   6.499 -2.4930  1.4772  2.0650
    7MOL    H75 2367   5.649   3.771   6.425 -1.8176 -0.9481  0.0946
    7MOL    H76 2368   5.715   3.620   6.451 -3.7472 -1.7760 -0.2387
    7MOL    H77 2369   5.578   3.665   6.552  0.4780  0.7267  1.8318
    7MOL    C78 2370   5.750   3.480   7.062 -0.0243 -0.8758  0.6707
    7MOL    C79 2371   5.796   3.367   7.155 -0.2105  0.3605 -0.0890
    7MOL    C80 2372   5.721   3.375   7.286  0.2159 -0.4352  0.1213
    7MOL    O81 2373   5.620   3.309   7.314  0.5732 -0.4706 -1.0502
    7MOL    N82 2374   5.777   3.457   7.375 -0.0488 -0.2806 -0.2638
    7MOL    C83 2375   5.743   3.482   7.512  0.4970  0.1620  0.1709
    7MOL    C84 2376   5.785   3.369   7.605 -0.0936 -1.0692  0.0307
    7MOL    C85 2377   5.763   3.630   7.561 -0.4695 -0.1063  0.3858
    7MOL    H86 2378   5.645   3.464   7.036  0.2714 -0.9986 -0.4764
    7MOL    H87 2379   5.743   3.575   7.115  1.0486 -1.3429  1.6797
    7MOL    H88 2380   5.902   3.374   7.180 -0.1507  1.4784 -0.6283
    7MOL    H89 2381   5.836   3.530   7.336  0.9318 -2.2164 -2.5342
    7MOL    H90 2382   5.634   3.479   7.513  0.4173  2.0050 -0.3172
    7MOL    H91 2383   5.892   3.355   7.598  0.1003  0.6055 -0.6379
    7MOL    H92 2384   5.754   3.398   7.705  2.5229 -0.6006  0.7302
    7MOL    H93 2385   5.733   3.277   7.578  0.7482 -0.8298 -2.5664
    7MOL    H94 2386   5.718   3.642   7.660 -1.5144 -0.8255  0.0088
    7MOL    H95 2387   5.724   3.712   7.500  1.4513 -0.8914 -1.9859
    7MOL    H96 2388   5.869   3.649   7.577 -0.9081  1.1747  1.9272
    7MOL    C97 2389   5.785   3.233   7.089 -0.1087  0.0737  0.4002
    7MOL    C98 2390   5.837   3.111   7.172 -0.0646  0.0203 -0.5318
    7MOL    C99 2391   5.983   3.131   7.215  0.4763 -0.0196 -0.7521
    7MOL   O100 2392   6.079   3.122   7.134  0.3051 -0.1581 -0.0804
    7MOL   N101 2393   5.996   3.164   7.342  0.2119  0.1527 -0.8486
    7MOL   C102 2394   6.119   3.219   7.403 -0.5553 -0.3708 -0.2609
    7MOL   C103 2395   6.119   3.367   7.382  0.3763  0.2797  0.3262
    7MOL   C104 2396   6.135   3.177   7.547 -0.6487  0.4774 -0.7108
    7MOL   H105 2397   5.839   3.231   6.994 -0.2581 -2.7550  0.3290
    7MOL   H106 2398   5.679   3.218   7.067  0.1331  0.4979 -1.1323
    7MOL   H107 2399   5.782   3.109   7.266  2.8036 -0.7477  1.1825
    7MOL   H108 2400   5.913   3.181   7.396  1.1628  0.0317  0.6863
    7MOL   H109 2401   6.200   3.181   7.340 -1.3166  1.0392 -2.1466
    7MOL   H110 2402   6.212   3.411   7.419  0.4724 -0.4737  0.9988
    7MOL   H111 2403   6.115   3.393   7.276  0.2635  2.7669  0.9057
    7MOL   H112 2404   6.038   3.415   7.436 -0.9215  0.8234 -2.0651
    7MOL   H113 2405   6.054   3.213   7.611 -0.4277  0.2842 -0.3221
    7MOL   H114 2406   6.218   3.232   7.589 -1.8982  1.2555  0.7933
    7MOL   H115 2407   6.161   3.073   7.566  0.2041  0.4967 -1.7461
    7MOL   C116 2408   5.824   2.979   7.094 -0.3139  0.7487  0.6055
    7MOL   C117 2409   5.678   2.913   7.085  0.5910  0.7604 -0.8306
    7MOL   C118 2410   5.648   2.830   7.219  0.0372 -0.5870 -1.0669
    7MOL   O119 2411   5.654   2.707   7.215  0.3358  0.2224  0.6402
    7MOL   N120 2412   5.634   2.897   7.335  0.3708 -0.8780  0.2616
    7MOL   C121 2413   5.635   2.831   7.463 -0.5844  0.0354 -0.0175
    7MOL   C122 2414   5.766   2.853   7.521  0.1074 -0.0845  0.5994
    7MOL   C123 2415   5.515   2.859   7.550 -0.2666  0.0877  0.1636
    7MOL   H124 2416   5.889   2.901   7.134 -0.6140  1.0618  1.7283
    7MOL   H125 2417   5.867   2.984   6.994  0.6451  0.9634  1.0204
    7MOL   H126 2418   5.611   2.998   7.099  0.8922  1.0331 -1.0358
    7MOL   H127 2419   5.656   2.995   7.325  0.6918 -1.1111 -1.5301
    7MOL   H128 2420   5.631   2.722   7.453  1.4256  0.1917 -3.0840
    7MOL   H129 2421   5.791   2.959   7.531  0.7602 -0.3995  2.4690
    7MOL   H130 2422   5.839   2.826   7.445 -1.5365 -0.2954 -0.9579
    7MOL   H131 2423   5.789   2.806   7.616 -1.7317  0.3176  1.2753
    7MOL   H132 2424   5.516   2.966   7.569  1.9348  0.2887 -1.0030
    7MOL   H133 2425   5.419   2.836   7.504  0.3865  0.4784 -1.4086
    7MOL   H134 2426   5.528   2.796   7.638  2.1493 -0.0337 -0.2450
    7MOL   C135 2427   5.649   2.838   6.953  0.2098 -0.1853 -0.6186
    7MOL   C136 2428   5.539   2.895   6.870  0.1780 -0.7477 -0.4195
    7MOL   C137 2429   5.538   2.838   6.727  0.1234  0.0423 -0.0571
    7MOL   O138 2430   5.511   2.720   6.711  0.8336 -0.4374 -0.1666
    7MOL   N139 2431   5.552   2.924   6.624  0.2133 -0.1944  0.0204
    7MOL   C140 2432   5.514   2.890   6.487 -0.0902 -0.1616 -0.2442
    7MOL   C141 2433   5.625   2.805   6.423 -0.1277  0.7237  0.1685
    7MOL   C142 2434   5.459   3.017   6.408 -0.1894  0.2486  0.0621
    7MOL   H143 2435   5.607   2.739   6.968  2.1075 -1.2883 -2.3347
    7MOL   H144 2436   5.740   2.805   6.902  0.8098  2.1941 -1.1631
    7MOL   H145 2437   5.574   2.998   6.862 -0.0783 -0.7793 -1.9354
    7MOL   H146 2438   5.583   3.017   6.646 -1.2958  0.4259 -0.4669
    7MOL   H147 2439   5.431   2.820   6.498  0.4064 -0.6796  0.2690
    7MOL   H148 2440   5.659   2.731   6.496  0.7671  0.0525 -0.9213
    7MOL   H149 2441   5.600   2.752   6.332  1.3471  2.5069 -1.3280
    7MOL   H150 2442   5.713   2.862   6.393  1.3327 -1.5216  0.0670
    7MOL   H151 2443   5.386   3.002   6.329  0.0959 -1.4519  0.0964
    7MOL   H152 2444   5.536   3.080   6.362 -0.1221 -2.8471 -4.3837
    7MOL   H153 2445   5.403   3.074   6.483  1.2648  2.7406 -0.6813
    7MOL   C154 2446   5.398   2.877   6.941  0.5456 -0.6241  0.7768
    7MOL   C155 2447   5.285   2.969   6.888 -0.0162  0.2482  0.1261
    7MOL   C156 2448   5.328   3.118   6.900  0.0199 -0.0387 -0.0931
    7MOL   O157 2449   5.360   3.162   7.010  0.0066 -0.5997  0.0269
    7MOL   N158 2450   5.323   3.191   6.786 -0.2397 -0.0992  0.4498
    7MOL   C159 2451   5.352   3.336   6.787 -0.1191  0.3259 -0.2588
    7MOL   C160 2452   5.280   3.402   6.667 -0.3874  0.6669 -0.3270
    7MOL   C161 2453   5.500   3.360   6.788 -0.1179 -0.2217 -0.5610
    7MOL   H162 2454   5.418   2.916   7.042 -0.3422  0.8540  0.4007
    7MOL   H163 2455   5.370   2.773   6.930  0.8594 -0.5888 -0.4241
    7MOL   H164 2456   5.260   2.947   6.784 -0.7026 -1.4707  0.6432
    7MOL   H165 2457   5.271   3.150   6.709 -0.5615 -2.5744  1.9256
    7MOL   H166 2458   5.302   3.372   6.877  1.3270  0.0314  0.6824
    7MOL   H167 2459   5.287   3.511   6.671  0.0939  0.6846 -1.4776
    7MOL   H168 2460   5.315   3.367   6.570 -0.5714  0.5534 -0.3542
    7MOL   H169 2461   5.178   3.367   6.682 -0.8263  2.2043  0.3963
    7MOL   H170 2462   5.521   3.463   6.762  1.1441  0.1680  1.7992
    7MOL   H171 2463   5.532   3.290   6.710  0.6507 -0.9386  0.3728
    7MOL   H172 2464   5.550   3.335   6.882 -0.8311 -0.7783 -0.3228
    7MOL   C173 2465   5.155   2.949   6.974 -0.2593 -0.0825 -0.1539
    7MOL   C174 2466   5.041   3.057   6.966  0.2305 -0.3842  0.2089
    7MOL   C175 2467   4.988   3.078   6.824  0.2116  0.3267 -0.0302
    7MOL   O176 2468   5.003   2.997   6.732 -0.1142 -0.4929 -0.0203
    7MOL   N177 2469   4.943   3.200   6.799  0.2706 -0.4473 -0.6168
    7MOL   C178 2470   4.847   3.240   6.691 -0.2934  0.0971  0.2789
    7MOL   C179 2471   4.917   3.324   6.595  0.1810 -0.2569 -0.0948
    7MOL   C180 2472   4.732   3.310   6.758 -0.5221 -0.6908  0.7116
    7MOL   H181 2473   5.190   2.937   7.077  2.2975  0.2208 -0.9354
    7MOL   H182 2474   5.110   2.852   6.954 -1.1147  0.8131 -2.8082
    7MOL   H183 2475   5.076   3.152   7.005  2.0563 -0.7954 -0.3773
    7MOL   H184 2476   4.958   3.271   6.869  1.5879  0.4867 -1.8369
    7MOL   H185 2477   4.818   3.150   6.636 -0.4570 -0.1134  0.7033
    7MOL   H186 2478   4.850   3.348   6.512 -0.7788 -0.8380  0.5113
    7MOL   H187 2479   5.009   3.273   6.565  0.3400  0.3673 -0.6884
    7MOL   H188 2480   4.954   3.416   6.641 -0.5039  0.2050 -0.4529
    7MOL   H189 2481   4.769   3.379   6.834 -0.8603 -1.2102  1.3607
    7MOL   H190 2482   4.683   3.237   6.823 -1.3121  0.9837  2.0342
    7MOL   H191 2483   4.670   3.355   6.681  0.0787 -2.2556 -0.7015
    7MOL   C192 2484   4.925   3.003   7.058 -0.0589 -0.2562 -0.5696
    7MOL   C193 2485   4.798   3.091   7.079  0.9875  0.4604  0.3620
    7MOL   C194 2486   4.837   3.220   7.152 -0.4030 -0.3283 -0.1912
    7MOL   O195 2487   4.808   3.328   7.106 -0.4590 -0.4443  0.0128
    7MOL   N196 2488   4.873   3.209   7.276 -0.6821 -0.1992 -0.0683
    7MOL   C197 2489   4.927   3.311   7.363 -0.2665 -0.0481 -0.3468
    7MOL   C198 2490   4.923   3.255   7.507 -0.5402  0.7481 -0.1946
    7MOL   C199 2491   5.068   3.377   7.324 -0.0742 -0.5935 -0.3970
    7MOL   H200 2492   4.969   2.982   7.155 -3.4823  0.7448  1.2830
    7MOL   H201 2493   4.901   2.901   7.026 -0.4862 -0.7465  1.2779
    7MOL   H202 2494   4.761   3.115   6.979 -2.0054 -2.1829  0.7755
    7MOL   H203 2495   4.888   3.120   7.320  2.4329  0.4210  0.2601
    7MOL   H204 2496   4.848   3.386   7.354 -0.4269 -0.1610  0.1331
    7MOL   H205 2497   4.949   3.330   7.582 -0.6803 -1.1810  1.8369
    7MOL   H206 2498   4.990   3.170   7.506 -0.5840  0.7140 -1.0764
    7MOL   H207 2499   4.825   3.218   7.538 -0.0674 -2.1697 -2.0149
    7MOL   H208 2500   5.139   3.297   7.301  1.6305  0.4950  0.9628
    7MOL   H209 2501   5.104   3.444   7.402  2.8084 -0.7178 -1.5345
    7MOL   H210 2502   5.055   3.444   7.239 -1.5117 -0.5661 -0.1735
    7MOL   C211 2503   4.688   3.011   7.148 -0.0031 -0.1751  0.2538
    7MOL   C212 2504   4.546   3.080   7.158  0.7191 -1.0406  0.3971
    7MOL   C213 2505   4.477   3.102   7.023 -0.5389 -0.3393 -0.0238
    7MOL   O214 2506   4.497   3.025   6.926 -0.0104  0.4686  0.3253
    7MOL   N215 2507   4.379   3.188   7.028 -0.0382 -0.4980  0.1867
    7MOL   C216 2508   4.283   3.217   6.915  0.7255 -0.5095 -0.0634
    7MOL   C217 2509   4.192   3.096   6.888 -0.2263  0.0017 -0.2073
    7MOL   C218 2510   4.354   3.258   6.784  0.7548  0.5909 -0.5570
    7MOL   H219 2511   4.725   2.974   7.244 -0.4492  0.7592  0.7999
    7MOL   H220 2512   4.665   2.920   7.093 -0.9335 -0.1508  0.5922
    7MOL   H221 2513   4.565   3.176   7.207 -1.4880 -1.0245  1.2615
    7MOL   H222 2514   4.366   3.233   7.118 -2.9165 -2.5199  0.8375
    7MOL   H223 2515   4.226   3.306   6.942 -0.7004 -0.4662 -3.0909
    7MOL   H224 2516   4.166   3.056   6.986  1.0999  0.6063  0.4039
    7MOL   H225 2517   4.101   3.126   6.837 -1.2791 -2.1168  0.3636
    7MOL   H226 2518   4.246   3.017   6.835 -0.2890  0.2477 -0.6411
    7MOL   H227 2519   4.444   3.312   6.813  0.2071  0.9767  0.4202
    7MOL   H228 2520   4.290   3.326   6.728  0.1322  0.2094 -0.3099
    7MOL   H229 2521   4.380   3.164   6.734  2.9365 -0.1452  1.8309
    7MOL   C230 2522   4.448   2.994   7.250  0.2680  0.6813  0.1519
    7MOL   C231 2523   4.399   2.859   7.200 -0.4690  0.5706  0.5614
    7MOL   C232 2524   4.507   2.753   7.191 -0.3950  0.4576  0.0569
    7MOL   O233 2525   4.567   2.712   7.292 -0.1613 -1.0001 -0.5986
    7MOL   N234 2526   4.526   2.704   7.069  0.4378  0.0529 -0.0954
    7MOL   C235 2527   4.622   2.601   7.061 -0.2861 -0.1907  0.3533
    7MOL   C236 2528   4.548   2.468   7.022  0.8485 -0.3346 -0.2211
    7MOL   C237 2529   4.720   2.639   6.951  0.7262 -0.9389  1.2926
    7MOL   H238 2530   4.362   3.056   7.277 -0.5977 -0.2801 -0.3971
    7MOL   H239 2531   4.494   2.986   7.348 -0.9921 -0.2894  0.6696
    7MOL   H240 2532   4.364   2.870   7.097  2.8724 -1.6521 -0.9539
    7MOL   H241 2533   4.506   2.759   6.987 -0.3105 -1.9811 -1.3163
    7MOL   H242 2534   4.682   2.585   7.150 -0.3887  1.2050  0.6870
    7MOL   H243 2535   4.599   2.371   7.025 -0.6819 -1.1196  1.4033
    7MOL   H244 2536   4.466   2.456   7.093 -1.5048  0.4652 -2.7264
    7MOL   H245 2537   4.491   2.470   6.930 -0.9626  2.9962  0.9032
    7MOL   H246 2538   4.666   2.675   6.863  1.8038  0.5078  1.1972
    7MOL   H247 2539   4.769   2.552   6.908 -3.2343 -1.4363 -2.6862
    7MOL   H248 2540   4.790   2.715   6.985  1.9789 -1.7529  0.6022
    7MOL   C249 2541   4.286   2.821   7.288  0.0075  0.0490  0.1292
    7MOL   C250 2542   4.205   2.690   7.251 -0.1435 -0.3179 -0.7952
    7MOL   C251 2543   4.145   2.690   7.106  0.8208 -0.0474 -0.2217
    7MOL   O252 2544   4.059   2.767   7.073 -0.4212 -0.1325  0.1890
    7MOL   N253 2545   4.206   2.601   7.019 -0.5350  0.3949 -0.4634
    7MOL   C254 2546   4.164   2.578   6.883  0.2684  0.4438  0.1974
    7MOL   C255 2547   4.252   2.650   6.768  0.5066 -0.3628 -0.0254
    7MOL   C256 2548   4.148   2.422   6.868  0.1798  0.1524  0.2425
    7MOL   H257 2549   4.215   2.903   7.289 -0.0612 -0.0029 -0.4268
    7MOL   H258 2550   4.306   2.816   7.395 -2.6510  1.4386  0.7347
    7MOL   H259 2551   4.282   2.613   7.246  1.1322  0.8732  0.1152
    7MOL   H260 2552   4.269   2.531   7.055 -2.2029 -0.3801  1.0500
    7MOL   H261 2553   4.065   2.623   6.876 -1.1232 -1.9822  2.9383
    7MOL   H262 2554   4.355   2.615   6.774  1.2930  1.2994 -2.9532
    7MOL   H263 2555   4.204   2.624   6.674 -0.8184 -2.2230  1.1168
    7MOL   H264 2556   4.239   2.756   6.788  0.8589  0.2776 -2.9580
    7MOL   H265 2557   4.078   2.416   6.785 -0.9492  2.5103  0.9825
    7MOL   H266 2558   4.239   2.373   6.833  0.3139  0.5682  0.0112
    7MOL   H267 2559   4.099   2.385   6.959 -1.4688 -0.2389 -0.7921
    7MOL   C268 2560   4.103   2.659   7.353 -0.1867  0.8554 -0.0710
    7MOL   C269 2561   4.134   2.540   7.455  0.0969 -0.2454  0.2836
    7MOL   C270 2562   4.146   2.418   7.371 -0.4260  0.5124 -0.3939
    7MOL   O271 2563   4.249   2.385   7.318 -0.6806  0.2449 -0.9783
    7MOL   N272 2564   4.037   2.341   7.368 -0.4861  0.6751 -0.4324
    7MOL   C273 2565   4.018   2.248   7.263 -0.2938 -0.5149  0.5139
    7MOL   C274 2566   4.075   2.113   7.299 -0.9916 -0.3743  0.4440
    7MOL   C275 2567   3.861   2.235   7.240 -0.0129  0.4214 -0.1081
    7MOL   H276 2568   4.064   2.748   7.404  1.1691  1.0936  0.5545
    7MOL   H277 2569   4.010   2.633   7.302 -0.6626  2.1588  0.1047
    7MOL   H278 2570   4.055   2.544   7.530 -0.6886  2.4384 -0.6245
    7MOL   H279 2571   3.961   2.365   7.430 -0.6118  2.9485 -1.4195
    7MOL   H280 2572   4.068   2.292   7.177  0.5715 -0.8889  0.8193
    7MOL   H281 2573   4.035   2.079   7.394  0.3869  1.3558  1.6828
    7MOL   H282 2574   4.061   2.046   7.214  1.0109  2.1056 -1.9561
    7MOL   H283 2575   4.181   2.127   7.319 -1.3763  1.4395  1.3321
    7MOL   H284 2576   3.837   2.196   7.141  1.8597 -0.5464 -0.1984
    7MOL   H285 2577   3.804   2.166   7.302 -0.7205  0.3019 -0.8745
    7MOL   H286 2578   3.807   2.326   7.264 -0.5752 -0.2101  1.0275
    7MOL   C287 2579   4.260   2.573   7.529  0.1828 -0.3468 -0.2148
    7MOL   C288 2580   4.304   2.478   7.635 -0.1208  0.2635 -0.0086
    7MOL   C289 2581   4.185   2.444   7.735 -0.0026  0.2447 -0.5909
    7MOL   O290 2582   4.122   2.534   7.797  0.7629 -0.0906  0.6999
    7MOL   N291 2583   4.146   2.317   7.732 -0.0794 -0.2109  0.1935
    7MOL   C292 2584   4.047   2.245   7.814  0.5485 -0.4660 -0.4110
    7MOL   C293 2585   3.912   2.260   7.755  0.4061 -0.6538  0.0212
    7MOL   C294 2586   4.080   2.091   7.818 -0.4404 -0.2636  0.3992
    7MOL   H295 2587   4.341   2.571   7.457  1.1068 -0.0691  0.7981
    7MOL   H296 2588   4.262   2.676   7.564 -0.8607  0.7915 -3.3452
    7MOL   H297 2589   4.345   2.387   7.590 -0.0347  0.1760  0.2441
    7MOL   H298 2590   4.221   2.263   7.692  0.4800  0.8271 -0.1698
    7MOL   H299 2591   4.050   2.283   0.079 -0.3788  2.3594 -1.3961
    7MOL   H300 2592   3.889   2.367   7.752  2.8404 -0.1497 -2.5924
    7MOL   H301 2593   3.894   2.215   7.657 -1.4690  0.1083 -0.0141
    7MOL   H302 2594   3.837   2.218   7.821 -1.4419  1.0720 -0.8876
    7MOL   H303 2595   4.067   2.050   7.718 -1.6732  0.1056  0.3974
    7MOL   H304 2596   4.178   2.072   0.025 -0.3704  2.0184  1.2848
    7MOL   H305 2597   4.010   2.030   0.040  0.6332 -1.4508  0.4751
    7MOL   C306 2598   4.426   2.527   7.702  0.1858 -0.5738 -0.2551
    7MOL   C307 2599   4.554   2.560   7.628  0.3988  0.0588 -0.3596
    7MOL   C308 2600   4.616   2.438   7.555 -0.0233  0.4214 -0.4549
    7MOL   O309 2601   4.642   2.343   7.624  0.4865 -0.8945  0.2072
    7MOL   N310 2602   4.642   2.444   7.424  0.2722  0.1185  1.5207
    7MOL   C311 2603   4.695   2.343   7.333  0.1078 -0.7259 -0.6398
    7MOL   C312 2604   4.847   2.318   7.355 -0.4258  0.4142  0.0942
    7MOL   C313 2605   4.609   2.217   7.325 -0.4409 -0.1708 -0.4448
    7MOL   H314 2606   4.393   2.617   7.755  0.4590 -1.0063  0.6737
    7MOL   H315 2607   4.455   2.456   7.780  0.5307 -2.0093 -1.6795
    7MOL   H316 2608   4.532   2.629   7.547 -2.4420 -2.1976 -1.6089
    7MOL   H317 2609   4.615   2.532   7.382  1.5524  0.3527  1.1748
    7MOL   H318 2610   4.688   2.391   7.236  0.9579 -2.1665 -1.4299
    7MOL   H319 2611   4.908   2.403   7.324 -2.8142  2.2287  0.2885
    7MOL   H320 2612   4.892   2.229   7.310 -0.5918  0.4209 -0.0847
    7MOL   H321 2613   4.881   2.330   7.458  1.9453  2.1733 -0.8493
    7MOL   H322 2614   4.617   2.164   7.421  2.3229  2.1398  0.6992
    7MOL   H323 2615   4.640   2.146   7.249 -0.4623 -0.9185  0.2298
    7MOL   H324 2616   4.505   2.243   7.312 -0.0539  0.5532 -2.1499
    7MOL   C325 2617   4.654   2.616   7.725 -0.6021 -0.7858  0.2203
    7MOL   C326 2618   4.815   2.627   7.686 -0.0139  0.1844  0.4778
    7MOL   C327 2619   4.833   2.703   7.558  0.1783 -0.1636 -0.7396
    7MOL   O328 2620   4.766   2.805   7.542 -0.1511  0.0960 -0.0375
    7MOL   N329 2621   4.918   2.658   7.465 -0.2142  0.5726  0.9730
    7MOL   C330 2622   4.969   2.752   7.361 -0.5139 -0.4831  0.1147
    7MOL   C331 2623   5.000   2.675   7.234 -0.0700 -0.9954  0.4830
    7MOL   C332 2624   5.081   2.845   7.412  0.8353 -0.2928  0.1212
    7MOL   H333 2625   4.664   2.554   7.814  0.9726  0.6044  1.0365
    7MOL   H334 2626   4.619   2.714   7.760  0.6341 -0.0536 -0.5581
    7MOL   H335 2627   4.850   2.525   7.669  1.0551  0.8131 -1.1721
    7MOL   H336 2628   4.980   2.581   7.489  0.9705  0.4796 -2.1685
    7MOL   H337 2629   4.880   2.806   7.330  1.0278  1.8947 -0.3199
    7MOL   H338 2630   5.061   2.584   7.239 -0.3576 -1.2200 -0.1232
    7MOL   H339 2631   4.909   2.649   7.181  0.9616  0.9114 -2.3342
    7MOL   H340 2632   5.057   2.745   7.173  0.9425 -0.9977  1.4083
    7MOL   H341 2633   5.175   2.791   7.418 -0.1277 -1.8297  2.4596
    7MOL   H342 2634   5.068   2.894   7.509 -0.2375  0.7898 -0.5502
    7MOL   H343 2635   5.089   2.932   7.346 -2.3410 -0.9427 -1.2077
    7MOL   C344 2636   4.895   2.682   7.811  0.2467  0.1732 -0.2032
    7MOL   C345 2637   5.045   2.637   7.824 -0.1136 -0.5435 -0.3297
    7MOL   C346 2638   5.081   2.505   7.754 -0.1953 -0.4552  0.0905
    7MOL   O347 2639   5.121   2.507   7.640 -0.4122  0.2084  1.0753
    7MOL   N348 2640   5.040   2.395   7.819 -0.6567 -0.4433  0.3649
    7MOL   C349 2641   5.008   2.269   7.758  0.2620 -0.4142 -0.0033
    7MOL   C350 2642   5.122   2.165   7.766  0.0707 -0.0536 -0.1221
    7MOL   C351 2643   4.878   2.215   7.826  0.4811 -0.0117 -0.0290
    7MOL   H352 2644   4.840   2.644   0.061 -1.7642 -0.7555 -1.8281
    7MOL   H353 2645   4.884   2.790   7.821 -0.1145 -0.0242  1.8472
    7MOL   H354 2646   5.062   2.615   0.093  1.4908  0.2936 -0.4050
    7MOL   H355 2647   4.989   2.412   0.068 -1.6348 -0.3418 -0.2324
    7MOL   H356 2648   4.978   2.277   7.653  2.4976 -2.5905 -0.8699
    7MOL   H357 2649   5.099   2.070   7.717  0.3296 -0.0320 -0.2894
    7MOL   H358 2650   5.211   2.214   7.724  0.5624  0.9161  1.9705
    7MOL   H359 2651   5.138   2.153   0.036  0.5081  1.5724  0.0210
    7MOL   H360 2652   4.848   2.119   7.785 -1.0240  0.1943  0.5599
    7MOL   H361 2653   4.892   2.216   0.098  1.3349  0.7132 -0.1318
    7MOL   H362 2654   4.801   2.289   7.804 -2.8347 -3.2284  0.3127
    7MOL   C363 2655   5.142   2.748   7.781  0.0598  0.0978 -0.0977
    7MOL   C364 2656   5.289   2.731   7.827 -0.8325 -0.0918 -0.0506
    7MOL   C365 2657   5.319   2.739   0.141 -0.2898  0.3985  0.0186
    7MOL   O366 2658   5.252   2.822   0.200 -0.0353  0.0464  0.0882
    7MOL   N367 2659   5.419   2.673   0.199 -0.6705  0.0455  0.0313
    7MOL   C368 2660   5.437   2.671   0.342 -1.0436  0.4520  0.2612
    7MOL   C369 2661   5.334   2.569   0.405 -0.3237  0.4738  0.1025
    7MOL   C370 2662   5.583   2.643   0.372 -0.3106 -0.5723  0.0934
    7MOL   H371 2663   5.108   2.844   7.820  1.9812  0.8726 -0.2743
    7MOL   H372 2664   5.130   2.760   7.674  0.6041  0.1773 -0.1496
    7MOL   H373 2665   5.333   2.815   7.774  2.5354 -3.0413 -2.1633
    7MOL   H374 2666   5.480   2.622   0.137  0.7578  2.5546 -0.6636
    7MOL   H375 2667   5.417   2.770   0.383  1.4514  1.8337 -1.7034
    7MOL   H376 2668   5.332   2.577   0.514 -0.9768 -1.5951  0.2558
    7MOL   H377 2669   5.234   2.577   0.362 -0.4668 -1.5103  0.0315
    7MOL   H378 2670   5.367   2.471   0.374 -0.5439 -0.2043  1.9403
    7MOL   H379 2671   5.621   2.571   0.300  0.6314 -0.5161  0.5271
    7MOL   H380 2672   5.638   2.737   0.369  0.3438 -1.0003 -1.8340
    7MOL   H381 2673   5.592   2.611   0.476  1.9975 -2.1363 -0.5445
    7MOL   H382 2674   5.320   2.633   7.791 -0.7430  0.4249 -1.4022
    8MOL     C1 2675   2.311   1.156   5.553 -0.9317  0.6964  0.1129
    8MOL     C2 2676   2.376   1.295   5.550  0.2703  0.4335  0.2665
    8MOL     C3 2677   2.421   1.331   5.689  0.2372  0.6426 -0.1728
    8MOL     O4 2678   2.537   1.317   5.722  0.2499 -0.3355  0.7924
    8MOL     N5 2679   2.332   1.385   5.777 -0.0738  0.2158 -0.0887
    8MOL     C6 2680   2.367   1.445   5.908  0.1912  0.5647 -0.5747
    8MOL     C7 2681   2.347   1.596   5.912 -0.0219 -0.4449  0.8049
    8MOL     C8 2682   2.287   1.381   6.021 -0.6832 -0.6684  0.2984
    8MOL     H9 2683   2.266   1.140   5.455 -2.2220 -1.4566  1.0086
    8MOL    H10 2684   2.237   1.135   5.631 -0.4805 -2.4937 -0.2372
    8MOL    H11 2685   2.306   1.371   5.517  0.9668  0.9554 -0.0289
    8MOL    H12 2686   2.236   1.391   5.745  0.7187 -1.8042 -2.9909
    8MOL    H13 2687   2.469   1.419   5.938 -0.0914 -0.4706 -0.4930
    8MOL    H14 2688   2.428   1.640   5.854  0.2094  0.6537  1.9436
    8MOL    H15 2689   2.347   1.640   6.012 -1.7226  2.0656 -0.2537
    8MOL    H16 2690   2.249   1.614   5.869  0.9615  1.1300 -0.8391
    8MOL    H17 2691   2.317   1.426   6.116  3.0147  0.7216 -1.4216
    8MOL    H18 2692   2.180   1.391   6.002 -0.5425  1.2368  0.4074
    8MOL    H19 2693   2.298   1.274   6.004 -1.1002 -0.4629 -1.3185
    8MOL    H20 2694   2.378   1.072   5.575 -0.4967  1.0665  0.2035
    8MOL    C21 2695   2.487   1.292   5.438 -0.0269 -0.4815  0.1228
    8MOL    C22 2696   2.553   1.429   5.424  0.2959  1.1728  0.9288
    8MOL    C23 2697   2.466   1.527   5.350 -0.5933  0.1805  0.3050
    8MOL    O24 2698   2.434   1.509   5.234 -0.0173 -0.5489  0.1767
    8MOL    N25 2699   2.424   1.632   5.416  0.1703  0.7895  0.4429
    8MOL    C26 2700   2.304   1.714   5.379  0.4630  0.3289  0.2833
    8MOL    C27 2701   2.343   1.851   5.316  0.4731 -0.1007  0.0866
    8MOL    C28 2702   2.211   1.733   5.501 -0.5277  0.0037 -0.2444
    8MOL    H29 2703   2.442   1.249   5.348 -2.4651 -1.4224  1.7161
    8MOL    H30 2704   2.560   1.215   5.462  0.4558  0.4242  1.6197
    8MOL    H31 2705   2.576   1.470   5.522 -1.6787  1.9695  1.0911
    8MOL    H32 2706   2.467   1.659   5.503  0.4044 -1.5709  1.0940
    8MOL    H33 2707   2.253   1.661   5.298 -0.4042 -0.7016  1.4833
    8MOL    H34 2708   2.388   1.832   5.219 -0.3278  2.0763 -0.7294
    8MOL    H35 2709   2.418   1.913   5.367  0.1690  1.6742 -1.5473
    8MOL    H36 2710   2.257   1.915   5.296  0.5661  0.0829  0.2606
    8MOL    H37 2711   2.254   1.741   5.601  0.2430 -1.6841 -0.4242
    8MOL    H38 2712   2.155   1.825   5.484 -1.2106 -0.8677 -2.9511
    8MOL    H39 2713   2.142   1.651   5.517 -2.0099  1.3903  0.6598
    8MOL    C40 2714   2.683   1.413   5.343 -0.6356  0.2108  0.3155
    8MOL    C41 2715   2.793   1.320   5.401  0.9793 -0.1611  0.2062
    8MOL    C42 2716   2.930   1.390   5.427  0.7350  0.1649 -0.0377
    8MOL    O43 2717   2.989   1.460   5.342  0.1502  0.3667 -0.5697
    8MOL    N44 2718   2.982   1.365   5.549  0.1108  0.2724 -0.7515
    8MOL    C45 2719   3.107   1.427   5.594  0.9392 -0.1976  0.0682
    8MOL    C46 2720   3.106   1.462   5.745  0.1497  0.2710  0.1211
    8MOL    C47 2721   3.231   1.347   5.563  0.0060 -0.0926 -0.3325
    8MOL    H48 2722   2.727   1.512   5.330 -1.8536  0.4789 -1.9921
    8MOL    H49 2723   2.660   1.382   5.241  0.3916 -3.8841  1.2131
    8MOL    H50 2724   2.761   1.291   5.501  1.0708  0.0932  0.3071
    8MOL    H51 2725   2.941   1.289   5.602  3.6088  0.2000  2.0585
    8MOL    H52 2726   3.118   1.524   5.545 -0.8429  0.5337  1.0385
    8MOL    H53 2727   3.200   1.511   5.769  0.9454 -2.0524  1.9382
    8MOL    H54 2728   3.093   1.377   5.812 -1.0776  0.8104  0.5686
    8MOL    H55 2729   3.026   1.534   5.761 -0.7323 -1.1729  2.4849
    8MOL    H56 2730   3.223   1.253   5.618  1.3534  0.4306  0.7820
    8MOL    H57 2731   3.319   1.391   5.610 -1.5441 -0.5286  3.1260
    8MOL    H58 2732   3.251   1.329   5.458  1.0293 -1.1347  0.0308
    8MOL    C59 2733   2.808   1.198   5.302  0.2780 -0.1832 -0.0278
    8MOL    C60 2734   2.897   1.070   5.329  0.6725 -0.0246  0.0763
    8MOL    C61 2735   2.876   1.001   5.465 -0.2221 -0.1002  0.0800
    8MOL    O62 2736   2.886   1.079   5.562 -0.0740 -0.4194 -0.3456
    8MOL    N63 2737   2.849   0.869   5.463  0.5914 -0.3615 -0.0814
    8MOL    C64 2738   2.815   0.800   5.589 -0.2843  0.5453  0.7198
    8MOL    C65 2739   2.713   0.686   5.558 -0.7127 -0.7622 -0.4397
    8MOL    C66 2740   2.938   0.739   5.657 -0.6531 -0.0590 -0.1353
    8MOL    H67 2741   2.707   1.160   5.284  0.9490 -1.4952 -1.1097
    8MOL    H68 2742   2.840   1.234   5.204 -0.2958  1.2194  0.2843
    8MOL    H69 2743   2.857   1.009   5.248  1.3806  0.4505 -0.6419
    8MOL    H70 2744   2.839   0.815   5.378  1.5060 -3.3892  1.6853
    8MOL    H71 2745   2.760   0.865   5.657 -1.6494 -0.2269  0.3706
    8MOL    H72 2746   2.759   0.620   5.485 -0.0450  1.3930 -2.0068
    8MOL    H73 2747   2.675   0.640   5.649 -0.9580  2.5957  1.2471
    8MOL    H74 2748   2.632   0.733   5.503 -0.5381 -1.6989 -1.5256
    8MOL    H75 2749   2.910   0.685   5.747  1.9083  1.7609  1.8315
    8MOL    H76 2750   2.997   0.669   5.598  2.5883  0.6087  2.1623
    8MOL    H77 2751   3.002   0.822   5.687 -2.0484  1.4986 -1.3778
    8MOL    C78 2752   3.048   1.094   5.302  0.8390 -0.0257  0.0043
    8MOL    C79 2753   3.144   0.964   5.315  0.8423 -0.7218  0.6105
    8MOL    C80 2754   3.106   0.842   5.221 -0.3565  0.1193 -0.0400
    8MOL    O81 2755   3.061   0.873   5.110  0.1361 -0.1921 -0.1860
    8MOL    N82 2756   3.127   0.714   5.261 -0.7764  0.3396 -0.1267
    8MOL    C83 2757   3.082   0.594   5.191  1.0549  0.2062 -0.6982
    8MOL    C84 2758   3.202   0.535   5.119  0.2819  0.4376  0.6475
    8MOL    C85 2759   3.023   0.493   5.288 -0.2226 -0.7113 -0.1184
    8MOL    H86 2760   3.084   1.170   5.372  0.2375 -0.3461  0.6680
    8MOL    H87 2761   3.060   1.136   5.203  2.0957  0.3904  0.3271
    8MOL    H88 2762   3.126   0.930   5.417 -1.3596  0.3062  0.6117
    8MOL    H89 2763   3.195   0.711   5.336 -0.9959 -0.6349  0.0498
    8MOL    H90 2764   3.005   0.622   5.118  1.9255 -0.2746 -1.8254
    8MOL    H91 2765   3.171   0.443   5.070 -0.0540  2.0472 -2.2840
    8MOL    H92 2766   3.242   0.601   5.042  0.0769  0.0694  0.2252
    8MOL    H93 2767   3.289   0.514   5.181  0.7411  0.0535 -0.1212
    8MOL    H94 2768   3.101   0.458   5.356 -1.5466 -2.5989  0.4584
    8MOL    H95 2769   2.991   0.405   5.234 -0.4101  0.4427 -1.9118
    8MOL    H96 2770   2.947   0.539   5.351  1.0516  0.1448  0.8472
    8MOL    C97 2771   3.285   1.013   5.303 -0.7290  0.2253  0.7395
    8MOL    C98 2772   3.406   0.918   5.321  0.2724  0.3153 -0.7042
    8MOL    C99 2773   3.377   0.847   5.454 -0.0936 -0.2990 -0.0617
    8MOL   O100 2774   3.340   0.731   5.460  0.3431 -0.3597 -0.4236
    8MOL   N101 2775   3.401   0.922   5.564  0.8211 -0.0424  0.9156
    8MOL   C102 2776   3.414   0.874   5.696 -0.0691  0.4411 -0.2059
    8MOL   C103 2777   3.495   0.966   5.789  0.1992  0.2318 -0.3177
    8MOL   C104 2778   3.280   0.856   5.760 -0.0032  0.6630  0.7664
    8MOL   H105 2779   3.298   1.107   5.357  2.7816  0.6210 -0.6735
    8MOL   H106 2780   3.294   1.044   5.199  0.9553  1.1519  1.1433
    8MOL   H107 2781   3.398   0.841   5.244  0.9325  0.8691 -1.3412
    8MOL   H108 2782   3.422   1.018   5.545  0.8512 -0.3063 -0.4403
    8MOL   H109 2783   3.458   0.775   5.697  0.5217  0.7033  0.0141
    8MOL   H110 2784   3.602   0.970   5.766  0.9244  1.0952  2.9166
    8MOL   H111 2785   3.458   1.067   5.772 -1.6671 -0.4938 -0.6542
    8MOL   H112 2786   3.482   0.961   5.897  0.3806 -1.9013 -0.3864
    8MOL   H113 2787   3.285   0.798   5.852  2.4637 -1.5296 -0.6848
    8MOL   H114 2788   3.218   0.796   5.694  0.5233 -0.4984  1.3263
    8MOL   H115 2789   3.235   0.953   5.780 -0.5178  0.5968 -0.0593
    8MOL   C116 2790   3.541   0.989   5.308  0.0549  0.0640 -0.2594
    8MOL   C117 2791   3.670   0.911   5.327 -0.0870 -0.3928  0.4312
    8MOL   C118 2792   3.712   0.866   5.469 -0.0184  0.8172  0.4091
    8MOL   O119 2793   3.717   0.944   5.564  0.3923  0.9329 -0.5168
    8MOL   N120 2794   3.760   0.742   5.483 -0.3691  0.4546  0.2327
    8MOL   C121 2795   3.772   0.681   5.616  0.4561  0.8478 -0.3524
    8MOL   C122 2796   3.672   0.569   5.647 -0.0991 -0.0749 -0.0915
    8MOL   C123 2797   3.912   0.633   5.643  0.6992  0.1635  0.3090
    8MOL   H124 2798   3.534   1.070   5.380  0.8508 -0.1100  0.0212
    8MOL   H125 2799   3.541   1.032   5.208 -1.8645 -0.4070 -0.4833
    8MOL   H126 2800   3.648   0.815   5.280  2.3549  0.1671 -2.0235
    8MOL   H127 2801   3.778   0.685   5.401  0.4648  1.0049  0.0174
    8MOL   H128 2802   3.752   0.752   5.696 -3.1225 -1.5145  0.9616
    8MOL   H129 2803   3.685   0.535   5.749  1.0807  0.9016  0.1030
    8MOL   H130 2804   3.691   0.475   5.595  0.1489  0.3929 -0.8547
    8MOL   H131 2805   3.568   0.597   5.631 -0.8624 -2.1186  1.2159
    8MOL   H132 2806   3.989   0.704   5.613  1.9356 -1.3345 -0.1549
    8MOL   H133 2807   3.932   0.603   5.747 -0.4813 -2.1127 -0.0778
    8MOL   H134 2808   3.928   0.547   5.579  0.3604  0.9572 -0.8428
    8MOL   C135 2809   3.784   0.981   5.242  1.0407 -0.0402 -0.5647
    8MOL   C136 2810   3.801   1.135   5.262  0.3001  0.3154  0.1520
    8MOL   C137 2811   3.908   1.166   5.367 -0.6565 -0.0522 -0.3525
    8MOL   O138 2812   4.027   1.185   5.333 -0.2422  0.2330  0.1908
    8MOL   N139 2813   3.873   1.165   5.492  0.4745  0.4972  0.0581
    8MOL   C140 2814   3.957   1.195   5.610 -0.5552 -0.1452  0.5006
    8MOL   C141 2815   3.919   1.114   5.732  0.5990 -0.4655 -0.1597
    8MOL   C142 2816   3.965   1.343   5.633  0.5032  0.4422 -0.3394
    8MOL   H143 2817   3.779   0.949   5.138 -1.7564  0.8375 -0.7481
    8MOL   H144 2818   3.882   0.941   5.269 -0.3707 -1.8042  2.1833
    8MOL   H145 2819   3.715   1.171   5.319  0.0980 -1.3877  0.9601
    8MOL   H146 2820   3.779   1.135   5.513  0.6515  1.1992  1.9469
    8MOL   H147 2821   4.062   1.180   5.587 -0.7890  1.4826 -1.7700
    8MOL   H148 2822   3.971   1.144   5.823  0.4105 -0.0649 -0.1828
    8MOL   H149 2823   3.811   1.118   5.750  0.4365  0.6693 -1.3699
    8MOL   H150 2824   3.937   1.008   5.716  0.1428 -0.8278  1.5888
    8MOL   H151 2825   3.870   1.390   5.658  0.3032  0.0972 -0.4694
    8MOL   H152 2826   4.011   1.403   5.554  1.3924 -0.3400 -0.4289
    8MOL   H153 2827   4.033   1.364   5.716  2.2854 -0.8834 -1.4294
    8MOL   C154 2828   3.802   1.217   5.130 -0.1421 -0.2020  0.1451
    8MOL   C155 2829   3.736   1.359   5.135 -0.3209  0.1762  0.3893
    8MOL   C156 2830   3.586   1.347   5.131  0.3094  0.3140 -0.2555
    8MOL   O157 2831   3.530   1.260   5.055  0.1343 -0.0197 -0.4116
    8MOL   N158 2832   3.515   1.438   5.208  0.3990  0.7996 -0.0194
    8MOL   C159 2833   3.372   1.455   5.195 -0.7853  0.0822  0.7950
    8MOL   C160 2834   3.349   1.505   5.050 -0.2192 -0.2958  0.1755
    8MOL   C161 2835   3.320   1.557   5.295  0.1718  0.4604 -0.3491
    8MOL   H162 2836   3.754   1.153   5.056 -0.7989 -0.2990  0.6485
    8MOL   H163 2837   3.908   1.223   5.105  0.3533  0.0089  2.1878
    8MOL   H164 2838   3.780   1.421   5.213  0.3807 -1.0060  0.9416
    8MOL   H165 2839   3.566   1.487   5.281  0.9182 -0.0400  0.1964
    8MOL   H166 2840   3.334   1.355   5.210  0.1879 -0.2797  0.9248
    8MOL   H167 2841   3.243   1.517   5.028 -0.0636 -0.2523 -0.5886
    8MOL   H168 2842   3.413   1.591   5.028  0.7762 -1.0817 -0.0297
    8MOL   H169 2843   3.386   1.432   4.978 -0.3516 -1.6283  1.4337
    8MOL   H170 2844   3.334   1.517   5.396 -1.4422 -0.5969 -0.5209
    8MOL   H171 2845   3.212   1.567   5.285  0.2456  2.1420  0.3168
    8MOL   H172 2846   3.358   1.658   5.288  1.4671  0.3749  3.9885
    8MOL   C173 2847   3.760   1.428   4.999  0.1988 -0.2351 -0.0514
    8MOL   C174 2848   3.744   1.585   4.990  0.3231  0.5812  0.7245
    8MOL   C175 2849   3.872   1.651   5.032 -0.0628  0.2248  0.1681
    8MOL   O176 2850   3.943   1.711   4.952  0.3928  0.4723  0.4758
    8MOL   N177 2851   3.905   1.646   5.161 -0.4483 -0.1088 -0.3096
    8MOL   C178 2852   4.039   1.661   5.227 -0.2095  0.0290  0.6871
    8MOL   C179 2853   4.101   1.799   5.189  0.0952 -0.4503 -0.0740
    8MOL   C180 2854   4.140   1.548   5.194  0.0908  0.1233 -0.2729
    8MOL   H181 2855   3.697   1.381   4.923  1.0818 -1.0030 -0.3128
    8MOL   H182 2856   3.858   1.396   4.964  0.4920 -1.0197  1.4358
    8MOL   H183 2857   3.658   1.613   5.051  0.2839 -1.4915  1.6872
    8MOL   H184 2858   3.827   1.623   5.220 -0.8968 -0.0285 -0.8641
    8MOL   H185 2859   4.029   1.644   5.334  0.5691 -1.8346  0.4826
    8MOL   H186 2860   4.196   1.824   5.235 -1.2486  2.6094  1.1801
    8MOL   H187 2861   4.027   1.876   5.214  0.3591 -0.3023  0.2494
    8MOL   H188 2862   4.128   1.801   5.083  1.4146 -1.1706  0.2431
    8MOL   H189 2863   4.171   1.546   5.090  1.0879 -0.1426  0.0144
    8MOL   H190 2864   4.095   1.451   5.216 -1.9223  1.2136  0.5226
    8MOL   H191 2865   4.231   1.554   5.255 -0.8557 -2.3304  1.5072
    8MOL   C192 2866   3.697   1.628   4.840 -0.1574  0.2019  0.0301
    8MOL   C193 2867   3.672   1.785   4.826 -0.3433  0.3989 -0.3559
    8MOL   C194 2868   3.575   1.844   4.928  0.6340  0.2112 -0.3386
    8MOL   O195 2869   3.455   1.837   4.907 -0.3464  0.1090 -0.0651
    8MOL   N196 2870   3.632   1.923   5.019  0.1172  0.1321  0.0079
    8MOL   C197 2871   3.572   1.962   5.145  0.2581 -0.3390  0.2699
    8MOL   C198 2872   3.638   1.874   5.250  0.9461  0.0268 -0.1397
    8MOL   C199 2873   3.584   2.118   5.163  0.1648  0.3575 -0.0420
    8MOL   H200 2874   3.604   1.580   4.812  0.6091 -0.8951 -0.6865
    8MOL   H201 2875   3.774   1.605   4.765  0.8590 -1.0583  1.4423
    8MOL   H202 2876   3.772   1.828   4.837  0.2373 -0.9048 -0.4720
    8MOL   H203 2877   3.733   1.924   5.018  0.1161 -0.3882 -1.5945
    8MOL   H204 2878   3.466   1.937   5.150  0.3619 -1.2806 -1.6990
    8MOL   H205 2879   3.605   1.909   5.348 -2.2901 -1.4012 -0.6449
    8MOL   H206 2880   3.745   1.885   5.263  0.3359  3.0285  2.9853
    8MOL   H207 2881   3.616   1.767   5.248  1.8475 -0.1648  0.0040
    8MOL   H208 2882   3.685   2.153   5.186  0.9143 -2.3361  0.8576
    8MOL   H209 2883   3.503   2.156   5.226 -0.1656 -0.4694  0.0326
    8MOL   H210 2884   3.560   2.163   5.067  2.0214  0.0454 -0.6575
    8MOL   C211 2885   3.634   1.828   4.677 -0.0309 -0.4525 -0.3007
    8MOL   C212 2886   3.610   1.975   4.639  0.3951  0.2857 -0.2584
    8MOL   C213 2887   3.736   2.060   4.636  0.0499  0.5465 -1.0512
    8MOL   O214 2888   3.803   2.074   4.530 -0.4048  0.9222  0.1510
    8MOL   N215 2889   3.773   2.112   4.753  0.0428 -0.1061 -0.2208
    8MOL   C216 2890   3.905   2.152   4.785  0.4741 -0.4094 -0.0199
    8MOL   C217 2891   3.984   2.027   4.830  0.4133 -0.3176 -0.6253
    8MOL   C218 2892   3.892   2.265   4.886 -0.5387 -0.1584 -0.5459
    8MOL   H219 2893   3.541   1.774   4.658 -0.6482 -0.1257  1.6138
    8MOL   H220 2894   3.712   1.785   4.615  0.7667  1.3108 -0.5709
    8MOL   H221 2895   3.548   2.006   4.722 -0.3485 -1.5608 -0.0918
    8MOL   H222 2896   3.709   2.084   4.826 -0.8215  1.7471 -0.2485
    8MOL   H223 2897   3.957   2.179   4.693  1.2992  0.4940  0.7026
    8MOL   H224 2898   3.949   1.983   4.923 -1.9825 -0.5713 -1.6231
    8MOL   H225 2899   3.972   1.952   4.752 -0.6657 -0.8451  0.0383
    8MOL   H226 2900   4.088   2.060   4.843  0.5726 -0.9613 -0.2551
    8MOL   H227 2901   3.837   2.348   4.840 -1.1017 -0.3562 -0.2408
    8MOL   H228 2902   3.989   2.303   4.917 -1.3952  1.9038 -0.2594
    8MOL   H229 2903   3.841   2.243   4.980 -2.6629 -0.2427 -1.6808
    8MOL   C230 2904   3.534   1.989   4.512 -0.1945  0.3343  0.3922
    8MOL   C231 2905   3.379   1.936   4.509 -0.0913  0.2129 -0.5818
    8MOL   C232 2906   3.298   2.038   4.589  0.7878 -0.3880 -0.2524
    8MOL   O233 2907   3.274   2.149   4.541  1.0002 -0.4985  0.4731
    8MOL   N234 2908   3.265   2.015   4.719 -0.2662  0.1090 -0.1850
    8MOL   C235 2909   3.165   2.093   4.809 -0.2009  0.4207  0.4930
    8MOL   C236 2910   3.069   1.989   4.876 -0.2320  0.2682 -0.0419
    8MOL   C237 2911   3.242   2.181   4.905 -0.1139  0.0288 -0.0420
    8MOL   H238 2912   3.592   1.936   4.436  0.3413 -1.1220  1.7941
    8MOL   H239 2913   3.527   2.093   4.480 -1.2484 -0.2527 -1.3555
    8MOL   H240 2914   3.353   1.834   4.537 -0.2539 -0.1708 -2.0805
    8MOL   H241 2915   3.319   1.945   4.769  1.1332 -1.1640 -3.3403
    8MOL   H242 2916   3.093   2.152   4.752 -1.6137 -2.8744 -1.2384
    8MOL   H243 2917   2.997   1.949   4.805 -0.3720 -1.6552  1.1469
    8MOL   H244 2918   3.126   1.902   4.911 -0.4141 -0.0544 -0.5378
    8MOL   H245 2919   3.000   2.028   4.950  0.2847 -2.0312  1.7140
    8MOL   H246 2920   3.292   2.266   4.858 -1.4582  0.5046 -0.6634
    8MOL   H247 2921   3.318   2.127   4.960 -0.2463  2.0241  2.1940
    8MOL   H248 2922   3.177   2.207   4.989 -0.1147 -2.3544  0.7170
    8MOL   C249 2923   3.315   1.946   4.364  0.0945 -0.1715  0.7545
    8MOL   C250 2924   3.162   1.911   4.359 -0.2892  0.3930 -0.0389
    8MOL   C251 2925   3.142   1.766   4.410  0.6983  0.7374  0.5211
    8MOL   O252 2926   3.214   1.672   4.365 -0.3044  0.8077  0.9233
    8MOL   N253 2927   3.046   1.752   4.504  0.3467  0.5562 -0.9215
    8MOL   C254 2928   3.005   1.622   4.569  0.4465  0.1907 -0.3045
    8MOL   C255 2929   3.041   1.643   4.722  0.0541 -0.5121 -0.6385
    8MOL   C256 2930   2.864   1.585   4.521 -0.5062 -0.0629 -0.3435
    8MOL   H257 2931   3.369   1.875   4.302 -0.6674  0.9017 -1.1769
    8MOL   H258 2932   3.346   2.042   4.323 -0.0495 -0.0965  0.8206
    8MOL   H259 2933   3.107   1.973   4.430  2.0093  0.8022  1.4266
    8MOL   H260 2934   2.998   1.834   4.538 -1.7662  0.1553 -2.8408
    8MOL   H261 2935   3.071   1.547   4.526  1.2649  0.0316  1.1703
    8MOL   H262 2936   3.146   1.642   4.753 -0.2110  1.5834  0.4089
    8MOL   H263 2937   3.002   1.733   4.768 -0.1360 -1.1764  0.5114
    8MOL   H264 2938   2.990   1.564   4.777 -1.8815  1.1786  0.0342
    8MOL   H265 2939   2.840   1.495   4.577  0.8750 -0.5678 -0.5322
    8MOL   H266 2940   2.786   1.660   4.532  0.4738  0.6325  2.0973
    8MOL   H267 2941   2.869   1.552   4.417 -1.2579 -0.8791 -0.1276
    8MOL   C268 2942   3.098   1.916   4.209  0.1312 -0.7082  0.2237
    8MOL   C269 2943   3.116   2.047   4.134 -0.0777 -0.0911 -0.3270
    8MOL   C270 2944   3.057   2.042   3.992 -0.6426  0.0354 -0.3006
    8MOL   O271 2945   2.932   2.059   3.977 -0.5015  0.1581  0.1771
    8MOL   N272 2946   3.144   2.009   3.896 -0.1505  0.1326  0.4145
    8MOL   C273 2947   3.112   2.005   3.751  0.7627  0.7222  0.0610
    8MOL   C274 2948   3.114   2.154   3.692  0.7637 -0.4642  0.5025
    8MOL   C275 2949   3.198   1.911   3.684  0.1617 -0.3112 -0.1096
    8MOL   H276 2950   3.129   1.833   4.146 -0.2238 -0.8776  0.2720
    8MOL   H277 2951   2.991   1.904   4.220 -0.1996  0.3070 -1.6489
    8MOL   H278 2952   3.224   2.044   4.116  0.0667  0.0792  0.4749
    8MOL   H279 2953   3.242   2.004   3.917  0.0892  1.1563 -0.3703
    8MOL   H280 2954   3.010   1.967   3.744  0.7575  1.0106 -1.7312
    8MOL   H281 2955   3.069   2.164   3.593  1.7657 -0.7328  0.0143
    8MOL   H282 2956   3.060   2.227   3.752  2.8459  0.0005  1.8793
    8MOL   H283 2957   3.214   2.197   3.684 -0.7097  3.0393  0.0998
    8MOL   H284 2958   3.180   1.902   3.577  0.7417 -1.6478 -0.1017
    8MOL   H285 2959   3.303   1.929   3.710  0.7545 -0.7739 -2.1315
    8MOL   H286 2960   3.157   1.819   3.724 -1.4913  1.3964  2.2833
    8MOL   C287 2961   3.073   2.178   4.213  0.0713  0.3189 -0.5118
    8MOL   C288 2962   3.132   2.313   4.156  0.3080 -1.0182  0.2251
    8MOL   C289 2963   3.058   2.378   4.031 -0.6880 -0.5387  0.6152
    8MOL   O290 2964   3.124   2.422   3.935  0.0007 -0.1881  0.2279
    8MOL   N291 2965   2.926   2.384   4.044 -0.4392 -0.1904 -0.6785
    8MOL   C292 2966   2.838   2.453   3.953 -0.4690 -0.1304 -0.2368
    8MOL   C293 2967   2.701   2.388   3.981  0.4556 -0.2279  0.3016
    8MOL   C294 2968   2.845   2.608   3.980  0.4783 -0.3971 -0.6331
    8MOL   H295 2969   2.968   2.187   4.242  0.1734  0.3509 -0.1519
    8MOL   H296 2970   3.119   2.166   4.311 -1.1051  0.9526  0.1313
    8MOL   H297 2971   3.104   2.382   4.235  0.1860  2.3228 -2.5902
    8MOL   H298 2972   2.877   2.351   4.126 -0.4784  1.6227  0.0374
    8MOL   H299 2973   2.875   2.430   3.853  0.4424 -0.5494  0.1868
    8MOL   H300 2974   2.703   2.282   3.959 -0.5146 -0.6111  1.9892
    8MOL   H301 2975   2.675   2.395   4.087 -0.1006  1.7356  0.0642
    8MOL   H302 2976   2.617   2.435   3.929 -0.2938  0.0815  1.7638
    8MOL   H303 2977   2.858   2.623   4.087  1.6897  1.2915 -0.9954
    8MOL   H304 2978   2.935   2.656   3.942  0.8535  0.4454  1.2583
    8MOL   H305 2979   2.755   2.661   3.949  1.0595  0.9332 -0.0786
    8MOL   C306 2980   3.285   2.304   4.138 -0.5874  0.9856  0.0431
    8MOL   C307 2981   3.363   2.436   4.161  0.4853 -0.0475  0.0054
    8MOL   C308 2982   3.480   2.440   4.065  0.0300  0.4891  0.4441
    8MOL   O309 2983   3.599   2.422   4.100  0.4182 -0.5699  0.1821
    8MOL   N310 2984   3.454   2.477   3.941 -0.5030  0.6580  0.6759
    8MOL   C311 2985   3.555   2.486   3.835 -0.0357  0.1990 -0.4896
    8MOL   C312 2986   3.538   2.384   3.714  0.5881 -0.6964  0.6462
    8MOL   C313 2987   3.554   2.629   3.776 -0.0705 -0.3985 -0.5350
    8MOL   H314 2988   3.327   2.235   4.211 -0.1278 -0.2780 -1.3895
    8MOL   H315 2989   3.302   2.266   4.037  0.1601  1.6645 -0.0988
    8MOL   H316 2990   3.302   2.520   4.127  1.9107  1.0365  0.1222
    8MOL   H317 2991   3.358   2.485   3.912 -0.4638 -0.1221  0.3246
    8MOL   H318 2992   3.657   2.468   3.868  0.0635 -0.3950 -1.0999
    8MOL   H319 2993   3.456   2.403   3.645  0.9464 -0.6790  0.2241
    8MOL   H320 2994   3.542   2.280   3.745  3.0782 -1.4745 -2.0777
    8MOL   H321 2995   3.634   2.384   3.662  1.2545  0.7684  1.8392
    8MOL   H322 2996   3.628   2.648   3.698  0.7026  0.4170  0.3872
    8MOL   H323 2997   3.571   2.709   3.848  2.0781 -1.3578  0.0587
    8MOL   H324 2998   3.458   2.651   3.730  0.2560  1.3227 -0.4142
    8MOL   C325 2999   3.398   2.458   4.305 -0.2221 -0.4950 -0.2224
    8MOL   C326 3000   3.441   2.594   4.361 -0.0514  0.2507 -0.5452
    8MOL   C327 3001   3.346   2.703   4.327  0.3108 -0.3092  0.2444
    8MOL   O328 3002   3.246   2.732   4.404 -1.3792  0.2286 -0.1715
    8MOL   N329 3003   3.358   2.768   4.212  0.1477  0.5266 -0.0574
    8MOL   C330 3004   3.263   2.853   4.144  0.2017  0.8405  0.7594
    8MOL   C331 3005   3.141   2.780   4.093  0.5272  0.2354  0.7605
    8MOL   C332 3006   3.326   2.933   4.029 -0.1545  0.1821  0.4971
    8MOL   H333 3007   3.469   2.377   4.323  0.5194  0.1066 -0.4489
    8MOL   H334 3008   3.308   2.436   4.364 -0.9239  1.3939 -0.5786
    8MOL   H335 3009   3.540   2.618   4.323  0.6369 -2.2723 -0.4401
    8MOL   H336 3010   3.437   2.745   4.155 -1.1697 -0.2214 -1.6019
    8MOL   H337 3011   3.223   2.925   4.216  1.0882  0.1788  1.9194
    8MOL   H338 3012   3.065   2.848   4.053  1.8836  0.4515 -1.4778
    8MOL   H339 3013   3.168   2.716   4.009 -0.5094  1.0278 -0.2044
    8MOL   H340 3014   3.085   2.725   4.169  0.8574  0.5328  1.2232
    8MOL   H341 3015   3.324   2.889   3.930 -1.0343 -1.3586  1.1702
    8MOL   H342 3016   3.433   2.948   4.040  0.1030 -1.1927 -0.0770
    8MOL   H343 3017   3.304   3.039   4.025 -3.1126 -0.4625 -2.1820
    8MOL   C344 3018   3.471   2.592   4.518  0.1714 -0.0770  0.2759
    8MOL   C345 3019   3.583   2.500   4.570  0.3560  0.1982  0.0648
    8MOL   C346 3020   3.727   2.531   4.519 -1.0007  0.3819  0.2908
    8MOL   O347 3021   3.774   2.640   4.547 -0.6844 -0.0561 -0.7627
    8MOL   N348 3022   3.791   2.437   4.441 -0.5739 -0.0213  0.2629
    8MOL   C349 3023   3.927   2.455   4.391  0.3307  1.2114 -0.1037
    8MOL   C350 3024   4.025   2.412   4.500  0.1077 -0.1092  0.4813
    8MOL   C351 3025   3.950   2.374   4.260 -0.1270 -0.5586 -0.2531
    8MOL   H352 3026   3.379   2.566   4.571 -0.5552 -0.5827 -1.1925
    8MOL   H353 3027   3.496   2.695   4.545 -0.4205  0.4121 -0.9609
    8MOL   H354 3028   3.548   2.402   4.537  0.2632  0.0445  0.6178
    8MOL   H355 3029   3.735   2.368   4.392 -1.1855 -0.0443  0.9912
    8MOL   H356 3030   3.935   2.560   4.365 -0.5608  1.1882 -0.4900
    8MOL   H357 3031   4.122   2.443   4.461 -0.7791  0.4373 -1.3942
    8MOL   H358 3032   4.006   2.467   4.592 -0.1965  0.4135  0.1089
    8MOL   H359 3033   4.015   2.304   4.506 -3.5255 -0.1089 -3.1417
    8MOL   H360 3034   3.947   2.270   4.291  2.6282 -0.6820 -0.2690
    8MOL   H361 3035   3.876   2.411   4.188 -0.7793  0.9780  1.1694
    8MOL   H362 3036   4.050   2.393   4.221 -0.1558 -1.3636 -0.7240
    8MOL   C363 3037   3.572   2.491   4.730  0.0765  0.9719  0.0314
    8MOL   C364 3038   3.651   2.584   4.816 -0.1223 -0.0327 -0.5119
    8MOL   C365 3039   3.586   2.721   4.825  0.0185  0.5459 -0.7521
    8MOL   O366 3040   3.469   2.726   4.868  0.1738  0.3804  0.2357
    8MOL   N367 3041   3.646   2.821   4.769 -0.9525 -0.3023  0.4717
    8MOL   C368 3042   3.612   2.963   4.742  0.1896 -0.3769 -0.2968
    8MOL   C369 3043   3.628   3.054   4.866 -0.3717 -0.1095 -0.4996
    8MOL   C370 3044   3.703   3.006   4.637 -0.0698  0.1317 -0.5121
    8MOL   H371 3045   3.621   2.396   4.750 -0.5152  0.6968  0.1989
    8MOL   H372 3046   3.466   2.483   4.753 -0.2852  1.4415 -1.3989
    8MOL   H373 3047   3.753   2.597   4.782  0.4407 -0.8726  0.8108
    8MOL   H374 3048   3.725   2.792   4.714 -1.5960 -0.9879 -0.0943
    8MOL   H375 3049   3.512   2.962   4.699  0.7714 -0.1679 -1.7062
    8MOL   H376 3050   3.557   3.137   4.873 -0.9804 -0.6328 -0.4171
    8MOL   H377 3051   3.612   3.000   4.959 -0.7415 -0.9146 -1.0270
    8MOL   H378 3052   3.729   3.094   4.860 -0.8418  1.0574 -0.8378
    8MOL   H379 3053   3.693   2.950   4.544 -4.4699  2.2554 -1.4441
    8MOL   H380 3054   3.686   3.108   4.601  1.3196  0.0175 -1.5712
    8MOL   H381 3055   3.806   3.000   4.673  0.0542  1.1548 -0.6591
    8MOL   H382 3056   3.669   2.537   4.913  1.3445  0.9377 -0.3045
    9MOL     C1 3057   5.983   6.655   0.157 -0.1501 -0.5835  0.0891
    9MOL     C2 3058   6.116   6.731   0.135 -0.2931 -0.3855 -0.7296
    9MOL     C3 3059   6.090   6.891   0.145  0.5620 -0.0523  0.4763
    9MOL     O4 3060   6.038   6.929   0.253  0.1150  0.1434 -0.1186
    9MOL     N5 3061   6.123   6.971   0.046  0.3871  0.2298 -0.1242
    9MOL     C6 3062   6.093   7.115   0.031 -0.1798 -0.5491  0.3884
    9MOL     C7 3063   6.225   7.178   0.074 -0.5252 -0.7012  0.1843
    9MOL     C8 3064   6.057   7.144   7.725  0.2804 -0.3492  0.6470
    9MOL     H9 3065   5.988   6.552   0.122  1.0795 -0.1309 -1.1085
    9MOL    H10 3066   5.903   6.705   0.102  2.5408  1.5800 -2.0358
    9MOL    H11 3067   6.147   6.700   0.035 -1.9986 -0.9020 -1.1018
    9MOL    H12 3068   6.162   6.930   7.799 -0.3692 -0.9360  0.0796
    9MOL    H13 3069   6.012   7.148   0.095 -0.3566 -0.1915 -0.0172
    9MOL    H14 3070   6.231   7.154   0.180 -1.0649 -1.2825  0.0869
    9MOL    H15 3071   6.218   7.287   0.070 -1.3541 -0.7845 -0.9346
    9MOL    H16 3072   6.313   7.138   0.024  0.5425  2.2261 -0.3902
    9MOL    H17 3073   6.046   7.248   7.694 -0.6433 -0.6108  0.0974
    9MOL    H18 3074   6.134   7.119   7.651 -0.4118 -1.1060  0.1682
    9MOL    H19 3075   5.968   7.095   7.686 -1.0798  3.1803 -0.8434
    9MOL    H20 3076   5.958   6.652   0.263 -0.7597 -1.5092 -0.0773
    9MOL    C21 3077   6.223   6.675   0.228 -0.1486  0.1705  0.2785
    9MOL    C22 3078   6.349   6.627   0.162  0.0468  0.6108  0.2375
    9MOL    C23 3079   6.429   6.546   0.260  0.0779  0.9246 -0.0405
    9MOL    O24 3080   6.457   6.596   0.367 -0.3562 -0.2541  0.3055
    9MOL    N25 3081   6.473   6.422   0.219 -0.4719  0.0731  0.2215
    9MOL    C26 3082   6.577   6.354   0.290  0.0731 -0.3795 -0.2372
    9MOL    C27 3083   6.674   6.305   0.180  0.1167  0.6043 -0.4478
    9MOL    C28 3084   6.505   6.231   0.367 -0.4355 -0.4665 -0.5126
    9MOL    H29 3085   6.189   6.586   0.280  2.0260 -1.5082 -1.1022
    9MOL    H30 3086   6.250   6.750   0.304  2.6273  1.0926 -1.5321
    9MOL    H31 3087   6.313   6.548   0.096 -0.6439  1.4245 -0.3617
    9MOL    H32 3088   6.459   6.388   0.125 -1.1057  0.8254  0.0333
    9MOL    H33 3089   6.632   6.403   0.370 -0.5250 -1.5935  0.9615
    9MOL    H34 3090   6.722   6.387   0.126  0.9172  0.8538  0.6118
    9MOL    H35 3091   6.616   6.253   0.104 -3.0226  2.3723  0.6559
    9MOL    H36 3092   6.748   6.243   0.231  0.2069  0.8508 -0.2781
    9MOL    H37 3093   6.440   6.180   0.296 -0.4320  0.7907 -1.4406
    9MOL    H38 3094   6.570   6.150   0.398  1.3863  1.6828  1.4994
    9MOL    H39 3095   6.446   6.263   0.453  1.3066  0.2865  0.4226
    9MOL    C40 3096   6.438   6.724   0.093  0.4899 -0.1327  0.6389
    9MOL    C41 3097   6.417   6.736   7.773 -0.2104 -0.2355 -0.7054
    9MOL    C42 3098   6.456   6.598   7.713 -0.6534 -0.1441  0.2939
    9MOL    O43 3099   6.376   6.504   7.694  0.2560 -0.2632 -0.3582
    9MOL    N44 3100   6.584   6.569   7.685 -0.3236  0.0393  0.0281
    9MOL    C45 3101   6.626   6.468   7.588  0.1605  0.2819 -0.0186
    9MOL    C46 3102   6.740   6.503   7.500  0.5660  0.2389 -0.3971
    9MOL    C47 3103   6.640   6.331   7.659 -0.0542 -0.2680  0.5229
    9MOL    H48 3104   6.545   6.702   0.103  0.2292 -0.7044  2.1953
    9MOL    H49 3105   6.410   6.822   0.133 -1.4251 -1.3489  2.3213
    9MOL    H50 3106   6.312   6.757   7.753 -0.2827 -0.3031 -0.3994
    9MOL    H51 3107   6.657   6.631   7.714 -0.1057  0.5695 -1.6306
    9MOL    H52 3108   6.542   6.465   7.519  0.3962 -0.1606 -0.2899
    9MOL    H53 3109   6.716   6.592   7.442 -2.5220 -1.1953 -1.4149
    9MOL    H54 3110   6.751   6.421   7.429  0.7000 -0.6418  0.6328
    9MOL    H55 3111   6.832   6.531   7.551  1.7854 -1.2625 -1.7390
    9MOL    H56 3112   6.557   6.301   7.722 -0.4429 -1.1699 -0.4087
    9MOL    H57 3113   6.737   6.323   7.709 -0.3558  0.4363  1.2174
    9MOL    H58 3114   6.657   6.254   7.584 -0.2154 -0.0094  0.2170
    9MOL    C59 3115   6.492   6.855   7.700 -0.1278  0.2265 -0.7504
    9MOL    C60 3116   6.420   6.887   7.566  0.5435  0.2019 -0.0729
    9MOL    C61 3117   6.487   6.814   7.452  0.3184 -0.2604 -0.4743
    9MOL    O62 3118   6.603   6.837   7.425 -0.5099  0.3967  0.0236
    9MOL    N63 3119   6.409   6.740   7.380 -0.5891  0.0203  0.1823
    9MOL    C64 3120   6.452   6.669   7.259  0.3430 -0.1279 -0.5788
    9MOL    C65 3121   6.363   6.554   7.220 -0.0666 -0.3614  0.2806
    9MOL    C66 3122   6.475   6.764   7.147 -0.3702  0.4581  0.4853
    9MOL    H67 3123   6.495   6.941   7.768 -0.1259  1.7432 -2.6322
    9MOL    H68 3124   6.597   6.833   7.684  0.3208  0.9477  1.0655
    9MOL    H69 3125   6.314   6.861   7.569  0.6692 -0.5229 -1.6172
    9MOL    H70 3126   6.312   6.740   7.408 -0.4698  1.9985  0.6562
    9MOL    H71 3127   6.550   6.628   7.284 -0.3127 -1.1858  0.3329
    9MOL    H72 3128   6.270   6.586   7.173  1.5924  0.9204 -2.1879
    9MOL    H73 3129   6.428   6.501   7.151 -0.0998  0.2662 -0.2358
    9MOL    H74 3130   6.344   6.498   7.312 -1.1906  3.3515  2.4003
    9MOL    H75 3131   6.553   6.833   7.178 -1.4644  1.3794  1.2593
    9MOL    H76 3132   6.497   6.722   7.049  0.8740  0.5817  0.7080
    9MOL    H77 3133   6.389   6.828   7.124  1.3937  2.4661 -0.6313
    9MOL    C78 3134   6.438   7.047   7.542 -0.1307 -0.1908  0.4553
    9MOL    C79 3135   6.381   7.101   7.403 -0.6802  0.1741 -0.0993
    9MOL    C80 3136   6.247   7.035   7.366 -0.7476  0.6502  0.0885
    9MOL    O81 3137   6.169   7.008   7.461  0.1047  0.4839  0.0147
    9MOL    N82 3138   6.222   7.012   7.237  0.4210 -0.1555 -0.4301
    9MOL    C83 3139   6.100   6.970   7.169 -0.3020  0.2267 -0.0760
    9MOL    C84 3140   6.093   7.060   7.038 -0.6817  0.0704  0.1583
    9MOL    C85 3141   6.103   6.822   7.131 -0.1655  0.1798 -0.4182
    9MOL    H86 3142   6.542   7.080   7.549 -1.4212  3.9449  1.1437
    9MOL    H87 3143   6.387   7.101   7.621  1.0940 -0.0363  1.1541
    9MOL    H88 3144   6.449   7.081   7.320 -1.1075 -1.8333  0.0160
    9MOL    H89 3145   6.289   7.037   7.167  1.7132 -1.0479  0.4699
    9MOL    H90 3146   6.013   6.988   7.233  0.1641 -1.8395  1.1795
    9MOL    H91 3147   6.182   7.066   6.975 -0.8754  0.8735 -0.0429
    9MOL    H92 3148   6.007   7.023   6.981 -0.3765 -0.6070  0.1290
    9MOL    H93 3149   6.059   7.162   7.058 -0.4999 -0.1193  1.4213
    9MOL    H94 3150   6.090   6.757   7.217  1.3595 -2.0112 -1.7809
    9MOL    H95 3151   6.205   6.804   7.095  0.9092 -0.3465  2.6808
    9MOL    H96 3152   6.039   6.786   7.051  0.4318  0.1701 -0.8962
    9MOL    C97 3153   6.367   7.253   7.405 -0.4221  0.0705 -0.0939
    9MOL    C98 3154   6.346   7.327   7.271 -0.2228 -0.8465  0.2737
    9MOL    C99 3155   6.464   7.306   7.175 -0.6091 -0.3852  0.5682
    9MOL   O100 3156   6.578   7.332   7.210  0.2189  0.4672 -0.3043
    9MOL   N101 3157   6.422   7.247   7.056 -0.0874 -0.0073 -0.0432
    9MOL   C102 3158   6.513   7.206   6.949  0.1752 -0.1677  0.2899
    9MOL   C103 3159   6.528   7.048   6.944 -0.2071  0.4973 -0.6606
    9MOL   C104 3160   6.465   7.250   6.819 -0.4557  0.1887  0.2394
    9MOL   H105 3161   6.452   7.304   7.450 -0.8408 -0.4321  1.2752
    9MOL   H106 3162   6.277   7.266   7.465 -0.0764 -0.8342  0.6345
    9MOL   H107 3163   6.260   7.277   7.226 -0.0550 -0.4996 -0.4361
    9MOL   H108 3164   6.326   7.261   7.029  0.2905  1.3906 -0.6939
    9MOL   H109 3165   6.615   7.241   6.966 -0.0357 -1.0171  3.6064
    9MOL   H110 3166   6.435   6.999   6.915 -2.0837  1.1799  3.7045
    9MOL   H111 3167   6.605   7.018   6.873  0.1342  0.9941 -0.5029
    9MOL   H112 3168   6.553   7.003   7.040  2.0690  2.0324 -0.5019
    9MOL   H113 3169   6.463   7.358   6.806 -1.0854  0.1186 -0.2956
    9MOL   H114 3170   6.369   7.211   6.784 -0.9206  1.0820  0.4892
    9MOL   H115 3171   6.530   7.198   6.749 -0.3000  0.6828  0.0128
    9MOL   C116 3172   6.311   7.476   7.296 -0.0546 -0.4959  0.1233
    9MOL   C117 3173   6.255   7.545   7.181 -0.0889  0.0821  0.0979
    9MOL   C118 3174   6.242   7.695   7.206  0.4363  0.4320 -0.2806
    9MOL   O119 3175   6.164   7.740   7.285  0.2326  0.2842 -0.1869
    9MOL   N120 3176   6.329   7.777   7.154  0.5884  0.1228  0.5249
    9MOL   C121 3177   6.352   0.087   7.161 -0.8910  0.0718  0.7994
    9MOL   C122 3178   6.241   0.169   7.095 -0.3442 -0.2775 -0.0134
    9MOL   C123 3179   6.383   0.150   7.301  0.0835 -0.0406  0.0989
    9MOL   H124 3180   6.400   7.528   7.330  0.5497 -0.5974 -1.2568
    9MOL   H125 3181   6.240   7.481   7.378 -0.5082 -0.0295 -0.2980
    9MOL   H126 3182   6.330   7.534   7.103 -1.1350 -1.4637 -0.7166
    9MOL   H127 3183   6.398   7.721   7.105  0.0064 -0.0843 -0.0651
    9MOL   H128 3184   6.444   0.101   7.104 -1.0903 -0.6205  0.3098
    9MOL   H129 3185   6.269   0.273   7.072  0.9823 -0.9338 -1.5207
    9MOL   H130 3186   6.154   0.168   7.159 -0.1118 -0.0750  0.3038
    9MOL   H131 3187   6.220   0.117   7.002 -0.8698 -0.7232  0.3578
    9MOL   H132 3188   6.287   0.153   7.354  0.1148 -0.7708  0.1914
    9MOL   H133 3189   6.464   0.105   7.359  0.0095 -1.2760 -0.7494
    9MOL   H134 3190   6.419   0.253   7.293  0.8351 -0.2724  0.5190
    9MOL   C135 3191   6.108   7.489   7.153 -0.0495  1.0251  0.6732
    9MOL   C136 3192   6.053   7.520   7.013  0.5648 -0.5317 -1.0094
    9MOL   C137 3193   6.150   7.486   6.900  0.4460 -0.0056  0.1641
    9MOL   O138 3194   6.159   7.365   6.870 -0.0890  0.1829 -0.6103
    9MOL   N139 3195   6.198   7.584   6.824  0.0128  0.2929  0.2419
    9MOL   C140 3196   6.256   7.575   6.687  0.3202  0.7745 -0.3599
    9MOL   C141 3197   6.390   7.642   6.683 -0.2197 -0.1742  0.5895
    9MOL   C142 3198   6.160   7.630   6.583  0.3303  0.2461  0.2228
    9MOL   H143 3199   6.030   7.519   7.223 -1.4265  1.3494 -0.9588
    9MOL   H144 3200   6.092   7.384   7.177  0.4105  0.8684  0.2998
    9MOL   H145 3201   6.046   7.629   7.007  1.5642 -0.3337  0.9374
    9MOL   H146 3202   6.170   7.679   6.845 -0.5532  0.2660 -0.3813
    9MOL   H147 3203   6.273   7.471   6.662 -1.3423 -0.0294  1.6506
    9MOL   H148 3204   6.370   7.745   6.712 -1.6228  0.2384 -1.7581
    9MOL   H149 3205   6.464   7.592   6.746 -0.1084 -0.0731  0.5345
    9MOL   H150 3206   6.419   7.651   6.579 -1.0972  0.3352  0.3815
    9MOL   H151 3207   6.202   7.617   6.484 -1.5530 -1.2349 -0.4213
    9MOL   H152 3208   6.147   7.734   6.614 -0.9524  0.3434 -0.5717
    9MOL   H153 3209   6.065   7.577   6.580  1.4174 -1.7485  0.3794
    9MOL   C154 3210   5.909   7.454   6.993  0.0295 -0.8782 -0.7811
    9MOL   C155 3211   5.843   7.481   6.856  0.4225  0.0222  0.3879
    9MOL   C156 3212   5.790   7.628   6.853 -0.5446 -0.6463 -0.0745
    9MOL   O157 3213   5.693   7.648   6.921  0.3742 -0.0928 -0.5971
    9MOL   N158 3214   5.853   7.721   6.781 -0.5165  0.4355 -1.3297
    9MOL   C159 3215   5.853   0.032   6.800 -0.1817 -0.3407 -0.1188
    9MOL   C160 3216   5.870   0.093   6.654 -0.6589 -0.3378 -0.1923
    9MOL   C161 3217   5.956   0.071   6.904 -0.2924  0.2351 -0.3969
    9MOL   H162 3218   5.837   7.472   7.073  0.8570  0.0424 -0.2299
    9MOL   H163 3219   5.941   7.350   7.005  1.3104 -0.1639  2.7170
    9MOL   H164 3220   5.911   7.480   6.771 -0.7419 -2.4538 -0.5595
    9MOL   H165 3221   5.912   7.685   6.707  1.2696 -1.3753  0.9086
    9MOL   H166 3222   5.754   0.056   6.840 -0.5606 -0.4276 -0.9870
    9MOL   H167 3223   5.955   0.069   6.589 -0.6485 -2.3013  0.5018
    9MOL   H168 3224   5.787   0.090   6.583 -0.7214 -2.0164 -0.0683
    9MOL   H169 3225   5.880   0.200   6.672  0.9865 -0.1933 -1.7478
    9MOL   H170 3226   6.058   0.039   6.884 -0.2315  1.8645 -2.8565
    9MOL   H171 3227   5.934   0.043   7.007  0.3648  0.6166 -0.1538
    9MOL   H172 3228   5.957   0.179   6.901 -0.8412  0.2606  0.2455
    9MOL   C173 3229   5.742   7.373   6.837  0.6345 -0.2931 -0.0122
    9MOL   C174 3230   5.795   7.263   6.757 -0.1891 -0.0474  0.1998
    9MOL   C175 3231   5.710   7.140   6.804 -1.0233 -0.0518 -0.3232
    9MOL   O176 3232   5.589   7.139   6.812 -0.0987 -0.2496 -0.0037
    9MOL   N177 3233   5.786   7.040   6.849 -0.8966 -0.3063  0.2575
    9MOL   C178 3234   5.743   6.901   6.890 -0.0018  0.3021  0.6183
    9MOL   C179 3235   5.736   6.895   7.046 -0.0293 -0.1185  0.2489
    9MOL   C180 3236   5.837   6.798   6.828 -0.2865 -0.0603 -0.6786
    9MOL   H181 3237   5.665   7.424   6.779  0.5926 -1.8539 -1.3709
    9MOL   H182 3238   5.702   7.345   6.934  1.7439 -0.9550  0.2571
    9MOL   H183 3239   5.896   7.242   6.792 -0.3982  0.4548  1.1390
    9MOL   H184 3240   5.886   7.051   6.838 -1.2910  2.3825 -0.7996
    9MOL   H185 3241   5.641   6.878   6.857  0.3673 -1.4706  0.6299
    9MOL   H186 3242   5.831   6.903   7.099  0.7755 -0.5095 -1.1107
    9MOL   H187 3243   5.700   6.795   7.071  0.1524 -0.3423 -0.3792
    9MOL   H188 3244   5.665   6.964   7.092  0.6853  2.7606 -2.7669
    9MOL   H189 3245   5.819   6.787   6.721 -0.7151 -1.0407 -0.5092
    9MOL   H190 3246   5.832   6.698   6.872 -0.2424 -0.3716 -1.3642
    9MOL   H191 3247   5.940   6.832   6.836  0.7271 -2.9934 -0.7322
    9MOL   C192 3248   5.790   7.286   6.605  0.0635  0.6397  0.2858
    9MOL   C193 3249   5.883   7.195   6.513  0.1847  1.0657  0.5244
    9MOL   C194 3250   5.853   7.046   6.524  0.9209 -0.4127 -0.2516
    9MOL   O195 3251   5.925   6.979   6.593 -0.1506 -0.4073 -0.0362
    9MOL   N196 3252   5.754   6.990   6.460  0.1209 -0.1836  0.4927
    9MOL   C197 3253   5.736   6.851   6.422  0.1588 -0.2860  0.2971
    9MOL   C198 3254   5.618   6.793   6.511  0.0158  0.0987 -0.5875
    9MOL   C199 3255   5.715   6.847   6.269 -0.4446  0.5075 -0.6085
    9MOL   H200 3256   5.810   7.391   6.585  1.8688  0.4561  1.1026
    9MOL   H201 3257   5.686   7.266   6.579  0.5050 -2.4053  0.6869
    9MOL   H202 3258   5.870   7.225   6.409  4.2515  0.6648 -0.1869
    9MOL   H203 3259   5.686   7.058   6.430 -0.8643 -0.8830  1.1369
    9MOL   H204 3260   5.828   6.795   6.441  0.5862  0.6214  0.9342
    9MOL   H205 3261   5.642   6.800   6.617 -0.2529  2.2448 -0.6521
    9MOL   H206 3262   5.590   6.688   6.504 -0.1412 -0.0599  2.0058
    9MOL   H207 3263   5.533   6.861   6.510 -0.2784 -0.2286  1.0840
    9MOL   H208 3264   5.612   6.875   6.246 -0.9195  1.0980  2.0515
    9MOL   H209 3265   5.713   6.741   6.243 -2.0942  0.3446  0.0974
    9MOL   H210 3266   5.797   6.894   6.216  1.6002 -3.0328 -0.7381
    9MOL   C211 3267   6.038   7.219   6.524 -0.2036 -0.0363 -0.0717
    9MOL   C212 3268   6.134   7.167   6.408 -0.5975  0.5195  0.6261
    9MOL   C213 3269   6.091   7.226   6.274  0.5204  0.1819 -0.8094
    9MOL   O214 3270   6.125   7.343   6.240  0.2751 -0.0278  0.0363
    9MOL   N215 3271   6.017   7.155   6.188  0.8994  0.0972 -0.0209
    9MOL   C216 3272   5.962   7.202   6.059 -0.0014  0.0948  0.3460
    9MOL   C217 3273   5.839   7.126   6.023 -0.8649  0.2275 -0.6941
    9MOL   C218 3274   6.071   7.180   5.947 -0.8412  0.0331 -0.6301
    9MOL   H219 3275   6.079   7.189   6.620 -0.8675  1.1425  0.5978
    9MOL   H220 3276   6.056   7.327   6.530  0.0458  0.0758 -2.5623
    9MOL   H221 3277   6.116   7.060   6.394 -0.5836  0.4520  1.1500
    9MOL   H222 3278   5.979   7.065   6.215 -0.9909  0.3508 -1.6910
    9MOL   H223 3279   5.945   7.309   6.069  2.3599  0.5557 -0.1573
    9MOL   H224 3280   5.862   7.019   6.024 -0.1868  0.3707 -0.1176
    9MOL   H225 3281   5.769   7.142   6.105  0.0225  0.8251 -0.0380
    9MOL   H226 3282   5.805   7.149   5.923  0.6523  3.0557 -0.6014
    9MOL   H227 3283   6.052   7.247   5.863 -0.3056  2.1497  0.8829
    9MOL   H228 3284   6.080   7.081   5.903 -1.3350 -0.4650  0.3836
    9MOL   H229 3285   6.173   7.214   5.967 -0.9843 -0.6275  1.3592
    9MOL   C230 3286   6.285   7.196   6.436 -0.0498 -0.0100 -0.3394
    9MOL   C231 3287   6.387   7.161   6.334 -0.1334 -0.0032 -0.2352
    9MOL   C232 3288   6.528   7.204   6.377  0.0454 -0.5185 -0.4891
    9MOL   O233 3289   6.588   7.160   6.475  0.1044  0.1090  0.0993
    9MOL   N234 3290   6.579   7.310   6.313 -0.0430 -0.1284 -0.1041
    9MOL   C235 3291   6.693   7.389   6.357 -0.1351 -0.1370 -0.2161
    9MOL   C236 3292   6.742   7.466   6.238 -0.3418 -0.0198 -0.2764
    9MOL   C237 3293   6.643   7.466   6.474  0.8393 -0.6803 -0.9829
    9MOL   H238 3294   6.309   7.131   6.520  0.7629 -0.3917 -0.8526
    9MOL   H239 3295   6.294   7.297   6.476  1.3475  0.3210 -1.4299
    9MOL   H240 3296   6.355   7.219   6.247 -0.9433 -0.3690 -0.1863
    9MOL   H241 3297   6.529   7.348   6.234  2.2092  1.3825 -0.8775
    9MOL   H242 3298   6.776   7.333   6.399 -1.2760 -0.7026  1.3412
    9MOL   H243 3299   6.670   7.531   6.187  0.6149  0.5266 -0.9485
    9MOL   H244 3300   6.816   7.543   6.260  0.1021 -0.8568  1.1686
    9MOL   H245 3301   6.786   7.398   6.165 -0.8533 -1.3593  0.6557
    9MOL   H246 3302   6.547   7.517   6.473  1.0946 -0.1102  0.9680
    9MOL   H247 3303   6.714   7.544   6.505 -0.7138 -0.6622  2.7865
    9MOL   H248 3304   6.637   7.403   6.563 -0.1176  1.8274  0.8252
    9MOL   C249 3305   6.382   7.007   6.314 -0.1423  0.2918  0.3158
    9MOL   C250 3306   6.487   6.951   6.212 -0.2169  0.2843  0.5263
    9MOL   C251 3307   6.485   7.034   6.080  0.0794 -0.7271 -0.1075
    9MOL   O252 3308   6.373   7.050   6.028  0.4943  0.0843  0.4225
    9MOL   N253 3309   6.600   7.078   6.031 -0.0197  0.5470  0.0440
    9MOL   C254 3310   6.598   7.161   5.910 -1.1255 -0.0087  0.1038
    9MOL   C255 3311   6.546   7.298   5.940 -0.2232  0.3435 -0.8592
    9MOL   C256 3312   6.745   7.156   5.844  0.6051 -0.8557  0.1139
    9MOL   H257 3313   6.287   6.982   6.269 -0.4855  0.7821  0.7660
    9MOL   H258 3314   6.386   6.962   6.414  0.2870  0.6106  0.4472
    9MOL   H259 3315   6.584   6.960   6.260  0.6164 -3.0804 -0.3790
    9MOL   H260 3316   6.686   7.054   6.077 -1.2995  1.4947  3.1192
    9MOL   H261 3317   6.531   7.105   5.844 -0.7578  0.5342 -0.7385
    9MOL   H262 3318   6.455   7.300   6.000  1.6758 -0.4371  2.1457
    9MOL   H263 3319   6.620   7.334   6.011 -1.5818 -0.4436  0.9953
    9MOL   H264 3320   6.532   7.369   5.859  2.8349  0.0985 -1.6720
    9MOL   H265 3321   6.785   7.055   5.831  1.5732 -0.4005 -0.5198
    9MOL   H266 3322   6.751   7.200   5.744 -0.6711 -1.8272 -0.4160
    9MOL   H267 3323   6.807   7.219   5.907 -1.9061  0.4392  1.3776
    9MOL   C268 3324   6.456   6.799   6.199 -0.4830  0.5528  0.6795
    9MOL   C269 3325   6.567   6.707   6.144  0.1938  1.0912 -0.1767
    9MOL   C270 3326   6.611   6.735   6.001  0.1571 -0.1745 -0.1603
    9MOL   O271 3327   6.727   6.737   5.970 -0.0881  0.1372 -0.4079
    9MOL   N272 3328   6.520   6.738   5.907  0.2524  0.3589 -0.0205
    9MOL   C273 3329   6.548   6.726   5.761  0.3981  0.7042 -0.1109
    9MOL   C274 3330   6.449   6.631   5.708  0.8327  0.0632  0.4279
    9MOL   C275 3331   6.550   6.853   5.683 -0.5802 -0.0074  0.1059
    9MOL   H276 3332   6.422   6.757   6.294  2.2826 -0.7181  1.1837
    9MOL   H277 3333   6.369   6.788   6.135 -1.3281 -2.8133  2.3038
    9MOL   H278 3334   6.519   6.609   6.139  0.0783  1.1941 -1.4060
    9MOL   H279 3335   6.423   6.742   5.935 -0.0383  0.9142 -1.0469
    9MOL   H280 3336   6.645   6.680   5.743  0.7255  0.9780  0.9261
    9MOL   H281 3337   6.440   6.642   5.600  1.0501  2.3378  0.6128
    9MOL   H282 3338   6.478   6.530   5.736  0.6484  0.1704  1.0221
    9MOL   H283 3339   6.347   6.648   5.743  1.6483  1.1749  2.3359
    9MOL   H284 3340   6.462   6.912   5.710 -1.0208 -1.0451  0.9733
    9MOL   H285 3341   6.630   6.913   5.728  1.0023 -0.0794 -2.5131
    9MOL   H286 3342   6.555   6.835   5.575 -1.8078 -0.6567  0.1534
    9MOL   C287 3343   6.680   6.709   6.247 -0.3201  0.5121 -0.7747
    9MOL   C288 3344   6.770   6.591   6.251  0.5757 -0.5427 -0.2347
    9MOL   C289 3345   6.709   6.470   6.302  0.1180  0.7184  0.2156
    9MOL   O290 3346   6.680   6.461   6.419  0.0216 -0.0261 -0.7303
    9MOL   N291 3347   6.669   6.375   6.215 -0.1476 -0.1806  0.6277
    9MOL   C292 3348   6.600   6.254   6.261 -0.4858  0.3859  0.3352
    9MOL   C293 3349   6.449   6.271   6.259 -0.3722  0.2447 -0.1848
    9MOL   C294 3350   6.636   6.132   6.166 -0.3441 -0.0680 -0.2771
    9MOL   H295 3351   6.740   6.791   6.208  1.9053  0.2601  1.9318
    9MOL   H296 3352   6.642   6.737   6.346 -0.8408  0.6289 -1.0088
    9MOL   H297 3353   6.813   6.575   6.152 -1.5891 -0.0277 -1.2945
    9MOL   H298 3354   6.718   6.371   6.126 -2.2370  1.6469 -0.6617
    9MOL   H299 3355   6.629   6.226   6.362 -0.0318 -0.4699 -0.0315
    9MOL   H300 3356   6.413   6.347   6.328 -2.7491  0.6331 -1.7753
    9MOL   H301 3357   6.396   6.279   6.163  2.7962  0.8745 -1.9506
    9MOL   H302 3358   6.404   6.183   6.305  0.5208  0.0660  0.3585
    9MOL   H303 3359   6.609   6.036   6.211  0.7032 -0.0229  0.4769
    9MOL   H304 3360   6.579   6.142   6.074 -1.5808  1.5302  0.6233
    9MOL   H305 3361   6.743   6.130   6.149 -0.4192  1.0146 -0.9654
    9MOL   C306 3362   6.889   6.621   6.347  0.2721 -0.5899  0.4103
    9MOL   C307 3363   7.016   6.534   6.343 -0.8560 -0.3539 -0.8688
    9MOL   C308 3364   7.120   6.591   6.447 -0.7463  0.1062 -0.3670
    9MOL   O309 3365   7.163   6.703   6.426  0.0447  0.6041  0.1829
    9MOL   N310 3366   7.150   6.518   6.551  0.5896  0.5308 -0.6808
    9MOL   C311 3367   7.237   6.564   6.666 -0.5821  0.2110 -0.7913
    9MOL   C312 3368   7.153   6.648   6.763 -0.0544 -0.4382  0.3669
    9MOL   C313 3369   7.327   6.454   6.720  0.1421 -0.1955  0.0756
    9MOL   H314 3370   6.913   6.723   6.317 -1.0795 -0.1333  0.8249
    9MOL   H315 3371   6.858   6.625   6.451  0.3250  0.5906  0.3852
    9MOL   H316 3372   6.979   6.439   6.382 -3.0864  1.0692  0.6037
    9MOL   H317 3373   7.105   6.428   6.556 -0.8126  1.3146  2.4382
    9MOL   H318 3374   7.305   6.640   6.628 -0.0547  0.6666  1.0285
    9MOL   H319 3375   7.218   6.702   6.832  0.2136  1.1659 -1.0894
    9MOL   H320 3376   7.098   6.575   6.822 -0.4701 -0.6611 -0.2922
    9MOL   H321 3377   7.076   6.707   6.713 -0.8319 -0.9159  0.9875
    9MOL   H322 3378   7.262   6.391   6.780  2.0934 -0.9941  1.4119
    9MOL   H323 3379   7.411   6.489   6.780 -2.0416  1.3165  2.3943
    9MOL   H324 3380   7.376   6.397   6.642 -1.2565  1.1089 -1.7968
    9MOL   C325 3381   7.080   6.523   6.202  1.4885 -0.5758 -0.5297
    9MOL   C326 3382   7.215   6.444   6.197 -0.3854 -0.2204  0.1217
    9MOL   C327 3383   7.184   6.296   6.247  0.4028 -0.7016  0.4408
    9MOL   O328 3384   7.110   6.227   6.180 -0.0295  0.2428  0.0327
    9MOL   N329 3385   7.252   6.249   6.348  0.0349 -0.9283 -0.2012
    9MOL   C330 3386   7.243   6.113   6.405 -0.1077 -0.1754 -0.8445
    9MOL   C331 3387   7.321   6.089   6.535  0.0420  0.2661  0.7953
    9MOL   C332 3388   7.307   6.025   6.302 -0.0635  0.2846 -0.4399
    9MOL   H333 3389   7.099   6.625   6.168 -0.9355  0.8087  2.0162
    9MOL   H334 3390   7.008   6.489   6.128 -0.3489  1.6210  0.1541
    9MOL   H335 3391   7.297   6.494   6.247 -1.5720 -0.9970  2.9234
    9MOL   H336 3392   7.320   6.306   6.396 -1.8612 -1.3846  3.1975
    9MOL   H337 3393   7.141   6.081   6.427 -1.5763  1.2201 -5.1181
    9MOL   H338 3394   7.425   6.116   6.518  0.1205  0.0684  0.9607
    9MOL   H339 3395   7.290   6.156   6.615 -0.8718 -0.2369  0.8758
    9MOL   H340 3396   7.307   5.983   6.557 -3.6695  0.9033  1.8288
    9MOL   H341 3397   7.413   6.047   6.285 -0.0693 -1.0266 -2.3637
    9MOL   H342 3398   7.257   6.035   6.205 -2.0115 -0.5044  0.4541
    9MOL   H343 3399   7.290   5.921   6.331  0.3441  0.6038  0.9404
    9MOL   C344 3400   7.272   6.432   6.056  0.2703  0.1200 -0.6444
    9MOL   C345 3401   7.394   6.348   6.028  0.1666 -0.2804 -0.3112
    9MOL   C346 3402   7.362   6.246   5.918  0.0705  0.3051 -0.0232
    9MOL   O347 3403   7.404   6.263   5.805 -0.1809  0.2415  0.4684
    9MOL   N348 3404   7.296   6.140   5.964 -0.3419  0.0934  0.4854
    9MOL   C349 3405   7.251   6.031   5.885 -0.7386  0.0528  0.5692
    9MOL   C350 3406   7.352   5.924   5.892  0.1522  0.4329 -0.2598
    9MOL   C351 3407   7.115   5.985   5.942  0.3098 -0.2330  0.7435
    9MOL   H352 3408   7.294   6.536   6.030  1.5007 -0.1117 -0.5808
    9MOL   H353 3409   7.188   6.408   5.991 -2.6382 -0.7026  3.2250
    9MOL   H354 3410   7.402   6.287   6.118 -0.3018 -0.5056 -0.4239
    9MOL   H355 3411   7.264   6.161   6.057  1.6627  2.8126  0.5829
    9MOL   H356 3412   7.240   6.053   5.779 -0.8193 -0.4541  0.4680
    9MOL   H357 3413   7.340   5.849   5.814 -2.0146  1.5777 -1.0762
    9MOL   H358 3414   7.451   5.969   5.882 -0.4559  1.8397 -0.1468
    9MOL   H359 3415   7.348   5.878   5.991  0.3520  0.4761 -0.2328
    9MOL   H360 3416   7.112   5.995   6.050  0.8948  0.6268  0.6806
    9MOL   H361 3417   7.032   6.031   5.888  0.2178 -1.5829 -0.3081
    9MOL   H362 3418   7.101   5.880   5.916  2.0998 -0.3481  0.1829
    9MOL   C363 3419   7.534   6.422   6.016 -0.3828  0.3875  0.5796
    9MOL   C364 3420   7.631   6.377   6.131 -0.3953  0.5977 -0.8868
    9MOL   C365 3421   7.576   6.428   6.271 -0.3041 -0.0052 -0.2483
    9MOL   O366 3422   7.526   6.348   6.348  0.4826 -0.6680 -0.2631
    9MOL   N367 3423   7.586   6.562   6.301  0.5193 -0.0076 -0.4792
    9MOL   C368 3424   7.520   6.622   6.419 -0.2095  0.0341  0.5572
    9MOL   C369 3425   7.600   6.617   6.548  0.2548  0.0699 -0.5568
    9MOL   C370 3426   7.475   6.756   6.383  0.0530 -0.3182  0.3094
    9MOL   H371 3427   7.532   6.531   6.021 -0.7232  0.2935  3.2020
    9MOL   H372 3428   7.582   6.392   5.923  0.6532 -1.7243  1.7559
    9MOL   H373 3429   7.721   6.439   6.129 -0.1911  0.3811  0.6926
    9MOL   H374 3430   7.649   6.618   6.246  1.8552 -1.4755 -0.4639
    9MOL   H375 3431   7.434   6.560   6.446  0.3334 -2.5145 -3.1732
    9MOL   H376 3432   7.615   6.512   6.573 -1.5730  0.3615  2.0352
    9MOL   H377 3433   7.695   6.667   6.532  0.9084 -0.8966  0.2267
    9MOL   H378 3434   7.537   6.655   6.628  0.4666 -1.5742  0.4227
    9MOL   H379 3435   7.409   6.803   6.455  0.3748  0.4065  0.1400
    9MOL   H380 3436   7.558   6.820   6.351 -0.2061  0.2724  0.8101
    9MOL   H381 3437   7.416   6.739   6.293  0.0857 -0.8171  0.3831
    9MOL   H382 3438   7.656   6.272   6.122  0.2352  0.6667  0.0042
   10MOL     C1 3439   5.323   6.979   6.935 -0.3449  0.1266 -0.3501
   10MOL     C2 3440   5.361   7.064   7.060 -0.0237  0.4438  0.3266
   10MOL     C3 3441   5.290   7.202   7.053  0.1684  0.4119  0.7017
   10MOL     O4 3442   5.182   7.209   7.108 -0.1684 -0.2182 -0.6143
   10MOL     N5 3443   5.363   7.306   7.003  0.5073 -0.6734  0.2390
   10MOL     C6 3444   5.314   7.444   7.029 -0.6054 -0.0806  0.1566
   10MOL     C7 3445   5.424   7.537   6.984  0.1379 -0.2851 -0.1385
   10MOL     C8 3446   5.181   7.470   6.964 -0.6874  0.4110 -0.4180
   10MOL     H9 3447   5.380   6.887   6.920 -2.2549 -0.8254 -2.1967
   10MOL    H10 3448   5.339   7.037   6.844 -1.5213 -0.2613 -0.8294
   10MOL    H11 3449   5.469   7.081   7.061 -0.3512  2.5510  0.7818
   10MOL    H12 3450   5.453   7.293   6.958  0.6828 -0.7220  0.5952
   10MOL    H13 3451   5.314   7.459   7.137  0.5385  1.0235  0.0163
   10MOL    H14 3452   5.460   7.496   6.890 -4.0706 -0.7130 -1.6440
   10MOL    H15 3453   5.505   7.545   7.057  2.7676  3.8903 -3.3551
   10MOL    H16 3454   5.384   7.636   6.963  1.1785  0.6177  1.9087
   10MOL    H17 3455   5.146   7.573   6.965  1.4248  1.1637 -1.1345
   10MOL    H18 3456   5.188   7.461   6.856 -0.0196 -1.3201 -0.2603
   10MOL    H19 3457   5.102   7.408   7.007 -0.5587  0.7586  0.3262
   10MOL    H20 3458   5.216   6.954   6.936 -0.1157 -0.8584  0.7700
   10MOL    C21 3459   5.326   6.982   7.186  0.6175 -0.6894 -0.8997
   10MOL    C22 3460   5.357   7.049   7.331  0.0886  0.3786  0.1474
   10MOL    C23 3461   5.509   7.038   7.364 -0.5971  0.7343  0.7287
   10MOL    O24 3462   5.551   6.932   7.421 -0.3868 -0.1187  0.1825
   10MOL    N25 3463   5.585   7.142   7.330  0.4792 -0.3857  0.2913
   10MOL    C26 3464   5.732   7.139   7.323 -0.5650  0.0036 -0.3162
   10MOL    C27 3465   5.794   7.173   7.465 -0.1649 -0.2147 -0.8313
   10MOL    C28 3466   5.785   7.229   7.212 -0.1729  0.6137 -0.1074
   10MOL    H29 3467   5.370   6.883   7.175 -0.0702 -1.0418 -0.4527
   10MOL    H30 3468   5.221   6.955   7.186  0.2199  0.5727  3.4128
   10MOL    H31 3469   5.322   7.152   7.323 -0.5952  0.0128 -1.5910
   10MOL    H32 3470   5.544   7.227   7.295  1.3247  0.0638  0.3827
   10MOL    H33 3471   5.778   7.044   7.298  2.4686  0.9499  1.2998
   10MOL    H34 3472   5.809   7.082   7.523  1.5275  0.9280  0.5392
   10MOL    H35 3473   5.728   7.228   7.532 -1.3770 -1.4210 -1.0156
   10MOL    H36 3474   5.887   7.229   7.465  0.6120 -1.4701  0.2015
   10MOL    H37 3475   5.893   7.236   7.222  0.1567 -1.2229 -2.0163
   10MOL    H38 3476   5.758   7.188   7.115  2.5822 -1.5549 -0.0116
   10MOL    H39 3477   5.753   7.333   7.210  2.3567  1.4770  1.5511
   10MOL    C40 3478   5.274   6.999   7.452  0.8193 -0.1721 -0.4015
   10MOL    C41 3479   5.310   7.077   7.578  0.3263 -0.0826 -0.6713
   10MOL    C42 3480   5.262   7.017   7.708  0.1841 -0.1371 -0.7357
   10MOL    O43 3481   5.144   6.985   7.724 -0.1007 -0.0874 -0.2920
   10MOL    N44 3482   5.352   7.012   7.809  0.1365  0.0301 -0.2704
   10MOL    C45 3483   5.315   6.989   0.111  0.0126 -0.5427 -0.4098
   10MOL    C46 3484   5.437   6.923   0.179 -0.8015  0.9029 -1.1727
   10MOL    C47 3485   5.277   7.130   0.173  1.1047 -0.4966 -0.1861
   10MOL    H48 3486   5.278   6.890   7.462  0.0314  0.0123  2.5755
   10MOL    H49 3487   5.171   7.025   7.428  0.9847  0.3238 -0.5708
   10MOL    H50 3488   5.418   7.085   7.582  0.4065 -0.3180 -1.9639
   10MOL    H51 3489   5.441   7.048   7.778 -0.6290  4.1184  1.9317
   10MOL    H52 3490   5.228   6.925   0.128  0.1479  0.0103  2.6952
   10MOL    H53 3491   5.526   6.987   0.176 -1.1110  1.3357 -1.1411
   10MOL    H54 3492   5.478   6.845   0.115 -2.5457  0.1005 -1.3199
   10MOL    H55 3493   5.419   6.881   0.278  4.0202  1.1552 -0.0544
   10MOL    H56 3494   5.187   7.167   0.123  0.1621 -1.4943  0.7473
   10MOL    H57 3495   5.364   7.196   0.173  1.3366 -0.7751 -1.3672
   10MOL    H58 3496   5.246   7.111   0.275  1.0822 -1.3066 -0.3389
   10MOL    C59 3497   5.244   7.224   7.558  0.6907 -0.8745 -0.5066
   10MOL    C60 3498   5.347   7.336   7.557 -0.5938 -0.2309 -0.4971
   10MOL    C61 3499   5.414   7.350   7.695  0.1867 -0.1233 -0.2806
   10MOL    O62 3500   5.341   7.388   7.785 -0.2494  0.4126 -0.0670
   10MOL    N63 3501   5.550   7.325   7.701  0.0941 -1.0378 -0.0029
   10MOL    C64 3502   5.631   7.373   7.805  0.1087 -0.2827  0.1340
   10MOL    C65 3503   5.706   7.241   0.007  0.1717 -0.9670 -0.1251
   10MOL    C66 3504   5.735   7.476   7.750  0.9974 -0.0853  0.3410
   10MOL    H67 3505   5.179   7.239   7.472  0.8617 -3.4847 -1.1297
   10MOL    H68 3506   5.173   7.242   7.639  0.1299  2.5315 -1.6556
   10MOL    H69 3507   5.430   7.302   7.495 -1.5557  0.2019 -2.0772
   10MOL    H70 3508   5.583   7.293   7.611  1.0001  1.2809 -0.5394
   10MOL    H71 3509   5.580   7.404   0.060 -0.9622 -0.8717 -0.2512
   10MOL    H72 3510   5.633   7.165   0.034  1.5218 -1.6605  1.6981
   10MOL    H73 3511   5.774   7.204   7.767 -0.9209 -0.1983 -1.4880
   10MOL    H74 3512   5.757   7.246   0.104  1.1737 -1.4214 -0.6217
   10MOL    H75 3513   5.817   7.486   7.822  0.0948  0.4165  1.3175
   10MOL    H76 3514   5.781   7.444   7.657  0.3970  1.0154 -0.3369
   10MOL    H77 3515   5.686   7.570   7.727 -1.8718 -0.8805  2.7972
   10MOL    C78 3516   5.290   7.461   7.493 -0.4984  0.3756  0.3857
   10MOL    C79 3517   5.379   7.593   7.492  0.6730 -0.5020  0.5744
   10MOL    C80 3518   5.492   7.589   7.379 -0.2140 -0.6383  0.1227
   10MOL    O81 3519   5.514   7.481   7.326  0.2926 -0.5341 -0.2415
   10MOL    N82 3520   5.561   7.700   7.353 -0.2150 -0.1955 -0.2884
   10MOL    C83 3521   5.668   7.709   7.251 -0.1149 -0.6015  0.4919
   10MOL    C84 3522   5.672   0.011   7.177  0.1263 -0.2531 -0.8831
   10MOL    C85 3523   5.805   7.677   7.320 -0.0333 -0.4043 -0.5705
   10MOL    H86 3524   5.190   7.477   7.534 -0.2320 -2.7151  2.4147
   10MOL    H87 3525   5.275   7.434   7.389 -1.7768 -0.8229  0.8525
   10MOL    H88 3526   5.427   7.590   7.590  0.0032  0.3070  0.9338
   10MOL    H89 3527   5.525   7.787   7.390 -0.7787  0.3878 -2.1619
   10MOL    H90 3528   5.661   7.638   7.168 -0.9773  1.1570 -0.9696
   10MOL    H91 3529   5.747   0.017   7.098  0.2858  0.6043 -0.6797
   10MOL    H92 3530   5.573   0.032   7.137 -0.7693  1.2475  1.9723
   10MOL    H93 3531   5.693   0.086   7.254 -0.9424 -0.8859  0.0461
   10MOL    H94 3532   5.889   7.686   7.252 -0.7318 -1.1300 -1.5489
   10MOL    H95 3533   5.809   7.576   7.362 -0.2264 -1.2365 -2.5141
   10MOL    H96 3534   5.820   7.729   7.415 -0.5251 -1.0432 -0.1326
   10MOL    C97 3535   5.287   7.721   7.488  0.0301 -0.2071 -0.2357
   10MOL    C98 3536   5.232   7.761   7.625 -0.1327 -0.0905 -0.7253
   10MOL    C99 3537   5.100   7.696   7.666 -0.1323 -0.4424 -0.3322
   10MOL   O100 3538   5.021   7.661   7.581  1.0851 -0.0472 -0.0422
   10MOL   N101 3539   5.084   7.654   7.795 -0.2265 -0.0698  0.2373
   10MOL   C102 3540   4.990   7.552   0.001  0.4016  0.3334  0.0558
   10MOL   C103 3541   5.036   7.497   0.136  0.6053 -0.0287  0.0270
   10MOL   C104 3542   4.847   7.598   0.007  0.4710 -0.4913  0.5773
   10MOL   H105 3543   5.209   7.692   7.417 -0.7110 -0.6218  0.7465
   10MOL   H106 3544   5.339   7.808   7.446 -1.9526  1.7570  1.3026
   10MOL   H107 3545   5.304   7.733   7.702 -1.1465  1.6600  0.9000
   10MOL   H108 3546   5.155   7.673   0.028 -2.0796  1.0258  1.9090
   10MOL   H109 3547   4.989   7.471   7.765 -1.4072  0.9666 -0.6608
   10MOL   H110 3548   5.029   7.562   0.224 -0.0629  0.8330 -0.6596
   10MOL   H111 3549   4.966   7.419   0.165 -1.3440  0.4907 -3.0900
   10MOL   H112 3550   5.138   7.460   0.126  0.7395  0.0774  0.8862
   10MOL   H113 3551   4.831   7.688   0.068 -0.0553 -0.6950  0.7461
   10MOL   H114 3552   4.773   7.522   0.035 -0.5002 -0.1780 -1.0537
   10MOL   H115 3553   4.814   7.641   7.749  0.2015 -1.5889  0.1633
   10MOL   C116 3554   5.229   0.082   7.630 -0.0275  0.4935 -0.3173
   10MOL   C117 3555   5.362   0.137   7.691  0.4367 -0.0425 -0.3498
   10MOL   C118 3556   5.366   0.102   7.836  0.5399  0.3756 -0.1059
   10MOL   O119 3557   5.286   0.156   0.075  0.3408  0.2874 -0.0570
   10MOL   N120 3558   5.457   0.016   0.041  0.1117  0.4072  0.2193
   10MOL   C121 3559   5.468   7.799   0.172 -0.3491 -0.5851 -0.2717
   10MOL   C122 3560   5.385   7.673   0.188  0.2169  0.4930  0.3320
   10MOL   C123 3561   5.617   7.775   0.208  0.3274 -0.1566 -0.0784
   10MOL   H124 3562   5.144   0.115   7.691 -0.4527 -1.5988  0.2595
   10MOL   H125 3563   5.211   0.118   7.529  1.4805  2.2441  0.0098
   10MOL   H126 3564   5.455   0.097   7.649  0.9921  0.6556  0.1992
   10MOL   H127 3565   5.528   7.829   7.810  0.5382  0.5526  0.6124
   10MOL   H128 3566   5.430   0.026   0.252 -0.9310  0.3701 -1.2818
   10MOL   H129 3567   5.279   7.699   0.194  0.1300  0.3848 -0.6436
   10MOL   H130 3568   5.420   7.618   0.275 -2.4245 -0.9707  0.5176
   10MOL   H131 3569   5.395   7.610   0.100  0.9281  1.0426  0.0153
   10MOL   H132 3570   5.679   0.022   0.179 -0.6073  1.6709  2.9695
   10MOL   H133 3571   5.626   7.740   0.311  1.6679 -0.9707 -0.4563
   10MOL   H134 3572   5.648   7.689   0.149 -0.5732  0.8335 -2.0471
   10MOL   C135 3573   5.375   0.291   7.676 -0.1397 -0.4064  0.5169
   10MOL   C136 3574   5.462   0.346   7.561  0.0190 -0.6768  0.6354
   10MOL   C137 3575   5.464   0.253   7.435  0.2877 -0.6216  0.0568
   10MOL   O138 3576   5.547   0.168   7.421 -0.9136  0.2243  0.1074
   10MOL   N139 3577   5.357   0.268   7.358  0.3915 -0.2273  0.3760
   10MOL   C140 3578   5.333   0.187   7.246 -0.1306 -0.2091 -0.0098
   10MOL   C141 3579   5.404   0.252   7.118 -0.0308  0.4690 -0.8322
   10MOL   C142 3580   5.191   0.151   7.210 -0.4325  0.6894  0.4943
   10MOL   H143 3581   5.412   0.343   7.764  0.3562  2.3864 -1.2886
   10MOL   H144 3582   5.273   0.329   7.664 -1.0362 -2.9192 -0.1668
   10MOL   H145 3583   5.567   0.343   7.591  0.7694  1.5114 -1.4914
   10MOL   H146 3584   5.286   0.335   7.385  1.3107  1.5295 -1.3377
   10MOL   H147 3585   5.375   0.087   7.257  0.8374  0.0132 -1.5270
   10MOL   H148 3586   5.508   0.278   7.138 -0.2490  0.5601  0.2036
   10MOL   H149 3587   5.408   0.188   7.030  2.4495 -1.8609  0.8598
   10MOL   H150 3588   5.351   0.342   7.088 -0.0258  1.4517  1.9499
   10MOL   H151 3589   5.154   0.083   7.287 -4.5037 -2.3740 -3.8190
   10MOL   H152 3590   5.186   0.097   7.115 -2.4275 -0.3758  1.1670
   10MOL   H153 3591   5.132   0.242   7.222 -0.2558  0.4513  3.7554
   10MOL   C154 3592   5.435   0.490   7.538 -0.4990  0.1836 -0.0250
   10MOL   C155 3593   5.512   0.554   7.420  0.1685  0.0660 -0.3441
   10MOL   C156 3594   5.667   0.537   7.431 -0.2363  0.0230 -0.0887
   10MOL   O157 3595   5.733   0.623   7.497 -0.0376 -0.1843 -0.4264
   10MOL   N158 3596   5.723   0.441   7.365 -0.1415  0.1279 -0.0931
   10MOL   C159 3597   5.869   0.416   7.345  0.5480 -0.1686 -0.8047
   10MOL   C160 3598   5.890   0.402   7.197 -0.4141 -0.5406  0.7526
   10MOL   C161 3599   5.923   0.292   7.424  0.4968 -0.1991 -0.2741
   10MOL   H162 3600   5.464   0.539   7.631 -0.6879  0.3218 -0.0368
   10MOL   H163 3601   5.327   0.509   7.539 -0.1801  2.1445  0.1522
   10MOL   H164 3602   5.476   0.502   7.331  0.1427 -2.9072  1.3461
   10MOL   H165 3603   5.668   0.361   7.336  1.8839 -1.3313 -0.0317
   10MOL   H166 3604   5.925   0.502   7.381 -0.2998 -0.2467  0.7481
   10MOL   H167 3605   5.990   0.379   7.162 -0.8268 -1.2915  0.0403
   10MOL   H168 3606   5.835   0.322   7.146  2.0595 -1.2651 -0.8641
   10MOL   H169 3607   5.856   0.499   7.161 -2.0052 -1.8223 -1.2995
   10MOL   H170 3608   6.032   0.291   7.428  0.5080 -1.2268 -0.5868
   10MOL   H171 3609   5.892   0.194   7.387 -0.9015 -0.2273  0.9414
   10MOL   H172 3610   5.900   0.299   7.530 -2.0606 -1.1035 -0.7327
   10MOL   C173 3611   5.469   0.699   7.401  0.2790 -0.2410 -0.4048
   10MOL   C174 3612   5.520   0.777   7.281 -0.0162  0.0255  0.3371
   10MOL   C175 3613   5.481   0.713   7.145  0.3432 -0.2995  0.1135
   10MOL   O176 3614   5.371   0.655   7.140  0.1246 -0.3967 -0.3332
   10MOL   N177 3615   5.569   0.723   7.045 -0.4470  0.6346  0.1520
   10MOL   C178 3616   5.533   0.684   6.912  0.2972  0.1137  0.2785
   10MOL   C179 3617   5.627   0.567   6.857  0.0250  0.1269 -0.7443
   10MOL   C180 3618   5.546   0.803   6.817  0.2615 -0.0203  1.0237
   10MOL   H181 3619   5.483   0.750   7.496  2.5213 -1.1066 -0.2425
   10MOL   H182 3620   5.360   0.696   7.388  0.3112  0.9248 -1.0013
   10MOL   H183 3621   5.629   0.783   7.282  0.0672 -1.5099  1.3783
   10MOL   H184 3622   5.665   0.752   7.059 -0.5417  2.3440 -2.4885
   10MOL   H185 3623   5.431   0.646   6.907  0.4661 -0.5913  1.9585
   10MOL   H186 3624   5.628   0.548   6.750 -0.4661  0.9949 -0.9144
   10MOL   H187 3625   5.600   0.481   6.917  0.1315  1.3054  1.0440
   10MOL   H188 3626   5.731   0.587   6.882  0.6057 -2.2711 -1.2175
   10MOL   H189 3627   5.528   0.773   6.714 -1.9629  0.8137  1.1496
   10MOL   H190 3628   5.648   0.841   6.805  0.5341 -1.0315  0.0956
   10MOL   H191 3629   5.489   0.890   6.851  1.1450  1.9959 -2.3989
   10MOL   C192 3630   5.472   0.929   7.294  0.7397 -0.3299  0.3722
   10MOL   C193 3631   5.527   1.033   7.194 -0.5475 -0.4157  0.0678
   10MOL   C194 3632   5.685   1.032   7.181 -0.8275 -0.4293 -0.6168
   10MOL   O195 3633   5.759   1.022   7.282  0.1940 -0.3923  0.0339
   10MOL   N196 3634   5.737   1.040   7.057 -0.0617 -0.1890 -0.5292
   10MOL   C197 3635   5.878   1.054   7.025 -0.0586 -0.6543  0.1069
   10MOL   C198 3636   5.927   0.927   6.963  0.2125  0.1669  0.0630
   10MOL   C199 3637   5.896   1.175   6.935  0.3210  0.3852  0.7264
   10MOL   H200 3638   5.485   0.961   7.397 -2.0992  2.1720  0.0354
   10MOL   H201 3639   5.365   0.906   7.288  0.9938 -1.5077  0.2122
   10MOL   H202 3640   5.486   1.002   7.098  0.3180 -1.3907  0.0084
   10MOL   H203 3641   5.668   1.058   6.986 -0.3160 -3.0364 -1.0673
   10MOL   H204 3642   5.941   1.072   7.112  2.6260 -0.2375 -1.8437
   10MOL   H205 3643   6.025   0.954   6.925  0.6032 -0.0626  0.8902
   10MOL   H206 3644   5.876   0.896   6.872 -1.2310  1.3411  0.4571
   10MOL   H207 3645   5.947   0.850   7.037 -1.6720 -1.4270 -1.0305
   10MOL   H208 3646   6.003   1.185   6.918  0.7538 -2.9572  1.1445
   10MOL   H209 3647   5.865   1.265   6.988 -0.6659  0.3086  0.2787
   10MOL   H210 3648   5.842   1.174   6.841  0.7080  2.2691  0.4566
   10MOL   C211 3649   5.477   1.181   7.213  0.5711  0.2223  0.8174
   10MOL   C212 3650   5.510   1.241   7.359 -0.3022 -0.9063 -0.2914
   10MOL   C213 3651   5.555   1.386   7.347 -0.0527  0.4652 -0.4805
   10MOL   O214 3652   5.476   1.479   7.328 -0.4075  0.0948 -0.1177
   10MOL   N215 3653   5.687   1.413   7.347 -0.3847  0.1974 -0.0437
   10MOL   C216 3654   5.753   1.546   7.324  0.0095  0.6932 -0.5453
   10MOL   C217 3655   5.868   1.529   7.227 -0.5059 -0.4792  0.3872
   10MOL   C218 3656   5.814   1.592   7.458  0.1231 -0.3677 -0.4424
   10MOL   H219 3657   5.369   1.187   7.199  0.3351 -1.6250  1.6219
   10MOL   H220 3658   5.526   1.241   7.137  0.4458  2.4702  2.4323
   10MOL   H221 3659   5.603   1.196   7.394  0.2613 -1.2635 -2.1784
   10MOL   H222 3660   5.746   1.339   7.383  0.7454  0.0762 -2.0536
   10MOL   H223 3661   5.682   1.625   7.297  0.8929  1.7254  0.0976
   10MOL   H224 3662   5.836   1.512   7.124  1.9495  0.9184 -0.6241
   10MOL   H225 3663   5.927   1.620   7.215 -0.4098 -0.3977  1.4739
   10MOL   H226 3664   5.933   1.449   7.260  1.3813  0.7570 -0.2656
   10MOL   H227 3665   5.888   1.671   7.443  0.0833  0.2599  2.4681
   10MOL   H228 3666   5.879   1.516   7.500  0.5070 -0.8410 -1.8540
   10MOL   H229 3667   5.744   1.631   7.532 -0.4783 -0.6155 -0.8704
   10MOL   C230 3668   5.411   1.229   7.470  0.2535 -0.2048  0.1218
   10MOL   C231 3669   5.453   1.249   7.615  0.3479 -0.2220 -0.2377
   10MOL   C232 3670   5.569   1.159   7.658  1.0084 -0.0279 -0.6620
   10MOL   O233 3671   5.549   1.046   7.712 -0.0518 -0.3572  0.2785
   10MOL   N234 3672   5.697   1.211   7.643 -0.4807 -0.1884  0.5750
   10MOL   C235 3673   5.821   1.144   7.677  0.1351  0.4828  0.4256
   10MOL   C236 3674   5.832   0.992   7.654  0.2686 -0.4859 -0.5063
   10MOL   C237 3675   5.934   1.201   7.599 -0.2813  0.0476 -0.2030
   10MOL   H238 3676   5.375   1.127   7.460  0.2962 -0.2297  0.2149
   10MOL   H239 3677   5.327   1.284   7.427 -0.8516 -2.6292 -0.9186
   10MOL   H240 3678   5.366   1.209   7.668  0.6622 -0.8170 -0.1706
   10MOL   H241 3679   5.702   1.309   7.616 -0.6855 -0.0758  0.9385
   10MOL   H242 3680   5.846   1.157   7.782  1.6378 -1.9301  0.4121
   10MOL   H243 3681   5.768   0.940   7.726 -1.8053  0.3463 -1.7525
   10MOL   H244 3682   5.787   0.952   7.564  0.0696 -0.2518 -0.5109
   10MOL   H245 3683   5.937   0.962   7.651 -0.2279 -2.0832 -4.8709
   10MOL   H246 3684   5.932   1.308   7.615 -1.5425  0.5235 -3.0319
   10MOL   H247 3685   5.937   1.194   7.490 -2.1782 -1.8296 -0.1794
   10MOL   H248 3686   6.030   1.154   7.619  1.0115  1.9849 -1.7442
   10MOL   C249 3687   5.455   1.404   7.665  0.4979 -0.4016  0.3667
   10MOL   C250 3688   5.316   1.476   7.642  0.4861  0.3715 -0.6805
   10MOL   C251 3689   5.353   1.622   7.652  0.3787 -0.5845 -0.1673
   10MOL   O252 3690   5.349   1.676   7.763 -0.1599  0.0827  0.4781
   10MOL   N253 3691   5.373   1.689   7.539  0.4751  0.4263 -0.2649
   10MOL   C254 3692   5.394   1.837   7.534  0.4873  0.4182  0.9677
   10MOL   C255 3693   5.470   1.873   7.405 -1.0577  0.6469  0.7891
   10MOL   C256 3694   5.263   1.915   7.534 -0.9410 -0.5972 -0.4991
   10MOL   H257 3695   5.532   1.457   7.609 -0.9096  1.6298  0.2869
   10MOL   H258 3696   5.489   1.409   7.769 -1.5134 -0.6215  1.0671
   10MOL   H259 3697   5.278   1.461   7.541  0.7775  0.3600 -0.7893
   10MOL   H260 3698   5.386   1.634   7.455 -1.8603 -0.3739 -0.1461
   10MOL   H261 3699   5.454   1.867   7.620 -0.2607 -1.8518  2.3126
   10MOL   H262 3700   5.405   1.854   7.320  0.9659 -1.3062 -0.3946
   10MOL   H263 3701   5.513   1.972   7.392  1.1853 -0.4808 -0.7379
   10MOL   H264 3702   5.562   1.814   7.402 -0.2207  1.9274  0.8104
   10MOL   H265 3703   5.276   2.021   7.514  1.4040 -0.3230  2.2431
   10MOL   H266 3704   5.189   1.898   7.455 -0.6117  2.1681 -1.4720
   10MOL   H267 3705   5.214   1.904   7.630  0.9515 -1.2262  0.4174
   10MOL   C268 3706   5.202   1.430   7.739 -0.6163 -0.2846  0.4318
   10MOL   C269 3707   5.062   1.502   7.742  0.0961  0.5203 -0.3955
   10MOL   C270 3708   5.000   1.533   7.603  1.0015  0.0720 -0.1581
   10MOL   O271 3709   5.018   1.461   7.512 -0.0425  0.4576  0.3454
   10MOL   N272 3710   4.927   1.647   7.598  0.4236  0.2690 -0.1035
   10MOL   C273 3711   4.918   1.719   7.469 -0.7142  0.4147  0.0963
   10MOL   C274 3712   4.827   1.649   7.369 -0.0008  0.7436  0.1834
   10MOL   C275 3713   4.890   1.871   7.491  0.0089  0.1166  0.0969
   10MOL   H276 3714   5.180   1.325   7.720 -1.7818 -0.0475  0.4490
   10MOL   H277 3715   5.252   1.420   7.835  2.0007  0.8765 -0.7611
   10MOL   H278 3716   5.081   1.599   7.788  0.4741  0.7891 -1.1090
   10MOL   H279 3717   4.919   1.694   7.687  1.5242  0.6459 -0.1987
   10MOL   H280 3718   5.021   1.716   7.433 -0.2350  0.1644  1.4596
   10MOL   H281 3719   4.724   1.643   7.402  0.0817  1.3060  0.5644
   10MOL   H282 3720   4.827   1.713   7.281  1.2187  0.8208  0.2262
   10MOL   H283 3721   4.852   1.550   7.332 -0.6990  0.2649  0.9807
   10MOL   H284 3722   4.786   1.903   7.492 -0.0747 -0.1321 -0.5824
   10MOL   H285 3723   4.939   1.904   7.583  1.2675  3.6288 -1.7295
   10MOL   H286 3724   4.940   1.926   7.411  1.6694 -2.6982 -0.8600
   10MOL   C287 3725   4.965   1.443   0.015 -0.5735 -0.2127  0.1193
   10MOL   C288 3726   4.966   1.286   0.046  0.4971  0.3810  0.3514
   10MOL   C289 3727   4.921   1.199   7.761  0.1022  1.3399  0.3538
   10MOL   O290 3728   4.804   1.202   7.722  0.0827  0.0011 -0.1026
   10MOL   N291 3729   5.009   1.118   7.708 -0.0998 -0.2056  0.7374
   10MOL   C292 3730   4.997   1.026   7.597  0.0417  0.5044  0.0763
   10MOL   C293 3731   5.050   1.084   7.468 -0.1954  0.5457 -0.5116
   10MOL   C294 3732   5.086   0.902   7.630 -0.8428 -0.0525 -1.0969
   10MOL   H295 3733   4.978   1.505   0.104  0.3225  0.8034 -0.7031
   10MOL   H296 3734   4.865   1.468   7.817  0.2807  0.0194 -2.2944
   10MOL   H297 3735   5.067   1.254   0.071  0.8192  0.3415 -0.9493
   10MOL   H298 3736   5.102   1.130   7.745  0.7835 -3.7152 -0.1756
   10MOL   H299 3737   4.893   0.991   7.598 -0.3732  1.7378  0.6318
   10MOL   H300 3738   4.990   1.168   7.433  2.1822  2.0850 -0.9531
   10MOL   H301 3739   5.149   1.127   7.478  0.9348 -1.6945 -1.6363
   10MOL   H302 3740   5.049   1.002   7.395  2.0520  0.0634 -0.0454
   10MOL   H303 3741   5.054   0.847   7.718  0.1490  1.0456 -0.0408
   10MOL   H304 3742   5.095   0.838   7.541 -0.8948 -0.1114 -1.0593
   10MOL   H305 3743   5.190   0.919   7.659 -1.8937  4.4335  0.3103
   10MOL   C306 3744   4.878   1.262   0.166  0.2624  0.1179  0.5621
   10MOL   C307 3745   4.898   1.114   0.226 -0.1085 -0.2192 -0.0340
   10MOL   C308 3746   4.795   1.091   0.345 -0.0605 -0.1031  0.0560
   10MOL   O309 3747   4.752   1.189   0.406  0.1613 -0.4936  0.3863
   10MOL   N310 3748   4.754   0.965   0.369 -0.0460  0.3158  0.2886
   10MOL   C311 3749   4.640   0.923   0.450  0.6188 -0.2694  0.2265
   10MOL   C312 3750   4.585   0.793   0.386  0.7207  0.3734 -0.0754
   10MOL   C313 3751   4.684   0.896   0.597  0.3587 -0.0365  0.6128
   10MOL   H314 3752   4.884   1.337   0.245 -4.7343  0.7459  0.5085
   10MOL   H315 3753   4.774   1.264   0.133 -0.5534  0.6309  3.0935
   10MOL   H316 3754   4.866   1.045   0.148 -0.3870  2.5858 -2.4967
   10MOL   H317 3755   4.799   0.893   0.314 -3.0329 -2.9086  1.8896
   10MOL   H318 3756   4.562   0.999   0.448  0.1779 -0.6888  1.2907
   10MOL   H319 3757   4.514   0.750   0.455  1.9725 -1.8932 -0.1686
   10MOL   H320 3758   4.658   0.714   0.369 -0.3419 -0.5537 -0.3127
   10MOL   H321 3759   4.546   0.810   0.285  1.0557  2.0045  0.0497
   10MOL   H322 3760   4.603   0.854   0.656 -0.8446  2.3241  0.7209
   10MOL   H323 3761   4.711   0.991   0.643  0.8102 -0.3834  1.0526
   10MOL   H324 3762   4.766   0.829   0.619  0.9923  0.9767  1.3406
   10MOL   C325 3763   5.043   1.070   0.269 -0.8050  0.2002  0.3930
   10MOL   C326 3764   5.131   1.165   0.360  0.5820 -0.3781  0.0544
   10MOL   C327 3765   5.144   1.102   0.497  0.2318 -0.7658  0.4143
   10MOL   O328 3766   5.204   0.993   0.503  0.7820 -0.0671  0.5750
   10MOL   N329 3767   5.090   1.161   0.607  1.2622 -0.5483 -0.0434
   10MOL   C330 3768   5.121   1.131   0.747  0.3845  0.6052  0.4411
   10MOL   C331 3769   5.006   1.041   0.802  0.0045 -0.1623  0.0243
   10MOL   C332 3770   5.147   1.255   0.829  0.3026  0.7692 -0.0391
   10MOL   H333 3771   5.092   1.054   0.173 -0.6146 -0.3978  0.5902
   10MOL   H334 3772   5.026   0.969   0.306  1.8310 -0.8291 -1.0969
   10MOL   H335 3773   5.080   1.261   0.370  0.4633 -0.6388  2.2374
   10MOL   H336 3774   5.032   1.241   0.583  1.4778 -0.7082 -1.1196
   10MOL   H337 3775   5.206   1.064   0.736 -0.4047 -0.1909 -0.9532
   10MOL   H338 3776   5.010   0.939   0.764 -1.9330  0.3810 -1.7897
   10MOL   H339 3777   4.997   1.037   0.911  0.7044  1.7972  0.1651
   10MOL   H340 3778   4.906   1.078   0.778  0.9629  2.9133  0.5669
   10MOL   H341 3779   5.067   1.328   0.846  1.5632  2.2746 -0.4603
   10MOL   H342 3780   5.244   1.296   0.801  0.9779 -1.0452 -0.4063
   10MOL   H343 3781   5.141   1.223   0.933  0.8713 -0.3100 -0.3325
   10MOL   C344 3782   5.270   1.184   0.294 -0.6628 -0.0142  0.2523
   10MOL   C345 3783   5.374   1.268   0.374 -0.4496 -0.1545  0.0029
   10MOL   C346 3784   5.512   1.257   0.316 -0.4769  0.2617 -0.2443
   10MOL   O347 3785   5.566   1.343   0.250  0.5507 -0.0357  0.2568
   10MOL   N348 3786   5.581   1.140   0.336 -0.0308 -0.1780  0.0589
   10MOL   C349 3787   5.725   1.120   0.317 -0.4267 -0.6037 -0.5555
   10MOL   C350 3788   5.792   1.051   0.440  0.2548  0.2824  0.4083
   10MOL   C351 3789   5.760   1.033   0.193 -0.9267  0.3515  0.4090
   10MOL   H352 3790   5.255   1.223   0.194 -1.0523  1.3708  0.8449
   10MOL   H353 3791   5.308   1.086   0.263  0.8113  0.3749  0.8075
   10MOL   H354 3792   5.366   1.217   0.470  2.2956 -0.5627  0.0536
   10MOL   H355 3793   5.516   1.065   0.356  0.0413 -0.8425 -2.0687
   10MOL   H356 3794   5.781   1.212   0.300 -0.1347 -0.4126  1.3258
   10MOL   H357 3795   5.893   1.014   0.424  0.7722  2.0317 -0.5579
   10MOL   H358 3796   5.803   1.127   0.519  1.0909  1.1974 -0.5741
   10MOL   H359 3797   5.735   0.970   0.485  3.0004 -1.0993  1.5100
   10MOL   H360 3798   5.737   0.928   0.210 -1.4584  0.1652 -1.3809
   10MOL   H361 3799   5.709   1.068   0.104 -0.9237 -0.7814 -0.0440
   10MOL   H362 3800   5.864   1.024   0.165 -0.6220 -0.0206  1.6082
   10MOL   C363 3801   5.321   1.413   0.407 -0.0584 -1.0405  0.5064
   10MOL   C364 3802   5.265   1.488   0.281  0.2606 -0.3436 -0.3697
   10MOL   C365 3803   5.185   1.619   0.307  0.2744  0.0627  0.1527
   10MOL   O366 3804   5.165   1.653   0.422  0.3061 -0.1121  0.0866
   10MOL   N367 3805   5.138   1.677   0.187  0.2451  0.0112 -0.7407
   10MOL   C368 3806   5.080   1.808   0.190  0.5153 -0.1336 -0.0060
   10MOL   C369 3807   5.182   1.921   0.247  0.0698  0.7951  0.0832
   10MOL   C370 3808   5.016   1.847   0.051 -0.2353  0.5479  0.4050
   10MOL   H371 3809   5.398   1.468   0.461  0.2661 -0.5830 -0.4153
   10MOL   H372 3810   5.241   1.409   0.481 -1.2633 -2.8483 -0.8534
   10MOL   H373 3811   5.203   1.424   0.218 -1.7233  1.0041  0.1424
   10MOL   H374 3812   5.174   1.648   0.098  1.2194  1.0426 -0.7022
   10MOL   H375 3813   5.009   1.827   0.272  1.4050 -0.3399  0.8174
   10MOL   H376 3814   5.245   1.872   0.322  0.2507 -2.4540 -2.0644
   10MOL   H377 3815   5.251   1.949   0.167  3.5685 -1.1866  2.2955
   10MOL   H378 3816   5.126   2.007   0.283 -0.5104  0.2667  0.4629
   10MOL   H379 3817   5.077   1.838   7.798  0.6840  0.7541  1.0054
   10MOL   H380 3818   4.943   1.771   0.024  1.2950 -1.4809  1.7789
   10MOL   H381 3819   4.966   1.943   0.040 -1.2121  0.1544  1.2693
   10MOL   H382 3820   5.351   1.508   0.217  0.5123 -0.6128 -0.1165
   11MOL     C1 3821   6.557   0.452   3.413 -0.2887 -0.4631  0.1652
   11MOL     C2 3822   6.509   0.591   3.433  0.4160 -0.0935 -0.0084
   11MOL     C3 3823   6.434   0.633   3.299  1.0489 -0.3612  0.0560
   11MOL     O4 3824   6.313   0.622   3.293  0.3235  0.0571 -0.2376
   11MOL     N5 3825   6.504   0.684   3.200  0.6734  0.6944 -0.4655
   11MOL     C6 3826   6.438   0.721   3.075  0.0305 -0.6575 -0.5075
   11MOL     C7 3827   6.407   0.870   3.061  0.1182  0.1842 -0.6617
   11MOL     C8 3828   6.528   0.679   2.957  0.3381 -0.1267 -0.2857
   11MOL     H9 3829   6.614   0.430   3.503  0.1539  1.5104  0.3810
   11MOL    H10 3830   6.620   0.441   3.324  1.0504 -0.4764  1.1037
   11MOL    H11 3831   6.600   0.651   3.438  0.3961 -0.0848  0.2534
   11MOL    H12 3832   6.604   0.697   3.203  1.0252 -2.1153  1.8156
   11MOL    H13 3833   6.349   0.661   3.056  0.5316 -1.7162  0.4138
   11MOL    H14 3834   6.322   0.898   2.998  1.8314  2.1168 -2.2016
   11MOL    H15 3835   6.494   0.929   3.033  0.2850  1.4716  2.3988
   11MOL    H16 3836   6.375   0.903   3.160  1.2267 -0.4345 -0.0851
   11MOL    H17 3837   6.623   0.732   2.966  1.2634 -1.7112 -0.5380
   11MOL    H18 3838   6.553   0.573   2.947 -3.0733 -1.4276  3.2858
   11MOL    H19 3839   6.480   0.711   2.865 -1.6481 -0.6161  0.5404
   11MOL    H20 3840   6.474   0.383   3.401  0.0609 -0.6732 -1.0990
   11MOL    C21 3841   6.419   0.585   3.564  0.1595 -0.0634 -0.8998
   11MOL    C22 3842   6.384   0.720   3.630 -0.5697 -1.0880  0.6121
   11MOL    C23 3843   6.517   0.798   3.663 -0.2864 -0.5919 -0.3897
   11MOL    O24 3844   6.587   0.763   3.762 -0.3229 -0.1124  0.0355
   11MOL    N25 3845   6.545   0.900   3.582  0.0132  0.0832  0.6162
   11MOL    C26 3846   6.662   0.986   3.571 -0.2112 -0.2360 -0.0741
   11MOL    C27 3847   6.626   1.132   3.594 -0.2795 -0.2625  0.5975
   11MOL    C28 3848   6.732   0.964   3.437 -0.3658 -0.1445  0.6652
   11MOL    H29 3849   6.472   0.520   3.633 -0.2644  0.4305 -0.0955
   11MOL    H30 3850   6.327   0.532   3.542 -0.4290  0.7313 -0.3738
   11MOL    H31 3851   6.336   0.777   3.551 -2.5873 -0.6411  2.1371
   11MOL    H32 3852   6.489   0.893   3.498 -0.6063 -0.5148  1.0690
   11MOL    H33 3853   6.730   0.960   3.652 -2.3101  0.9998  2.1589
   11MOL    H34 3854   6.713   1.194   3.572 -0.3664 -0.7501 -1.2528
   11MOL    H35 3855   6.606   1.149   3.700  0.3605 -0.2605  0.7205
   11MOL    H36 3856   6.540   1.168   3.537  1.0204  2.2410  0.1227
   11MOL    H37 3857   6.665   0.984   3.353  0.8607 -1.3302 -0.6012
   11MOL    H38 3858   6.810   1.040   3.428 -1.0067  0.2680 -1.7589
   11MOL    H39 3859   6.790   0.873   3.422  1.7371  1.3162 -0.2344
   11MOL    C40 3860   6.286   0.695   3.750 -0.2333  0.9946 -0.6685
   11MOL    C41 3861   6.245   0.816   3.831 -0.8808 -0.5055  0.0132
   11MOL    C42 3862   6.328   0.844   3.957 -0.4971 -0.0135  0.6677
   11MOL    O43 3863   6.314   0.788   4.065  0.5695 -0.4707  0.0840
   11MOL    N44 3864   6.421   0.941   3.944 -0.1686  0.2465  0.2043
   11MOL    C45 3865   6.501   1.003   4.053 -0.7780  0.0280  0.0463
   11MOL    C46 3866   6.648   0.995   4.018  0.3206  0.0535 -0.4339
   11MOL    C47 3867   6.461   1.154   4.071 -0.4336  0.3651 -0.1283
   11MOL    H48 3868   6.330   0.630   3.825  1.5237  0.0156 -2.4882
   11MOL    H49 3869   6.194   0.650   3.713  0.2517  0.8375 -1.7151
   11MOL    H50 3870   6.271   0.902   3.770  1.2340  0.0496  1.6467
   11MOL    H51 3871   6.442   0.971   3.849 -1.6286 -0.3969 -0.3411
   11MOL    H52 3872   6.488   0.950   4.147  1.5221 -0.6127  0.0353
   11MOL    H53 3873   6.711   1.051   4.087  2.0657 -0.3380 -1.6735
   11MOL    H54 3874   6.657   1.030   3.915 -0.4556  0.7004 -0.2929
   11MOL    H55 3875   6.681   0.892   4.032 -0.6435 -0.0992  0.8591
   11MOL    H56 3876   6.537   1.206   4.130 -0.5889 -0.2481  0.6077
   11MOL    H57 3877   6.364   1.167   4.119 -0.5371  1.6964 -0.6690
   11MOL    H58 3878   6.448   1.208   3.977 -0.9563  0.5175  0.0318
   11MOL    C59 3879   6.094   0.833   3.867  0.9955  0.3959  0.4444
   11MOL    C60 3880   5.993   0.855   3.752  0.0667 -0.1118 -0.4026
   11MOL    C61 3881   6.046   0.976   3.677 -0.4903 -0.4078  0.1419
   11MOL    O62 3882   6.038   1.087   3.729 -0.3130 -0.3241  0.2530
   11MOL    N63 3883   6.085   0.958   3.555  0.5203  0.0190 -0.1089
   11MOL    C64 3884   6.135   1.061   3.466 -0.6765  0.0314  0.7171
   11MOL    C65 3885   6.277   1.018   3.415  0.1781 -0.5547 -0.4692
   11MOL    C66 3886   6.036   1.069   3.353  0.3959 -0.1571 -0.2751
   11MOL    H67 3887   6.066   0.736   3.909  0.6860  0.8648  1.3283
   11MOL    H68 3888   6.062   0.895   3.950 -2.0777 -0.7733  0.2073
   11MOL    H69 3889   5.991   0.767   3.687  0.2165  1.1604 -2.1733
   11MOL    H70 3890   6.089   0.863   3.521 -0.2980 -0.1078  0.1410
   11MOL    H71 3891   6.135   1.156   3.521  1.7186 -0.1244  1.0534
   11MOL    H72 3892   6.333   0.979   3.500  2.6095  1.1998 -1.2001
   11MOL    H73 3893   6.273   0.947   3.332  0.3189 -0.7337 -0.3232
   11MOL    H74 3894   6.346   1.099   3.394 -1.9107  1.1780 -0.8237
   11MOL    H75 3895   5.933   1.089   3.382 -1.0608 -3.6048 -2.7353
   11MOL    H76 3896   6.068   1.152   3.289  0.8801  0.4196  0.7077
   11MOL    H77 3897   6.039   0.980   3.290  0.2603  0.6327 -1.4152
   11MOL    C78 3898   5.848   0.869   3.814  0.1098 -0.5076 -0.0245
   11MOL    C79 3899   5.713   0.872   3.717  0.4048  0.3790 -0.6282
   11MOL    C80 3900   5.602   0.922   3.812  0.1044 -0.0035 -0.5708
   11MOL    O81 3901   5.584   1.042   3.825 -0.0592 -0.3480 -0.0094
   11MOL    N82 3902   5.532   0.830   3.877 -0.1444  0.1619  0.1716
   11MOL    C83 3903   5.444   0.864   3.989 -0.8784 -0.0466 -0.5300
   11MOL    C84 3904   5.332   0.756   3.997  0.1035  0.0404  0.3103
   11MOL    C85 3905   5.524   0.875   4.123 -0.0551  0.3564  0.5294
   11MOL    H86 3906   5.854   0.963   3.870 -0.0559 -1.1625  1.1118
   11MOL    H87 3907   5.831   0.790   3.887  0.9887 -1.0657 -0.4133
   11MOL    H88 3908   5.698   0.772   3.678  0.5679  0.7164 -1.5641
   11MOL    H89 3909   5.540   0.730   3.869 -1.6118  0.0902 -0.4976
   11MOL    H90 3910   5.401   0.961   3.963  1.7042  1.4979  0.7011
   11MOL    H91 3911   5.240   0.779   4.051 -0.1075 -1.2909  0.5300
   11MOL    H92 3912   5.308   0.715   3.899 -0.9789  1.7960 -0.1774
   11MOL    H93 3913   5.369   0.665   4.044  1.1430 -0.1475 -0.8337
   11MOL    H94 3914   5.631   0.895   4.110  0.0914 -1.6904 -1.9265
   11MOL    H95 3915   5.502   0.787   4.183 -1.4016  0.1316 -0.2704
   11MOL    H96 3916   5.481   0.946   4.193 -2.5098  1.1605 -1.7538
   11MOL    C97 3917   5.736   0.964   3.602  0.3913  0.6239 -0.0158
   11MOL    C98 3918   5.603   0.999   3.521  0.1951 -0.4448  0.3104
   11MOL    C99 3919   5.555   0.880   3.435  0.6531  0.8131 -0.0584
   11MOL   O100 3920   5.605   0.851   3.332 -0.1258  0.0261  0.3477
   11MOL   N101 3921   5.455   0.801   3.487 -0.3982 -0.7589  0.4615
   11MOL   C102 3922   5.408   0.671   3.440 -0.0115 -0.0051  0.1053
   11MOL   C103 3923   5.335   0.587   3.553  0.1048  0.2199  0.1529
   11MOL   C104 3924   5.309   0.702   3.330 -0.0316  0.1129  1.2512
   11MOL   H105 3925   5.803   0.920   3.528  0.0409 -1.1069  0.6852
   11MOL   H106 3926   5.791   1.055   3.627  0.7251  0.2031  0.7986
   11MOL   H107 3927   5.509   1.013   3.575 -1.2419  0.5273 -2.3479
   11MOL   H108 3928   5.416   0.835   3.574 -3.3242 -0.6206 -0.8396
   11MOL   H109 3929   5.494   0.622   3.394 -0.1556  1.0677 -1.3367
   11MOL   H110 3930   5.325   0.484   3.520 -0.4496  0.6871 -1.1455
   11MOL   H111 3931   5.393   0.580   3.645  1.1936 -2.9327 -0.7002
   11MOL   H112 3932   5.237   0.626   3.581  0.2160  0.3194  0.4092
   11MOL   H113 3933   5.248   0.613   3.314  1.3259 -0.6036  0.0360
   11MOL   H114 3934   5.364   0.714   3.237 -1.3363 -2.0174  0.1805
   11MOL   H115 3935   5.237   0.783   3.346 -0.0109  0.7118 -1.5158
   11MOL   C116 3936   5.607   1.123   3.431 -0.1890  0.2912 -0.5129
   11MOL   C117 3937   5.635   1.261   3.496  0.3575  0.9701  0.6599
   11MOL   C118 3938   5.517   1.331   3.561  0.1972  0.2167 -0.3746
   11MOL   O119 3939   5.461   1.433   3.513 -0.0513  0.5754  0.6624
   11MOL   N120 3940   5.481   1.274   3.676  0.3249  0.3758  0.6032
   11MOL   C121 3941   5.364   1.317   3.763  0.3188  0.3691  0.7849
   11MOL   C122 3942   5.262   1.205   3.771 -0.5140 -0.9440  0.4104
   11MOL   C123 3943   5.418   1.354   3.895 -0.1831 -0.5260 -0.3092
   11MOL   H124 3944   5.506   1.136   3.392  0.3109 -0.9376 -2.2609
   11MOL   H125 3945   5.672   1.110   3.345  2.2186  1.4639  1.0578
   11MOL   H126 3946   5.708   1.252   3.577  0.1282 -0.6873  0.6909
   11MOL   H127 3947   5.530   1.196   3.718 -3.0557 -1.4255  1.4565
   11MOL   H128 3948   5.318   1.405   3.718 -1.4244 -1.7432 -1.6992
   11MOL   H129 3949   5.170   1.241   3.818 -1.7710  0.0185 -2.7006
   11MOL   H130 3950   5.305   1.116   3.816  2.0213 -0.1749 -0.3744
   11MOL   H131 3951   5.239   1.173   3.670 -2.5168  0.0081  0.5330
   11MOL   H132 3952   5.518   1.396   3.884 -1.0212  2.0117  1.2584
   11MOL   H133 3953   5.360   1.432   3.945 -0.3904 -0.4629 -0.6494
   11MOL   H134 3954   5.439   1.270   3.962  0.9325 -0.5512 -0.6803
   11MOL   C135 3955   5.695   1.349   3.392 -0.2134 -0.5569 -0.9697
   11MOL   C136 3956   5.751   1.485   3.426  0.4095 -0.8268 -0.9736
   11MOL   C137 3957   5.849   1.479   3.539  0.0032  0.6071 -0.6165
   11MOL   O138 3958   5.964   1.436   3.523  0.0783  0.2137 -0.9306
   11MOL   N139 3959   5.805   1.518   3.658  0.6919 -0.5301  0.4037
   11MOL   C140 3960   5.895   1.517   3.774  0.3007 -0.0520  0.3039
   11MOL   C141 3961   5.809   1.509   3.905 -0.0951 -0.4824  0.1919
   11MOL   C142 3962   5.982   1.644   3.768  0.2467  0.4148  0.4026
   11MOL   H143 3963   5.631   1.362   3.305 -1.5717  2.5378  0.4382
   11MOL   H144 3964   5.783   1.295   3.355  1.5775  0.0876  2.1769
   11MOL   H145 3965   5.669   1.552   3.451  1.8485  1.0020 -0.9624
   11MOL   H146 3966   5.707   1.537   3.676  0.7714 -1.6463  2.2272
   11MOL   H147 3967   5.951   1.423   3.779  1.6902  0.6368 -1.9234
   11MOL   H148 3968   5.875   1.494   3.990  0.3884 -1.3231 -0.3255
   11MOL   H149 3969   5.742   1.588   3.937 -0.1479 -0.6369  0.4680
   11MOL   H150 3970   5.752   1.417   3.891  1.6547 -1.5432 -0.1408
   11MOL   H151 3971   5.922   1.735   3.760  3.1995  2.5657  1.9848
   11MOL   H152 3972   6.048   1.644   3.681  0.1752 -1.6034  0.3019
   11MOL   H153 3973   6.045   1.661   3.855  1.4344 -0.1886 -0.3101
   11MOL   C154 3974   5.832   1.538   3.305 -0.1244  0.4408  0.3919
   11MOL   C155 3975   5.901   1.681   3.332 -0.5905 -0.0228 -0.0159
   11MOL   C156 3976   5.807   1.795   3.376 -0.4620 -0.1347  0.6118
   11MOL   O157 3977   5.761   1.862   3.282  0.7068  0.4886 -0.4573
   11MOL   N158 3978   5.790   1.824   3.506  0.5795  0.0260  0.0455
   11MOL   C159 3979   5.712   1.942   3.549  0.0467 -0.4258  0.8326
   11MOL   C160 3980   5.732   1.962   3.699 -0.1697 -0.6145 -0.0981
   11MOL   C161 3981   5.560   1.926   3.517 -0.0111 -0.2288  0.6234
   11MOL   H162 3982   5.764   1.547   3.220  1.0988 -0.1892 -0.6651
   11MOL   H163 3983   5.907   1.466   3.272  0.3051  0.8908  0.3921
   11MOL   H164 3984   5.976   1.669   3.410 -0.4368 -0.5299 -0.2397
   11MOL   H165 3985   5.832   1.759   3.571  0.4827  0.2501  0.3336
   11MOL   H166 3986   5.756   2.030   3.503 -1.6076  0.4630  0.9196
   11MOL   H167 3987   5.691   1.873   3.746 -1.6517 -0.1764 -0.5184
   11MOL   H168 3988   5.834   1.988   3.726 -0.4882  1.5633 -0.8415
   11MOL   H169 3989   5.666   2.041   3.738  1.6384  0.0284  1.7294
   11MOL   H170 3990   5.537   1.821   3.528 -0.5950 -0.1181  0.4547
   11MOL   H171 3991   5.531   1.964   3.419  0.1315  2.4386  1.5754
   11MOL   H172 3992   5.488   1.973   3.585 -1.3576 -0.8333 -0.3754
   11MOL   C173 3993   5.988   1.706   3.211 -0.0842 -0.3531 -0.4687
   11MOL   C174 3994   6.084   1.828   3.230 -0.2465  0.1852  0.0824
   11MOL   C175 3995   6.201   1.780   3.314 -0.2558 -0.1755  0.0548
   11MOL   O176 3996   6.278   1.695   3.275 -0.5657  0.5503 -0.0383
   11MOL   N177 3997   6.221   1.832   3.438 -0.6740  0.8753 -0.0221
   11MOL   C178 3998   6.336   1.801   3.536  0.1806 -0.3986 -0.5761
   11MOL   C179 3999   6.308   1.879   3.671  1.1096  0.4824 -0.9250
   11MOL   C180 4000   6.470   1.852   3.478 -0.2664  0.6135  0.1454
   11MOL   H181 4001   5.916   1.733   3.133 -0.2563  0.1903 -0.1207
   11MOL   H182 4002   6.033   1.613   3.175  0.9898 -0.5232  1.2434
   11MOL   H183 4003   6.029   1.910   3.277 -0.3368  0.0726  0.1737
   11MOL   H184 4004   6.148   1.890   3.475 -1.8245 -0.7926  0.3340
   11MOL   H185 4005   6.334   1.695   3.560  1.2582 -0.8538 -2.4138
   11MOL   H186 4006   6.215   1.838   3.708  1.3010 -0.9105 -1.9270
   11MOL   H187 4007   6.309   1.987   3.656 -1.7034  0.8632  1.3390
   11MOL   H188 4008   6.383   1.852   3.745  0.4976 -2.1002 -1.1875
   11MOL   H189 4009   6.492   1.787   3.393  0.0959  0.4373  0.3715
   11MOL   H190 4010   6.546   1.821   3.550  1.2878  1.2594 -1.1624
   11MOL   H191 4011   6.464   1.960   3.463  0.4365  0.4646 -1.3405
   11MOL   C192 4012   6.148   1.888   3.096  0.0445  0.0237 -0.5691
   11MOL   C193 4013   6.054   1.995   3.033 -0.0358  0.6017  0.2696
   11MOL   C194 4014   5.947   1.930   2.937 -0.8605  0.8555 -0.3114
   11MOL   O195 4015   5.987   1.870   2.836 -0.3544 -0.1407 -0.1596
   11MOL   N196 4016   5.816   1.943   2.964  0.5681 -0.9704  0.0301
   11MOL   C197 4017   5.703   1.897   2.883 -0.4914 -0.3565 -0.0592
   11MOL   C198 4018   5.641   1.785   2.957 -0.0078 -0.5904 -0.8322
   11MOL   C199 4019   5.597   2.002   2.860  0.3730  0.4027 -0.0510
   11MOL   H200 4020   6.181   1.813   3.024 -0.6958  1.5009 -2.5053
   11MOL   H201 4021   6.250   1.921   3.117  0.5745 -2.6289  1.3010
   11MOL   H202 4022   5.986   2.034   3.108 -1.6325 -2.1485  0.3009
   11MOL   H203 4023   5.793   1.989   3.051 -0.6515  1.9549 -1.7744
   11MOL   H204 4024   5.740   1.859   2.787  0.2037  2.3397 -0.9057
   11MOL   H205 4025   5.710   1.700   2.953 -0.0240 -0.6461 -0.0364
   11MOL   H206 4026   5.549   1.758   2.904 -1.0665  1.8297 -0.3029
   11MOL   H207 4027   5.622   1.803   3.063  3.5959  0.5873 -0.3370
   11MOL   H208 4028   5.512   1.969   2.801  1.0772 -2.5340  0.4909
   11MOL   H209 4029   5.628   2.100   2.826  0.1499  1.1672  1.8889
   11MOL   H210 4030   5.562   2.017   2.962  0.1968  0.0402 -0.0550
   11MOL   C211 4031   6.140   2.106   2.966  0.3235  0.2189  0.2530
   11MOL   C212 4032   6.164   2.231   3.054 -0.3707 -0.3764 -0.7048
   11MOL   C213 4033   6.237   2.211   3.195  0.7235  0.4762 -0.6415
   11MOL   O214 4034   6.360   2.195   3.213 -0.9264  0.3412 -0.3694
   11MOL   N215 4035   6.154   2.203   3.300  0.2295 -0.0288  0.1683
   11MOL   C216 4036   6.185   2.187   3.445  0.6704  1.4777 -0.5249
   11MOL   C217 4037   6.057   2.152   3.522 -0.3572 -0.4474 -0.4652
   11MOL   C218 4038   6.249   2.314   3.506 -0.6907 -0.3848  0.3625
   11MOL   H219 4039   6.087   2.141   2.878  3.4240 -0.6234 -2.0173
   11MOL   H220 4040   6.227   2.058   2.922  0.7577  1.2199  0.0080
   11MOL   H221 4041   6.069   2.273   3.089  2.1206  3.2954  2.0883
   11MOL   H222 4042   6.055   2.216   3.285  0.2450 -0.0183  0.0727
   11MOL   H223 4043   6.243   2.095   3.452  0.6721  1.3968 -1.5659
   11MOL   H224 4044   6.077   2.148   3.629 -0.3004 -2.7605 -0.5272
   11MOL   H225 4045   5.980   2.229   3.518 -1.3815 -1.4589 -0.7161
   11MOL   H226 4046   6.008   2.059   3.492  0.5844 -0.2975 -2.4980
   11MOL   H227 4047   6.328   2.332   3.433  0.1064 -0.6805  1.1420
   11MOL   H228 4048   6.295   2.298   3.604  0.8456  0.2025 -0.2440
   11MOL   H229 4049   6.185   2.402   3.515 -0.0143  0.1277  0.2025
   11MOL   C230 4050   6.252   2.329   2.976 -0.1141 -0.5638  0.5314
   11MOL   C231 4051   6.267   2.471   3.038  0.2825 -0.1865 -0.4758
   11MOL   C232 4052   6.399   2.521   2.990 -0.2015 -0.5581  0.2268
   11MOL   O233 4053   6.417   2.556   2.875  0.5410  0.1975 -0.0045
   11MOL   N234 4054   6.493   2.540   3.083 -0.5728  0.2045 -0.2820
   11MOL   C235 4055   6.627   2.598   3.068  0.6074 -0.3696 -0.4157
   11MOL   C236 4056   6.710   2.507   2.977 -0.4974 -0.3115  0.3822
   11MOL   C237 4057   6.618   2.747   3.038 -0.5968 -0.4302  0.9932
   11MOL   H238 4058   6.214   2.341   2.874  0.2559  0.2665  0.4797
   11MOL   H239 4059   6.349   2.286   2.953 -0.3358  0.6234 -2.9900
   11MOL   H240 4060   6.274   2.466   3.147 -1.3323  1.1708 -0.2983
   11MOL   H241 4061   6.461   2.510   3.175  0.8742 -0.4419  0.0240
   11MOL   H242 4062   6.672   2.589   3.167 -0.1866  1.1571  0.0918
   11MOL   H243 4063   6.817   2.528   2.985 -0.8405  0.8458  2.3157
   11MOL   H244 4064   6.708   2.404   3.012 -0.0420  0.5473  3.0853
   11MOL   H245 4065   6.675   2.518   2.874  0.6185  0.6087  0.0843
   11MOL   H246 4066   6.581   2.776   2.939  0.5399 -0.9397  0.4029
   11MOL   H247 4067   6.720   2.784   3.041 -0.9032  0.5609 -0.4271
   11MOL   H248 4068   6.573   2.814   3.110 -1.4599  2.1140 -1.8025
   11MOL   C249 4069   6.154   2.569   2.995  0.1215  0.0439 -0.4732
   11MOL   C250 4070   6.011   2.543   3.043 -1.2290  0.2261 -0.2031
   11MOL   C251 4071   5.917   2.645   2.983  0.0047  0.4162  0.2900
   11MOL   O252 4072   5.927   2.763   3.006 -0.0256  0.1232  0.3246
   11MOL   N253 4073   5.812   2.598   2.914 -0.2300 -0.1517 -0.0456
   11MOL   C254 4074   5.696   2.674   2.866 -0.3330  0.4766 -0.3988
   11MOL   C255 4075   5.614   2.593   2.766 -0.2991  0.0154  0.4744
   11MOL   C256 4076   5.610   2.727   2.984  0.3541  0.3124 -0.2697
   11MOL   H257 4077   6.155   2.563   2.886  2.3076 -0.6463 -0.4369
   11MOL   H258 4078   6.175   2.672   3.024  2.5524 -0.5403 -0.0173
   11MOL   H259 4079   5.973   2.445   3.014 -1.4770 -0.0820  1.1235
   11MOL   H260 4080   5.811   2.497   2.906 -1.4446 -0.1625  0.1200
   11MOL   H261 4081   5.735   2.762   2.816  2.8532 -0.2846  0.6747
   11MOL   H262 4082   5.580   2.500   2.810  0.8042  0.0258  1.3715
   11MOL   H263 4083   5.521   2.640   2.735  0.1306  0.0089 -0.8608
   11MOL   H264 4084   5.670   2.566   2.676 -0.0629  0.3534  0.5187
   11MOL   H265 4085   5.515   2.772   2.955  1.1638  1.2266 -1.5982
   11MOL   H266 4086   5.575   2.643   3.044  2.2700 -0.2849  0.0597
   11MOL   H267 4087   5.659   2.800   3.049  3.2764 -1.4841 -0.3352
   11MOL   C268 4088   6.003   2.536   3.199  0.0692 -0.3482  0.6282
   11MOL   C269 4089   5.867   2.510   3.275  0.6774  0.5191  0.0285
   11MOL   C270 4090   5.807   2.373   3.237  0.1014  0.8480  0.4539
   11MOL   O271 4091   5.877   2.276   3.214  0.4317  0.1441 -0.0422
   11MOL   N272 4092   5.677   2.379   3.212 -0.0857 -0.4388 -0.0261
   11MOL   C273 4093   5.598   2.273   3.145  0.1767 -0.4480 -0.5659
   11MOL   C274 4094   5.581   2.166   3.256  0.2882 -0.0104 -0.5877
   11MOL   C275 4095   5.474   2.340   3.087  0.6344 -0.2792  1.3882
   11MOL   H276 4096   6.073   2.468   3.247  1.5744 -0.4319 -1.5848
   11MOL   H277 4097   6.017   2.637   3.238 -1.2804  0.2224 -0.3209
   11MOL   H278 4098   5.795   2.583   3.238 -1.6824 -0.2560  2.8956
   11MOL   H279 4099   5.633   2.460   3.253  0.8074 -0.6047  1.2957
   11MOL   H280 4100   5.640   2.228   3.055  3.0224  2.0379 -0.5722
   11MOL   H281 4101   5.552   2.210   3.352  1.6811  2.9836 -1.4791
   11MOL   H282 4102   5.504   2.099   3.219 -2.2303  2.9533 -0.9798
   11MOL   H283 4103   5.675   2.115   3.276 -1.1994 -2.8174 -0.5478
   11MOL   H284 4104   5.488   2.434   3.035  0.1282 -0.2117  1.3760
   11MOL   H285 4105   5.429   2.271   3.016  0.4614  1.3381 -0.0948
   11MOL   H286 4106   5.397   2.348   3.164 -1.4376  1.4261 -0.8148
   11MOL   C287 4107   5.875   2.520   3.431  0.2832 -0.4012 -0.6886
   11MOL   C288 4108   5.776   2.635   3.478 -0.3378 -0.2032 -0.1145
   11MOL   C289 4109   5.819   2.781   3.446  0.1946  0.3256  0.2146
   11MOL   O290 4110   5.735   2.865   3.429  0.5368  0.0203 -0.2400
   11MOL   N291 4111   5.949   2.808   3.438  0.1948 -0.2231 -0.0035
   11MOL   C292 4112   6.022   2.935   3.418  0.8414 -0.1986 -0.4085
   11MOL   C293 4113   6.023   3.012   3.550 -0.1832  0.2003  0.2532
   11MOL   C294 4114   6.162   2.901   3.365 -0.5987 -0.2255  0.6330
   11MOL   H295 4115   5.861   2.431   3.492 -1.0729 -2.1448 -3.4432
   11MOL   H296 4116   5.978   2.553   3.448  0.6511  0.0111 -3.3874
   11MOL   H297 4117   5.687   2.614   3.418 -0.2593 -3.0813  0.7213
   11MOL   H298 4118   6.009   2.727   3.431  1.2306  0.6149 -0.8918
   11MOL   H299 4119   5.969   2.994   3.344 -0.5659 -0.9722 -0.0446
   11MOL   H300 4120   5.921   3.028   3.585 -0.7654  0.5901 -1.5836
   11MOL   H301 4121   6.092   2.962   3.619  0.7267 -0.5736 -1.1898
   11MOL   H302 4122   6.063   3.110   3.526  1.4548 -0.2561  1.0414
   11MOL   H303 4123   6.144   2.865   3.263 -0.3787 -2.3545  1.3229
   11MOL   H304 4124   6.217   2.995   3.361  1.7212 -1.5166  1.4483
   11MOL   H305 4125   6.223   2.834   3.425 -1.1925 -0.7691  0.6303
   11MOL   C306 4126   5.740   2.623   3.633 -0.3207 -1.2179 -0.3127
   11MOL   C307 4127   5.599   2.657   3.670  0.2577 -0.3292  0.2927
   11MOL   C308 4128   5.577   2.708   3.819 -0.7517 -0.2776  0.5117
   11MOL   O309 4129   5.596   2.629   3.914  0.2570  0.8440 -0.0583
   11MOL   N310 4130   5.554   2.836   3.837 -0.1585 -0.5567 -0.1803
   11MOL   C311 4131   5.518   2.890   3.969 -0.4054  0.0699  0.2707
   11MOL   C312 4132   5.594   3.023   3.999  0.4226 -0.1054  0.0364
   11MOL   C313 4133   5.363   2.893   3.989 -0.3679  0.0089 -0.0673
   11MOL   H314 4134   5.768   2.524   3.669 -0.2838 -0.0848  2.9015
   11MOL   H315 4135   5.803   2.683   3.698 -0.6512 -0.5848 -0.5731
   11MOL   H316 4136   5.570   2.742   3.608  1.6590  1.2922  1.7852
   11MOL   H317 4137   5.551   2.895   3.755  0.4439 -0.4110 -0.1043
   11MOL   H318 4138   5.545   2.824   4.052 -0.6357 -0.2900  0.0605
   11MOL   H319 4139   5.586   3.049   4.104 -1.8787  2.2675 -0.6929
   11MOL   H320 4140   5.556   3.110   3.946  1.1423  0.6772  0.7851
   11MOL   H321 4141   5.700   3.018   3.975  0.5104 -0.4553  0.4837
   11MOL   H322 4142   5.340   2.794   4.030  2.4808 -0.0044  1.6431
   11MOL   H323 4143   5.304   2.894   3.897  0.3466  3.8795 -0.5469
   11MOL   H324 4144   5.328   2.961   4.066  1.7596  1.0437  0.0082
   11MOL   C325 4145   5.504   2.543   3.637 -0.2394 -0.2877 -0.7716
   11MOL   C326 4146   5.369   2.597   3.589  0.2110  0.2653  0.2550
   11MOL   C327 4147   5.375   2.627   3.437  0.2384  0.4822  0.1334
   11MOL   O328 4148   5.425   2.544   3.359 -0.9777  0.2878  0.2317
   11MOL   N329 4149   5.325   2.741   3.395 -0.5543  0.4374 -0.2065
   11MOL   C330 4150   5.306   2.782   3.258 -0.1554  0.4335  0.0149
   11MOL   C331 4151   5.380   2.913   3.207 -0.8579 -0.2642  0.7671
   11MOL   C332 4152   5.152   2.799   3.233 -0.0906  1.3026 -0.4058
   11MOL   H333 4153   5.502   2.485   3.729  0.3905 -0.0673 -0.6206
   11MOL   H334 4154   5.546   2.479   3.560  0.3788 -1.0890  0.2225
   11MOL   H335 4155   5.343   2.691   3.639 -0.2530  1.7082 -2.5897
   11MOL   H336 4156   5.282   2.807   3.458  2.0919  1.0003  1.0907
   11MOL   H337 4157   5.343   2.703   3.193  0.3425  0.9210 -0.2897
   11MOL   H338 4158   5.488   2.897   3.205 -0.6843  0.5044  3.1211
   11MOL   H339 4159   5.349   2.935   3.105 -2.4080 -1.8733  0.8610
   11MOL   H340 4160   5.359   3.001   3.267 -2.4890 -1.1795  1.5709
   11MOL   H341 4161   5.097   2.710   3.265  2.2934 -0.7544 -1.9113
   11MOL   H342 4162   5.136   2.819   3.127 -1.5968  0.4124 -0.3770
   11MOL   H343 4163   5.109   2.886   3.283  1.8727  1.2885  1.3401
   11MOL   C344 4164   5.250   2.499   3.624 -0.0657 -0.3036 -0.1582
   11MOL   C345 4165   5.103   2.534   3.588  0.8452  0.0367 -0.0614
   11MOL   C346 4166   5.025   2.421   3.524 -0.4097  0.1553  0.1019
   11MOL   O347 4167   4.995   2.324   3.590 -0.4304  0.5470 -0.0434
   11MOL   N348 4168   4.996   2.444   3.392  0.2126  0.4367  0.3780
   11MOL   C349 4169   4.920   2.367   3.299  0.2220 -1.2262 -0.6331
   11MOL   C350 4170   4.792   2.434   3.261  0.2863 -0.8108 -0.2682
   11MOL   C351 4171   5.006   2.350   3.173 -0.3636 -0.0132 -0.7734
   11MOL   H352 4172   5.253   2.490   3.733  1.0717 -2.2495 -0.3468
   11MOL   H353 4173   5.266   2.407   3.569  1.9641  0.7450 -1.4066
   11MOL   H354 4174   5.095   2.617   3.518 -1.5856 -1.5448 -1.7485
   11MOL   H355 4175   5.021   2.535   3.356 -0.6216  0.7932  0.6752
   11MOL   H356 4176   4.895   2.269   3.338  0.8093 -1.7813 -1.6314
   11MOL   H357 4177   4.808   2.537   3.229 -1.0183 -0.2397  0.8634
   11MOL   H358 4178   4.744   2.367   3.190 -0.5270 -0.6348  0.1057
   11MOL   H359 4179   4.731   2.444   3.351 -0.3538  1.4289 -0.9050
   11MOL   H360 4180   5.029   2.441   3.118 -1.0103 -0.4645 -1.8151
   11MOL   H361 4181   5.096   2.299   3.205  0.0156  2.0068  1.5411
   11MOL   H362 4182   4.960   2.283   3.101 -1.1822 -1.5991  1.1528
   11MOL   C363 4183   5.027   2.585   3.711 -0.4556  0.5395  0.2298
   11MOL   C364 4184   5.078   2.693   3.800 -0.3199 -0.1501 -0.3534
   11MOL   C365 4185   5.080   2.832   3.737 -0.0759 -0.2442 -0.4199
   11MOL   O366 4186   5.140   2.867   3.635 -0.0182  0.1655 -0.5855
   11MOL   N367 4187   4.995   2.911   3.807 -0.3152 -0.3398 -0.1160
   11MOL   C368 4188   4.971   3.056   3.771 -0.3474  0.9840  0.2887
   11MOL   C369 4189   4.829   3.083   3.724 -0.8168  0.0263  0.6458
   11MOL   C370 4190   5.005   3.133   3.895 -0.5521 -0.2822  0.3329
   11MOL   H371 4191   5.028   2.505   3.786 -1.3471 -1.2354 -1.5836
   11MOL   H372 4192   4.926   2.607   3.675 -0.7362 -0.3814  0.4255
   11MOL   H373 4193   5.182   2.671   3.826 -0.4324 -1.2827 -0.8505
   11MOL   H374 4194   4.939   2.862   3.876 -2.4097 -1.6167 -2.6219
   11MOL   H375 4195   5.034   3.089   3.688  0.0042 -0.2344  0.0613
   11MOL   H376 4196   4.758   3.047   3.798 -0.2653 -0.7950  0.7818
   11MOL   H377 4197   4.820   3.191   3.709 -2.1857  0.0773  1.8022
   11MOL   H378 4198   4.822   3.024   3.633 -3.3372  0.0578  0.7844
   11MOL   H379 4199   5.111   3.117   3.918 -0.7267 -1.7767  0.1831
   11MOL   H380 4200   4.995   3.239   3.876 -0.4460 -0.4790 -0.8847
   11MOL   H381 4201   4.946   3.092   3.977 -2.7865 -1.7367 -1.9217
   11MOL   H382 4202   5.019   2.694   3.892  1.0009  2.2025  0.5237
   12MOL     C1 4203   1.592   2.024   7.677 -0.9526  0.3378 -0.1939
   12MOL     C2 4204   1.480   2.094   7.596 -0.4956  0.3954 -0.0168
   12MOL     C3 4205   1.383   1.990   7.550  0.4591 -0.1161 -0.2750
   12MOL     O4 4206   1.341   1.896   7.628  0.8715 -0.2192  0.4207
   12MOL     N5 4207   1.359   1.988   7.419  0.0325 -0.3129  0.1581
   12MOL     C6 4208   1.275   1.884   7.357 -0.3597  0.0724 -0.2826
   12MOL     C7 4209   1.213   1.947   7.230  0.1363 -0.8104  0.0041
   12MOL     C8 4210   1.361   1.766   7.326 -0.3194  0.7465 -0.0094
   12MOL     H9 4211   1.645   1.946   7.621  0.1956  0.9788 -0.0307
   12MOL    H10 4212   1.541   1.993   7.768 -0.8930  0.3392 -0.1598
   12MOL    H11 4213   1.521   2.146   7.510  1.1647 -1.1711 -0.1926
   12MOL    H12 4214   1.408   2.049   7.356  0.0757 -0.1843  0.3145
   12MOL    H13 4215   1.203   1.853   7.432 -0.2561 -0.5439 -0.4333
   12MOL    H14 4216   1.171   1.869   7.166 -2.1645  0.0187  0.4287
   12MOL    H15 4217   1.272   2.011   7.166 -0.8074  1.2306  1.1248
   12MOL    H16 4218   1.129   2.014   7.249 -0.8338 -1.2633 -2.5857
   12MOL    H17 4219   1.350   1.709   7.234 -2.1117  2.4354 -0.8776
   12MOL    H18 4220   1.464   1.801   7.327  0.1091 -0.4153 -1.9494
   12MOL    H19 4221   1.353   1.688   7.402 -2.0543 -0.6282 -1.5626
   12MOL    H20 4222   1.668   2.097   7.704 -1.2694  0.8300 -0.6486
   12MOL    C21 4223   1.419   2.209   7.684 -0.2623 -0.4824  0.8143
   12MOL    C22 4224   1.328   2.319   7.621  0.0553 -0.4137  0.0786
   12MOL    C23 4225   1.390   2.383   7.494 -0.1281 -0.0706  0.3614
   12MOL    O24 4226   1.509   2.424   7.499  0.6472  0.0594 -0.1471
   12MOL    N25 4227   1.310   2.395   7.383 -0.5838  0.3571 -0.1777
   12MOL    C26 4228   1.329   2.459   7.258  0.5156  0.4066 -0.3553
   12MOL    C27 4229   1.300   2.610   7.274 -0.7747  0.7117 -0.4509
   12MOL    C28 4230   1.230   2.388   7.159 -0.8382  0.3485  0.4960
   12MOL    H29 4231   1.510   2.254   7.724  0.0500 -0.2067 -0.1766
   12MOL    H30 4232   1.366   2.152   7.760  0.1319 -1.3717  0.4207
   12MOL    H31 4233   1.239   2.266   7.586 -0.1559  0.3456 -0.5594
   12MOL    H32 4234   1.211   2.380   7.390 -0.8921  0.2003 -3.6230
   12MOL    H33 4235   1.429   2.432   7.223 -0.1330 -2.6067 -0.0015
   12MOL    H34 4236   1.363   2.657   7.350 -2.1787  0.1300  1.0867
   12MOL    H35 4237   1.205   2.639   7.318  0.2729  2.1309  0.9400
   12MOL    H36 4238   1.321   2.666   7.183  2.9352  0.6896  0.2898
   12MOL    H37 4239   1.246   2.281   7.148 -0.2075  0.4616  0.3084
   12MOL    H38 4240   1.129   2.395   7.200 -1.3699 -2.4310 -0.2521
   12MOL    H39 4241   1.231   2.435   7.060 -0.6978  2.2716  1.3757
   12MOL    C40 4242   1.302   2.429   7.728 -0.7653  0.8958 -0.2321
   12MOL    C41 4243   1.182   2.520   7.688 -0.0888 -0.2062 -0.0814
   12MOL    C42 4244   1.214   2.663   7.730 -0.2141 -0.2702 -0.0773
   12MOL    O43 4245   1.216   2.689   0.011 -0.0769  0.1570 -0.3701
   12MOL    N44 4246   1.257   2.751   7.634  0.1900  0.0767  0.5853
   12MOL    C45 4247   1.313   2.878   7.659  0.0444  0.4911 -0.1540
   12MOL    C46 4248   1.466   2.865   7.677 -0.4513 -0.2551 -0.4910
   12MOL    C47 4249   1.272   2.964   7.537 -0.7387 -0.2582 -0.3886
   12MOL    H48 4250   1.391   2.482   7.761  0.5047 -0.0094 -2.1274
   12MOL    H49 4251   1.279   2.381   7.824 -2.2149 -1.0167 -1.4938
   12MOL    H50 4252   1.176   2.526   7.580 -0.5072 -0.9754 -0.1103
   12MOL    H51 4253   1.256   2.710   7.542 -1.9734  2.6927 -0.6539
   12MOL    H52 4254   1.265   2.926   7.745 -1.3225 -0.0737 -0.5891
   12MOL    H53 4255   1.494   2.834   7.576  0.9426 -0.5606 -0.0279
   12MOL    H54 4256   1.505   2.799   7.754  0.3281 -1.9187 -2.2537
   12MOL    H55 4257   1.522   2.958   7.692  0.1104 -1.0898  2.9909
   12MOL    H56 4258   1.165   2.949   7.523 -1.2268  2.3586  0.2709
   12MOL    H57 4259   1.322   2.937   7.444  1.7189 -0.8445  1.0563
   12MOL    H58 4260   1.309   3.063   7.564  0.0694 -0.7158  0.2128
   12MOL    C59 4261   1.052   2.469   7.753 -0.0995 -0.5498  0.2083
   12MOL    C60 4262   0.930   2.488   7.658  0.0406  0.0017  0.2125
   12MOL    C61 4263   0.954   2.397   7.537  0.0035  0.0171 -0.0451
   12MOL    O62 4264   1.006   2.449   7.445 -0.2548  0.2408  0.0519
   12MOL    N63 4265   0.926   2.270   7.557  0.1944 -0.2175  0.4204
   12MOL    C64 4266   0.954   2.165   7.459 -0.5318 -0.3649 -0.2011
   12MOL    C65 4267   0.948   2.029   7.520 -0.5413  0.3275 -0.2419
   12MOL    C66 4268   0.853   2.177   7.344  1.0856  0.2611 -0.3508
   12MOL    H67 4269   1.066   2.364   7.777  1.8235 -0.2192  0.6324
   12MOL    H68 4270   1.039   2.517   0.014 -0.1540  0.9586 -0.5302
   12MOL    H69 4271   0.843   2.453   7.713 -0.6944  0.7878 -0.4377
   12MOL    H70 4272   0.886   2.239   7.644 -1.9643  1.5319  0.1008
   12MOL    H71 4273   1.054   2.175   7.418 -0.1010  2.2970  1.3270
   12MOL    H72 4274   0.852   2.028   7.572 -0.1988 -1.4259  0.3847
   12MOL    H73 4275   0.958   1.949   7.447  1.7524  0.3052  0.0303
   12MOL    H74 4276   1.028   2.022   7.594 -0.5755 -1.6686 -0.3659
   12MOL    H75 4277   0.879   2.104   7.267  0.2896 -1.2920  0.8178
   12MOL    H76 4278   0.745   2.172   7.359  1.0127 -0.4807 -1.0838
   12MOL    H77 4279   0.873   2.263   7.280  2.4725 -0.4616 -0.9139
   12MOL    C78 4280   0.900   2.635   7.626 -0.1344 -0.3273 -0.2859
   12MOL    C79 4281   0.770   2.675   7.546 -0.7821 -0.1962  0.4485
   12MOL    C80 4282   0.638   2.615   7.605 -0.1899  0.3259  0.1466
   12MOL    O81 4283   0.614   2.618   7.725 -0.3835 -0.5901 -0.3699
   12MOL    N82 4284   0.558   2.548   7.522 -0.8128 -0.4522 -0.4118
   12MOL    C83 4285   0.435   2.470   7.557 -0.0604 -0.1319 -0.2625
   12MOL    C84 4286   0.331   2.496   7.448 -0.7365 -0.6017 -0.0406
   12MOL    C85 4287   0.470   2.319   7.571 -0.1729  0.3981  0.3896
   12MOL    H86 4288   0.989   2.661   7.569  1.3534 -2.0122  1.1661
   12MOL    H87 4289   0.910   2.695   7.717  1.0244 -1.9309  0.6747
   12MOL    H88 4290   0.783   2.623   7.450  0.9051  1.3500 -0.1887
   12MOL    H89 4291   0.584   2.562   7.425 -1.2683 -1.0167 -0.6208
   12MOL    H90 4292   0.391   2.499   7.653  1.4350  1.3893 -0.0132
   12MOL    H91 4293   0.325   2.600   7.415  0.6649  0.2401  2.2017
   12MOL    H92 4294   0.369   2.436   7.366  0.5107  2.1286 -1.5119
   12MOL    H93 4295   0.230   2.471   7.481 -1.0575  2.4141  1.5280
   12MOL    H94 4296   0.374   2.267   7.577 -0.3951  0.2650 -3.2718
   12MOL    H95 4297   0.519   2.301   7.667 -0.3973  1.8629  0.7973
   12MOL    H96 4298   0.535   2.280   7.493  0.0403  0.3848  0.5744
   12MOL    C97 4299   0.759   2.825   7.547  0.1632 -0.2882  0.4711
   12MOL    C98 4300   0.729   2.898   7.413  0.1745  0.5495  0.4868
   12MOL    C99 4301   0.593   2.880   7.342  0.7618  0.3954 -0.3334
   12MOL   O100 4302   0.547   2.759   7.331 -0.5641 -0.2528 -0.1806
   12MOL   N101 4303   0.533   2.994   7.297  0.3951  0.3818  0.5772
   12MOL   C102 4304   0.408   3.011   7.229  0.7803 -0.1560 -0.2833
   12MOL   C103 4305   0.282   3.018   7.322  0.2057 -0.0724 -0.3901
   12MOL   C104 4306   0.430   3.120   7.122  0.2518 -0.2631 -0.5232
   12MOL   H105 4307   0.852   2.871   7.579 -0.5854  0.6143  1.4071
   12MOL   H106 4308   0.682   2.867   7.612 -1.2190 -1.7271 -0.2159
   12MOL   H107 4309   0.720   3.003   7.441 -0.5740  0.9905 -1.3310
   12MOL   H108 4310   0.591   3.075   7.313  0.2056  0.4750  0.8046
   12MOL   H109 4311   0.393   2.913   7.183  0.3965 -0.2750  0.0906
   12MOL   H110 4312   0.288   2.953   7.410  1.6752  0.8664  0.2139
   12MOL   H111 4313   0.264   3.118   7.361 -0.1627 -0.0171 -0.6992
   12MOL   H112 4314   0.191   2.986   7.271  0.5371 -0.2552 -0.8616
   12MOL   H113 4315   0.337   3.125   7.065 -0.5104  0.4757  0.7356
   12MOL   H114 4316   0.511   3.112   7.050 -1.5235  1.6360 -2.8413
   12MOL   H115 4317   0.444   3.217   7.170 -0.1152 -0.9295  0.9799
   12MOL   C116 4318   0.847   2.880   7.312  0.0967  0.3830  0.3933
   12MOL   C117 4319   0.866   2.977   7.198 -0.0491  0.0472  0.3304
   12MOL   C118 4320   0.974   2.916   7.098  0.9757 -0.4510  0.0926
   12MOL   O119 4321   1.095   2.938   7.127 -0.2211 -0.4434  0.3744
   12MOL   N120 4322   0.926   2.842   6.996  0.2372  0.0325  0.3603
   12MOL   C121 4323   1.018   2.783   6.891  0.2396 -0.1379  0.3236
   12MOL   C122 4324   1.069   2.648   6.940 -0.0559 -0.3717  0.3828
   12MOL   C123 4325   0.944   2.784   6.754  0.1026  0.1669  0.4919
   12MOL   H124 4326   0.838   2.775   7.283 -0.1078  0.1490  1.3029
   12MOL   H125 4327   0.934   2.884   7.377 -0.1208  2.1668  0.5955
   12MOL   H126 4328   0.770   2.979   7.146 -0.2023  0.7555  0.6365
   12MOL   H127 4329   0.825   2.835   6.997  0.2641 -0.3311  1.6007
   12MOL   H128 4330   1.108   2.844   6.879  0.8352 -1.1197 -0.2820
   12MOL   H129 4331   1.127   2.597   6.863  0.2465 -3.1017  2.3376
   12MOL   H130 4332   0.996   2.577   6.979  0.9437 -0.8264  1.4349
   12MOL   H131 4333   1.132   2.651   7.028  1.3221 -0.8004 -0.5649
   12MOL   H132 4334   1.005   2.732   6.680  0.4661  1.4273 -0.1063
   12MOL   H133 4335   0.855   2.724   6.777 -0.6658  0.0897 -2.4956
   12MOL   H134 4336   0.922   2.877   6.702  0.3373 -0.6240 -1.0474
   12MOL   C135 4337   0.898   3.121   7.239  0.2916  0.5148  0.4950
   12MOL   C136 4338   0.950   3.219   7.135  0.2938 -0.7197  0.4862
   12MOL   C137 4339   0.861   3.209   7.009  0.3936  0.1372  0.7837
   12MOL   O138 4340   0.736   3.214   7.029 -0.1806 -0.3100  0.3877
   12MOL   N139 4341   0.916   3.213   6.889  0.4620 -0.4867  0.7679
   12MOL   C140 4342   0.851   3.244   6.760  1.7419  0.1071 -0.3316
   12MOL   C141 4343   0.945   3.197   6.645  0.3477  0.5801  0.3163
   12MOL   C142 4344   0.818   3.391   6.742  0.3022  0.0396  0.7700
   12MOL   H143 4345   0.980   3.123   7.310  2.5851  0.8694 -2.0751
   12MOL   H144 4346   0.820   3.164   7.301  1.2544 -1.3726  3.0821
   12MOL   H145 4347   1.049   3.183   7.107  0.7904 -0.5225  1.9028
   12MOL   H146 4348   1.016   3.224   6.885  0.2539  1.2071 -0.1804
   12MOL   H147 4349   0.768   3.174   6.762  1.2866  0.5429 -2.6957
   12MOL   H148 4350   0.898   3.204   6.546  1.7958 -0.4085 -0.4637
   12MOL   H149 4351   1.034   3.259   6.643  0.7087  0.0616  0.2347
   12MOL   H150 4352   0.967   3.091   6.658  1.4355  0.7312 -0.2763
   12MOL   H151 4353   0.909   3.450   6.748  0.4111 -0.2454  2.0410
   12MOL   H152 4354   0.741   3.432   6.808  0.3026  1.4200 -0.0499
   12MOL   H153 4355   0.779   3.414   6.642  3.2129 -1.5892 -0.8117
   12MOL   C154 4356   0.968   3.352   7.205 -0.8119  0.5099 -1.0333
   12MOL   C155 4357   1.024   3.471   7.129 -0.6633 -0.6532  0.0426
   12MOL   C156 4358   1.134   3.440   7.034 -0.0685  0.0643 -0.7512
   12MOL   O157 4359   1.105   3.446   6.916 -0.0048 -0.4283 -0.2074
   12MOL   N158 4360   1.256   3.407   7.079  0.4324  0.0980  0.1634
   12MOL   C159 4361   1.353   3.337   7.003  0.0106  0.7030 -0.4384
   12MOL   C160 4362   1.443   3.244   7.089  0.2908 -0.2696  0.2985
   12MOL   C161 4363   1.435   3.431   6.912  0.6338  0.6230  0.0014
   12MOL   H162 4364   1.039   3.339   7.287 -0.7938  0.5737 -1.0390
   12MOL   H163 4365   0.885   3.388   7.266  0.0582 -0.1327  0.5646
   12MOL   H164 4366   0.936   3.504   7.075 -1.6389  0.5261  2.3070
   12MOL   H165 4367   1.270   3.423   7.178  2.2168 -0.4387  0.0219
   12MOL   H166 4368   1.297   3.272   6.936  0.1420  1.8048 -1.6302
   12MOL   H167 4369   1.537   3.215   7.042  1.0490  1.5127  0.6857
   12MOL   H168 4370   1.468   3.305   7.176  2.6520 -0.4815 -0.1948
   12MOL   H169 4371   1.389   3.157   7.127  0.4310 -0.0258  1.0821
   12MOL   H170 4372   1.503   3.372   6.850  1.2180  1.1719  0.1130
   12MOL   H171 4373   1.488   3.496   6.982  1.9143 -1.4751  1.0488
   12MOL   H172 4374   1.368   3.495   6.855 -0.0589 -0.2466 -0.1690
   12MOL   C173 4375   1.049   3.586   7.227 -0.0314  0.3721 -0.3307
   12MOL   C174 4376   1.081   3.717   7.162  0.5026 -0.2886 -0.2965
   12MOL   C175 4377   0.955   3.767   7.082  0.1320  0.3302  0.7993
   12MOL   O176 4378   0.852   3.800   7.142  0.6598 -0.3887  0.4163
   12MOL   N177 4379   0.974   3.784   6.950 -0.1911  0.1426 -0.6422
   12MOL   C178 4380   0.882   3.817   6.848  0.1968 -0.3168 -0.5140
   12MOL   C179 4381   0.928   3.760   6.710 -0.1151  0.3487  0.3024
   12MOL   C180 4382   0.871   3.975   6.853  0.6676 -0.0808  0.3465
   12MOL   H181 4383   1.119   3.542   7.299  0.5513 -0.3018 -1.2911
   12MOL   H182 4384   0.958   3.601   7.285 -0.5110  1.0671 -1.2687
   12MOL   H183 4385   1.153   3.707   7.080  1.5004  1.7077  0.3124
   12MOL   H184 4386   1.070   3.787   6.918 -0.1444 -0.3026 -0.5554
   12MOL   H185 4387   0.781   3.778   6.861 -0.0662  0.6888  0.5102
   12MOL   H186 4388   1.015   3.810   6.669  1.1670 -0.9594  1.3416
   12MOL   H187 4389   0.844   3.758   6.641  0.5355  2.7047 -0.5931
   12MOL   H188 4390   0.957   3.656   6.724 -2.5293 -0.2791  0.9160
   12MOL   H189 4391   0.964   4.025   6.828  1.2695 -1.6273 -0.6156
   12MOL   H190 4392   0.843   4.014   6.950  0.4834  0.3872  0.1039
   12MOL   H191 4393   0.790   4.015   6.793  1.1352  0.5769  0.1444
   12MOL   C192 4394   1.129   3.825   7.271 -0.2472  0.7474  0.2240
   12MOL   C193 4395   1.235   3.768   7.369 -0.4600 -0.2595 -0.4091
   12MOL   C194 4396   1.259   3.882   7.476  0.0536 -0.2509 -0.2270
   12MOL   O195 4397   1.322   3.980   7.434 -0.5403  0.0396  0.2062
   12MOL   N196 4398   1.210   3.868   7.603 -0.0141  0.0957  0.0713
   12MOL   C197 4399   1.219   3.970   7.701 -0.5528  0.2353 -0.0937
   12MOL   C198 4400   1.097   3.977   7.796 -0.5139 -0.0079 -0.1044
   12MOL   C199 4401   1.340   3.942   7.787 -0.0778  1.0947  0.3376
   12MOL   H200 4402   1.049   3.864   7.333 -1.4613  0.0346 -0.8696
   12MOL   H201 4403   1.176   3.913   7.229 -2.4228  2.0177  0.3714
   12MOL   H202 4404   1.197   3.690   7.435 -1.4467 -0.8105 -1.5915
   12MOL   H203 4405   1.143   3.795   7.621 -0.3653  0.6479  1.0328
   12MOL   H204 4406   1.246   4.069   7.666 -1.8443  0.4878 -0.3693
   12MOL   H205 4407   1.073   3.875   7.827  0.0650 -0.2679 -0.4917
   12MOL   H206 4408   1.011   4.024   7.748  1.9702  1.0928 -3.6694
   12MOL   H207 4409   1.122   4.037   0.047 -2.7332  0.8361 -0.0052
   12MOL   H208 4410   1.342   3.853   0.012  2.6141  0.5242 -0.4883
   12MOL   H209 4411   1.374   4.031   0.005  0.5024  1.9239 -1.3341
   12MOL   H210 4412   1.423   3.911   7.723  0.0500 -1.4630  1.6814
   12MOL   C211 4413   1.372   3.731   7.293  1.1781 -0.3006 -0.3213
   12MOL   C212 4414   1.484   3.666   7.381  0.4361  0.1886 -0.4124
   12MOL   C213 4415   1.431   3.531   7.433 -0.3393 -0.3973  0.1547
   12MOL   O214 4416   1.356   3.455   7.370  0.1875 -0.0849 -0.2312
   12MOL   N215 4417   1.461   3.512   7.562 -0.1855 -0.0410  0.4092
   12MOL   C216 4418   1.416   3.399   7.644  0.1040 -0.0287 -0.2090
   12MOL   C217 4419   1.361   3.452   7.781 -0.5141 -0.0825  0.1537
   12MOL   C218 4420   1.530   3.303   7.654 -0.2658  0.2326 -0.6413
   12MOL   H219 4421   1.407   3.819   7.238 -1.6410  0.6553 -0.6617
   12MOL   H220 4422   1.344   3.664   7.212 -0.2067 -0.8912  0.6292
   12MOL   H221 4423   1.509   3.733   7.463 -1.0339 -0.1979  0.3803
   12MOL   H222 4424   1.531   3.575   7.599 -0.6964  0.8250 -0.0895
   12MOL   H223 4425   1.328   3.354   7.596 -0.7485 -0.6875  1.8941
   12MOL   H224 4426   1.286   3.526   7.753 -1.5331 -0.5435  1.6003
   12MOL   H225 4427   1.313   3.381   0.012 -1.8064  1.3747  0.7893
   12MOL   H226 4428   1.439   3.512   7.827  1.3896 -0.2314 -2.7050
   12MOL   H227 4429   1.515   3.221   7.725  0.9262  0.6868  0.1572
   12MOL   H228 4430   1.616   3.358   7.691 -1.6643  1.3642  0.9862
   12MOL   H229 4431   1.566   3.250   7.566  0.6294  0.3131 -0.3235
   12MOL   C230 4432   1.612   3.654   7.298 -0.0368  0.0519  0.4224
   12MOL   C231 4433   1.727   3.750   7.328 -0.3265 -0.4705 -0.8305
   12MOL   C232 4434   1.784   3.713   7.464  0.0717  0.8247 -0.1141
   12MOL   O233 4435   1.852   3.613   7.485  0.0686 -0.1929  0.4470
   12MOL   N234 4436   1.774   3.797   7.568 -0.1522  0.3943 -0.1480
   12MOL   C235 4437   1.845   3.781   7.697 -0.0986 -0.7964 -0.3050
   12MOL   C236 4438   1.861   3.925   7.758 -0.1159 -0.2746 -0.0206
   12MOL   C237 4439   1.776   3.688   7.798 -0.0122  0.3898  0.1111
   12MOL   H238 4440   1.585   3.663   7.192 -1.1084 -0.2334  0.6679
   12MOL   H239 4441   1.652   3.553   7.299  3.2031  1.2864  2.4872
   12MOL   H240 4442   1.685   3.849   7.340 -1.1836 -1.0965  1.8811
   12MOL   H241 4443   1.745   3.891   7.545  0.8460  1.4442  2.6287
   12MOL   H242 4444   1.942   3.744   7.665 -0.2579 -1.4550 -0.0339
   12MOL   H243 4445   1.908   3.928   0.020  0.1741  0.8631 -0.1813
   12MOL   H244 4446   1.924   3.992   7.700  1.6669 -0.7160  1.3596
   12MOL   H245 4447   1.761   3.968   7.770  1.2811  2.6729  1.5018
   12MOL   H246 4448   1.834   3.663   0.050 -0.8835 -3.1365 -0.2245
   12MOL   H247 4449   1.749   3.588   7.762  0.2055  0.4886 -0.3375
   12MOL   H248 4450   1.680   3.736   7.819  1.3551  2.5508  1.5928
   12MOL   C249 4451   1.839   3.741   7.221  0.3988 -0.7337 -0.4130
   12MOL   C250 4452   1.966   3.833   7.235 -0.4187 -0.7214  1.1322
   12MOL   C251 4453   1.932   3.973   7.267 -0.3008 -0.2646 -0.2756
   12MOL   O252 4454   1.907   4.009   7.383 -0.4957 -0.4115 -0.5722
   12MOL   N253 4455   1.912   4.061   7.166 -0.4611 -0.0135 -0.1940
   12MOL   C254 4456   1.897   4.209   7.178 -0.3202 -0.1060  0.1439
   12MOL   C255 4457   2.025   4.285   7.157  0.5064  0.5864  0.5119
   12MOL   C256 4458   1.779   4.263   7.104  0.0678  0.2205  0.4775
   12MOL   H257 4459   1.788   3.758   7.127 -1.5131  0.7862  0.8535
   12MOL   H258 4460   1.867   3.636   7.220 -1.2281 -1.2340  1.5643
   12MOL   H259 4461   2.025   3.799   7.319 -0.1637  2.6290  2.4125
   12MOL   H260 4462   1.919   4.033   7.069 -1.3736  1.2141 -0.6439
   12MOL   H261 4463   1.882   4.228   7.284 -0.4103  2.4738 -0.3083
   12MOL   H262 4464   2.095   4.260   7.236 -0.2523 -3.2005  0.0631
   12MOL   H263 4465   2.059   4.251   7.059 -1.2213 -1.2517  0.5074
   12MOL   H264 4466   2.000   4.392   7.156 -1.6439  0.1149  0.7167
   12MOL   H265 4467   1.688   4.218   7.143 -1.3049  0.8559 -1.8859
   12MOL   H266 4468   1.763   4.371   7.109 -0.2476  0.3364 -2.4352
   12MOL   H267 4469   1.784   4.234   6.999  0.8054 -2.4314  1.2177
   12MOL   C268 4470   2.053   3.819   7.101 -1.1404  0.0819  0.6504
   12MOL   C269 4471   2.191   3.891   7.098  0.5488  0.0022  0.1109
   12MOL   C270 4472   2.282   3.825   7.205 -0.1378 -0.1952  0.0612
   12MOL   O271 4473   2.374   3.747   7.176  0.4447 -0.0241  0.0410
   12MOL   N272 4474   2.263   3.871   7.332 -0.7111  0.6674 -0.0738
   12MOL   C273 4475   2.320   3.813   7.452 -0.3302  0.1751 -0.2156
   12MOL   C274 4476   2.314   3.908   7.573 -0.2885  0.2186  0.3202
   12MOL   C275 4477   2.250   3.684   7.494  0.3864 -0.3501 -0.0065
   12MOL   H276 4478   2.064   3.713   7.078  1.3266  0.0077  1.9282
   12MOL   H277 4479   2.007   3.863   7.013  0.7054 -1.5435 -1.2105
   12MOL   H278 4480   2.184   3.999   7.112 -1.0797  0.4609 -3.8609
   12MOL   H279 4481   2.218   3.961   7.346  0.7254  1.3304  0.3215
   12MOL   H280 4482   2.422   3.786   7.425  0.0431  1.0097  0.3509
   12MOL   H281 4483   2.212   3.938   7.597  0.2862  1.1380  1.7037
   12MOL   H282 4484   2.351   3.859   7.663  0.7929 -0.2534 -0.3712
   12MOL   H283 4485   2.366   4.004   7.564  2.5800 -1.3430 -0.3491
   12MOL   H284 4486   2.142   3.688   7.505  0.1978  0.1758 -2.0152
   12MOL   H285 4487   2.262   3.601   7.424 -1.3783 -1.1895  0.6513
   12MOL   H286 4488   2.289   3.639   7.586 -1.8422  0.1892  1.2408
   12MOL   C287 4489   2.243   3.877   6.950 -0.2028 -0.0596 -0.0378
   12MOL   C288 4490   2.390   3.909   6.909 -0.3157 -0.0200 -0.2450
   12MOL   C289 4491   2.431   4.038   6.969  0.1159  0.2621 -0.6012
   12MOL   O290 4492   2.385   4.146   6.938 -0.6831  0.1217  0.3611
   12MOL   N291 4493   2.518   4.038   7.071  0.2719 -0.7716 -0.0678
   12MOL   C292 4494   2.575   4.155   7.123 -0.6780 -0.4946 -0.7240
   12MOL   C293 4495   2.485   4.209   7.240 -0.0275  0.7183  0.3233
   12MOL   C294 4496   2.721   4.141   7.164  0.0507  0.3246  0.0229
   12MOL   H295 4497   2.232   3.776   6.913 -1.2944  0.1179 -0.2041
   12MOL   H296 4498   2.176   3.935   6.886  1.3540  1.5631 -0.2692
   12MOL   H297 4499   2.475   3.848   6.941  1.1822  1.5143 -1.1745
   12MOL   H298 4500   2.552   3.947   7.098  1.1200 -0.5468 -0.3646
   12MOL   H299 4501   2.576   4.233   7.047  0.0109  0.9872  0.7479
   12MOL   H300 4502   2.515   4.309   7.271  0.5049  0.9546 -0.9277
   12MOL   H301 4503   2.381   4.202   7.208  0.3113  0.6718 -0.7675
   12MOL   H302 4504   2.504   4.154   7.333  0.4280 -2.4686 -1.5832
   12MOL   H303 4505   2.738   4.246   7.187 -1.6733  1.6023 -4.0457
   12MOL   H304 4506   2.733   4.082   7.255  1.1380  2.1383  1.0842
   12MOL   H305 4507   2.789   4.117   7.081 -1.4943  1.6438 -1.6606
   12MOL   C306 4508   2.406   3.909   6.757  0.1139  0.1743 -0.3521
   12MOL   C307 4509   2.511   3.814   6.709 -0.3731  0.4350  0.6644
   12MOL   C308 4510   2.538   3.835   6.552 -0.0740 -0.4678 -0.1572
   12MOL   O309 4511   2.450   3.881   6.476 -1.0476 -0.2141 -0.4014
   12MOL   N310 4512   2.650   3.778   6.501 -0.6408 -0.3971  0.0776
   12MOL   C311 4513   2.681   3.761   6.361 -0.8246 -0.2827 -0.4551
   12MOL   C312 4514   2.829   3.782   6.346  0.1817  0.5176  0.1097
   12MOL   C313 4515   2.635   3.616   6.324 -0.2420  0.0998 -0.7951
   12MOL   H314 4516   2.312   3.890   6.706 -0.4456  1.7789  0.0305
   12MOL   H315 4517   2.430   4.004   6.709 -1.2139  0.7677  0.1314
   12MOL   H316 4518   2.612   3.833   6.746  0.8425  1.9824 -3.1911
   12MOL   H317 4519   2.704   3.726   6.569  1.2272  1.5342  0.1146
   12MOL   H318 4520   2.628   3.831   6.298 -0.2307  0.4271 -0.1703
   12MOL   H319 4521   2.861   3.791   6.242  0.8649 -2.1756  0.0615
   12MOL   H320 4522   2.867   3.688   6.386  1.8243  1.6070  1.2240
   12MOL   H321 4523   2.872   3.861   6.408  1.6609 -1.8922  2.2466
   12MOL   H322 4524   2.693   3.539   6.375 -1.2743  0.4390  0.9072
   12MOL   H323 4525   2.633   3.594   6.217  1.6091  0.9253 -1.0296
   12MOL   H324 4526   2.534   3.611   6.364  0.2439  1.2010  0.6031
   12MOL   C325 4527   2.468   3.666   6.749  0.0624 -0.2916 -0.1266
   12MOL   C326 4528   2.559   3.584   6.837  0.2914 -0.2660  0.0890
   12MOL   C327 4529   2.467   3.473   6.906  0.5395  0.3019 -0.5529
   12MOL   O328 4530   2.448   3.363   6.852 -0.0922 -0.2971  0.1487
   12MOL   N329 4531   2.418   3.504   7.024  0.7521 -1.0647 -0.2890
   12MOL   C330 4532   2.359   3.410   7.113  0.1973  0.3649  0.0285
   12MOL   C331 4533   2.208   3.437   7.137 -0.0462  0.5325  0.4171
   12MOL   C332 4534   2.442   3.418   7.243  0.3438 -0.3060 -0.1197
   12MOL   H333 4535   2.459   3.609   6.657  1.8773  1.1965 -1.2476
   12MOL   H334 4536   2.361   3.662   6.772 -0.8471  0.5190 -3.9446
   12MOL   H335 4537   2.605   3.644   6.916 -0.5703 -0.4210  0.7095
   12MOL   H336 4538   2.425   3.597   7.062  0.2643 -1.4831  0.8468
   12MOL   H337 4539   2.375   3.314   7.065  0.1220 -0.6573  1.9840
   12MOL   H338 4540   2.187   3.541   7.161 -0.7370 -0.0872  2.6158
   12MOL   H339 4541   2.160   3.432   7.039 -0.2150  0.6875  0.4903
   12MOL   H340 4542   2.156   3.365   7.200 -1.9115  0.0780 -1.5977
   12MOL   H341 4543   2.539   3.371   7.231  1.0817  1.0818  0.3345
   12MOL   H342 4544   2.384   3.364   7.318 -0.8938 -0.2060 -0.9909
   12MOL   H343 4545   2.469   3.521   7.269  0.7166 -0.3113 -0.4964
   12MOL   C344 4546   2.690   3.534   6.769 -0.4453 -0.4085  0.2473
   12MOL   C345 4547   2.823   3.573   6.839 -0.2418 -1.4235 -0.2062
   12MOL   C346 4548   2.872   3.456   6.919  0.3944  0.2066 -0.3272
   12MOL   O347 4549   2.906   3.357   6.857  0.0508  0.0665 -0.1381
   12MOL   N348 4550   2.859   3.462   7.054  0.0962  0.3618 -0.0331
   12MOL   C349 4551   2.911   3.364   7.141 -1.0101  0.1873  0.2478
   12MOL   C350 4552   3.038   3.423   7.211  0.1868 -0.3074 -0.9677
   12MOL   C351 4553   2.806   3.314   7.234 -0.0352  0.6739 -0.1444
   12MOL   H352 4554   2.678   3.566   6.665  0.8911  2.5115  0.9362
   12MOL   H353 4555   2.686   3.427   6.753 -0.5349  0.0104 -2.8333
   12MOL   H354 4556   2.809   3.654   6.911  0.9143  0.0622 -1.5882
   12MOL   H355 4557   2.841   3.554   7.091  0.4862  0.8769 -1.1219
   12MOL   H356 4558   2.951   3.281   7.082 -0.9058 -0.1618  0.8046
   12MOL   H357 4559   3.013   3.510   7.271  0.0078 -0.6752 -0.5111
   12MOL   H358 4560   3.080   3.357   7.287  2.1724  1.0711 -0.8313
   12MOL   H359 4561   3.119   3.453   7.145  1.4762 -2.2017 -0.2978
   12MOL   H360 4562   2.716   3.269   7.192 -1.0574  0.7022  1.9658
   12MOL   H361 4563   2.850   3.224   7.278 -0.7450  0.8152  0.8819
   12MOL   H362 4564   2.774   3.378   7.316 -1.3559  0.7940 -0.7378
   12MOL   C363 4565   2.922   3.646   6.744  0.0754 -0.1393  0.1757
   12MOL   C364 4566   3.014   3.755   6.795 -0.5549 -0.6714 -1.1397
   12MOL   C365 4567   2.937   3.881   6.840  0.0123  0.5544  1.1403
   12MOL   O366 4568   2.879   3.885   6.945  0.1774  0.3692  0.9162
   12MOL   N367 4569   2.935   3.983   6.753 -0.1889  0.6138  0.1881
   12MOL   C368 4570   2.879   4.112   6.768 -0.2280 -0.1525  0.2254
   12MOL   C369 4571   2.951   4.212   6.682  0.5220  0.0114 -0.1638
   12MOL   C370 4572   2.728   4.118   6.743  0.0793 -0.3751 -0.1637
   12MOL   H371 4573   2.875   3.676   6.650  2.3915 -1.0704 -1.2950
   12MOL   H372 4574   2.997   3.572   6.717 -0.1793 -0.8401  1.3345
   12MOL   H373 4575   3.087   3.780   6.718  1.0458 -1.2149  0.1816
   12MOL   H374 4576   2.979   3.977   6.662 -2.2296 -0.3243 -0.7618
   12MOL   H375 4577   2.894   4.139   6.873 -0.5420  0.2078  0.1784
   12MOL   H376 4578   2.911   4.313   6.684 -0.4393 -0.3836  2.5120
   12MOL   H377 4579   3.058   4.212   6.705  0.9186  0.1375 -1.9406
   12MOL   H378 4580   2.941   4.191   6.575  0.6641  2.9440 -0.8035
   12MOL   H379 4581   2.699   4.223   6.743 -0.8417 -0.6240 -1.3357
   12MOL   H380 4582   2.688   4.082   6.649  0.5575  0.1544 -0.5748
   12MOL   H381 4583   2.672   4.067   6.821  0.8452 -0.2624  0.4777
   12MOL   H382 4584   3.072   3.730   6.884 -0.1633 -0.0245 -1.2071
   13MOL     C1 4585   3.788   3.601   0.491 -0.1880 -0.3061  0.5028
   13MOL     C2 4586   3.776   3.615   0.640  0.4972  0.8395 -0.6670
   13MOL     C3 4587   3.912   3.573   0.695 -0.8419  0.2135  0.5983
   13MOL     O4 4588   4.012   3.645   0.693  0.0064  0.8146  1.3233
   13MOL     N5 4589   3.910   3.448   0.750 -0.4264 -0.3537  0.2685
   13MOL     C6 4590   4.018   3.385   0.830  0.1170 -0.3110  0.1677
   13MOL     C7 4591   3.967   3.266   0.907 -0.3049  0.0134  0.0183
   13MOL     C8 4592   4.122   3.351   0.729 -0.1159 -0.8597 -0.5468
   13MOL     H9 4593   3.847   3.514   0.464 -1.6171 -1.1089 -0.1252
   13MOL    H10 4594   3.847   3.684   0.454 -1.6974  1.5901  2.2161
   13MOL    H11 4595   3.705   3.538   0.672  0.4198  0.8715 -0.7597
   13MOL    H12 4596   3.827   3.393   0.734 -0.7016 -0.4265  1.8538
   13MOL    H13 4597   4.067   3.455   0.897 -0.2312 -0.8329  0.9780
   13MOL    H14 4598   3.891   3.306   0.975  1.2048 -1.4149  2.6440
   13MOL    H15 4599   4.048   3.220   0.964 -1.4889 -0.4221  1.4204
   13MOL    H16 4600   3.923   3.191   0.841  0.7361  0.4685 -1.1957
   13MOL    H17 4601   4.166   3.428   0.665  0.5371  0.0995  1.0156
   13MOL    H18 4602   4.205   3.304   0.782 -0.6639  1.0430  2.0945
   13MOL    H19 4603   4.072   3.282   0.661 -0.3541 -0.5103 -0.7286
   13MOL    H20 4604   3.686   3.595   0.451  0.3639 -1.5471 -0.7288
   13MOL    C21 4605   3.724   3.750   0.696 -0.9575  0.5152 -0.9155
   13MOL    C22 4606   3.576   3.778   0.704 -0.4418  0.1270  0.1180
   13MOL    C23 4607   3.526   3.809   0.563 -0.5749 -0.1940  0.0516
   13MOL    O24 4608   3.557   3.918   0.509  0.1401  0.2182 -0.4510
   13MOL    N25 4609   3.443   3.729   0.509 -0.4286  0.8999  0.2325
   13MOL    C26 4610   3.378   3.730   0.376 -0.2502  0.4332 -0.2002
   13MOL    C27 4611   3.226   3.767   0.389 -0.3494 -0.2614 -0.1845
   13MOL    C28 4612   3.409   3.606   0.294  0.2495  0.2095 -0.0974
   13MOL    H29 4613   3.779   3.838   0.665  1.7442 -1.1101 -0.9480
   13MOL    H30 4614   3.758   3.755   0.799 -0.4954 -2.0711 -0.9075
   13MOL    H31 4615   3.528   3.689   0.742  0.8668 -1.0835 -1.0123
   13MOL    H32 4616   3.419   3.654   0.574  0.2510  2.2145  2.0518
   13MOL    H33 4617   3.426   3.814   0.325 -0.4215  1.2782  1.0108
   13MOL    H34 4618   3.182   3.776   0.289  1.3430 -1.3531 -1.0539
   13MOL    H35 4619   3.203   3.861   0.438  1.5012 -0.0702  0.3484
   13MOL    H36 4620   3.184   3.687   0.451 -0.1945  0.6702  1.1418
   13MOL    H37 4621   3.352   3.610   0.202  1.6455 -0.6764 -1.0138
   13MOL    H38 4622   3.512   3.604   0.259 -0.1809 -0.0721 -1.3639
   13MOL    H39 4623   3.377   3.517   0.349 -0.8381  0.1777 -0.7777
   13MOL    C40 4624   3.546   3.891   0.807  0.9849  0.3717 -0.3940
   13MOL    C41 4625   3.447   3.862   0.924  0.2783 -0.2970 -0.4650
   13MOL    C42 4626   3.527   3.793   1.027  0.9019  0.3574 -0.7192
   13MOL    O43 4627   3.594   3.701   0.989 -0.0047  0.1461  0.1972
   13MOL    N44 4628   3.525   3.841   1.153 -0.4404  0.3663  0.2414
   13MOL    C45 4629   3.618   3.790   1.252 -0.2142 -0.6057  0.6709
   13MOL    C46 4630   3.683   3.904   1.333 -0.0098 -0.1689 -0.3674
   13MOL    C47 4631   3.558   3.677   1.340  0.5185 -0.2275 -0.1851
   13MOL    H48 4632   3.528   3.988   0.761 -0.5718 -0.2358 -1.0776
   13MOL    H49 4633   3.632   3.924   0.866  0.4429  1.6942 -0.3186
   13MOL    H50 4634   3.426   3.963   0.957 -1.8903 -1.5807  2.2186
   13MOL    H51 4635   3.488   3.933   1.170 -1.8573 -0.3408  1.0105
   13MOL    H52 4636   3.698   3.738   1.199 -1.0673  1.1726 -2.4787
   13MOL    H53 4637   3.724   3.983   1.270  0.1837 -0.4116 -0.5468
   13MOL    H54 4638   3.767   3.868   1.392  1.0906  2.8649 -0.0304
   13MOL    H55 4639   3.613   3.950   1.402  1.5300 -0.9833  1.7754
   13MOL    H56 4640   3.482   3.720   1.405  0.8278  1.0892 -0.6790
   13MOL    H57 4641   3.621   3.630   1.415  2.9394  0.2128 -1.9150
   13MOL    H58 4642   3.508   3.600   1.281  0.4110  1.1171 -1.8970
   13MOL    C59 4643   3.320   3.783   0.871 -0.1866 -0.0378 -0.4246
   13MOL    C60 4644   3.186   3.843   0.920  0.0929 -0.1656 -0.1663
   13MOL    C61 4645   3.174   3.861   1.071 -0.0143 -0.1814  0.2131
   13MOL    O62 4646   3.153   3.758   1.137 -0.2892  0.0131 -0.5789
   13MOL    N63 4647   3.160   3.985   1.132  0.0618  0.0442  0.1372
   13MOL    C64 4648   3.148   4.020   1.274 -0.2019  0.0947 -0.1678
   13MOL    C65 4649   3.053   3.932   1.357 -0.0014  0.2617  0.0596
   13MOL    C66 4650   3.293   4.000   1.338 -0.2445  0.7210  0.3012
   13MOL    H67 4651   3.324   3.800   0.764 -0.1955  1.9136 -0.1288
   13MOL    H68 4652   3.324   3.674   0.883  0.2261 -0.0169 -0.3678
   13MOL    H69 4653   3.178   3.946   0.883 -0.7554 -0.2729 -0.3045
   13MOL    H70 4654   3.182   4.062   1.071 -0.0312  0.3094  0.4405
   13MOL    H71 4655   3.116   4.124   1.276  1.0626  0.4747  1.1366
   13MOL    H72 4656   3.047   3.971   1.458  0.9510  3.5539 -1.1127
   13MOL    H73 4657   2.955   3.927   1.308 -0.5913  0.9514  1.1574
   13MOL    H74 4658   3.090   3.831   1.377 -1.7054 -0.4537 -0.2492
   13MOL    H75 4659   3.363   4.074   1.301  0.7214 -0.1721  0.3218
   13MOL    H76 4660   3.287   4.023   1.444 -1.5322 -0.7616  0.5716
   13MOL    H77 4661   3.344   3.904   1.337  2.1649  1.9661 -0.0467
   13MOL    C78 4662   3.059   3.776   0.848 -0.3020 -0.3663  0.4504
   13MOL    C79 4663   3.058   3.618   0.863  0.0879  0.3627 -0.1535
   13MOL    C80 4664   2.916   3.561   0.907  0.4382 -0.1168  0.3001
   13MOL    O81 4665   2.872   3.461   0.854  0.3042 -0.1822  0.0350
   13MOL    N82 4666   2.844   3.631   0.995 -0.2595  0.3367 -0.0432
   13MOL    C83 4667   2.712   3.592   1.042 -0.3072  1.1442  0.4332
   13MOL    C84 4668   2.689   3.663   1.168 -0.3292  0.1828  0.1203
   13MOL    C85 4669   2.594   3.625   0.948 -0.6376 -0.4756 -0.2978
   13MOL    H86 4670   3.064   3.804   0.743 -0.4413  0.1897  0.5863
   13MOL    H87 4671   2.968   3.826   0.882 -0.9428 -1.4608  0.3498
   13MOL    H88 4672   3.106   3.581   0.953 -0.2865 -0.1950 -0.1748
   13MOL    H89 4673   2.882   3.711   1.043 -1.5641 -0.9844  3.3157
   13MOL    H90 4674   2.714   3.484   1.061 -2.0080  1.0844  0.4155
   13MOL    H91 4675   2.759   3.639   1.248 -0.0770 -0.5490 -0.3165
   13MOL    H92 4676   2.702   3.768   1.140 -2.5617  1.1143  2.3637
   13MOL    H93 4677   2.586   3.665   1.205  0.2879 -0.7845  1.9476
   13MOL    H94 4678   2.496   3.589   0.977 -0.2390 -0.4568  1.1739
   13MOL    H95 4679   2.624   3.583   0.852  2.4907  0.5160  0.1767
   13MOL    H96 4680   2.583   3.730   0.922 -1.0354  0.1488  2.2094
   13MOL    C97 4681   3.118   3.546   0.735 -0.8655 -0.0548  0.2397
   13MOL    C98 4682   3.184   3.409   0.750  0.5788  0.7039  0.6004
   13MOL    C99 4683   3.324   3.421   0.796  0.2673 -0.3662 -0.5493
   13MOL   O100 4684   3.410   3.482   0.730  0.1079 -0.7078 -0.1014
   13MOL   N101 4685   3.347   3.355   0.911  0.2014  0.2846  0.1783
   13MOL   C102 4686   3.466   3.381   0.989 -0.0751  0.5953  0.0364
   13MOL   C103 4687   3.458   3.337   1.134 -0.1948  0.0712 -0.1422
   13MOL   C104 4688   3.583   3.303   0.935  0.0419 -0.8780 -0.6091
   13MOL   H105 4689   3.200   3.606   0.696  0.0682 -0.8881  0.9024
   13MOL   H106 4690   3.044   3.540   0.655 -1.6221 -1.1637  1.0023
   13MOL   H107 4691   3.123   3.376   0.834 -0.4174 -1.7426 -1.0143
   13MOL   H108 4692   3.264   3.320   0.957 -0.2606 -0.4651 -1.1894
   13MOL   H109 4693   3.486   3.488   0.995 -0.1668  0.5116  1.8606
   13MOL   H110 4694   3.366   3.366   1.185  1.4371  1.5537  2.0243
   13MOL   H111 4695   3.471   3.229   1.142  1.0248  0.2930  1.0171
   13MOL   H112 4696   3.540   3.392   1.178 -0.2548  1.5782 -1.8812
   13MOL   H113 4697   3.653   3.282   1.016 -1.8201 -1.0129  0.9699
   13MOL   H114 4698   3.640   3.365   0.865  1.6731 -1.5483  0.0778
   13MOL   H115 4699   3.553   3.212   0.883 -2.7051  0.1563 -0.9163
   13MOL   C116 4700   3.160   3.315   0.631  0.3077 -0.6675 -0.0950
   13MOL   C117 4701   3.203   3.165   0.649 -0.0098 -0.1809 -0.0470
   13MOL   C118 4702   3.319   3.130   0.551 -0.0538  0.0876 -0.2460
   13MOL   O119 4703   3.289   3.085   0.441 -0.2442 -0.5190 -0.5956
   13MOL   N120 4704   3.446   3.146   0.599  0.7755  0.0961  0.0362
   13MOL   C121 4705   3.578   3.128   0.531  0.2051  0.7909 -0.1167
   13MOL   C122 4706   3.626   3.266   0.491  0.3866 -0.4420 -0.3633
   13MOL   C123 4707   3.671   3.044   0.621 -0.1121  0.1348  0.6510
   13MOL   H124 4708   3.215   3.359   0.548  0.7125  1.3628  1.2068
   13MOL   H125 4709   3.058   3.321   0.593 -0.5331 -1.5809  1.9327
   13MOL   H126 4710   3.236   3.152   0.752 -2.0922 -1.0639  0.5182
   13MOL   H127 4711   3.460   3.194   0.686  5.3035  1.0399 -1.1063
   13MOL   H128 4712   3.570   3.069   0.441  0.3618  1.3374 -0.4903
   13MOL   H129 4713   3.589   3.353   0.544 -0.4735 -1.4611  0.7472
   13MOL   H130 4714   3.590   3.296   0.393 -0.6084  0.1629  0.1783
   13MOL   H131 4715   3.735   3.273   0.482  0.4617 -1.1024 -0.0168
   13MOL   H132 4716   3.710   3.103   0.704  0.9160 -1.8991  1.6618
   13MOL   H133 4717   3.629   2.957   0.671  0.2389 -0.1005  0.5400
   13MOL   H134 4718   3.765   3.020   0.571 -0.6462 -0.0660 -0.2627
   13MOL   C135 4719   3.091   3.062   0.648  0.4222  0.3941 -0.6921
   13MOL   C136 4720   2.995   3.093   0.766  0.1807  0.3983  0.8893
   13MOL   C137 4721   2.852   3.085   0.714 -0.8815  0.1008  0.1628
   13MOL   O138 4722   2.807   2.980   0.674 -0.3286 -0.7116 -0.5192
   13MOL   N139 4723   2.783   3.195   0.720 -0.2816  0.0698 -0.0180
   13MOL   C140 4724   2.639   3.224   0.698  0.1943  0.0546 -0.3033
   13MOL   C141 4725   2.611   3.322   0.583 -0.0559 -0.3698  0.5301
   13MOL   C142 4726   2.576   3.257   0.838  0.5990  0.2520 -0.2024
   13MOL   H143 4727   3.127   2.959   0.652 -1.4278 -0.2408  0.2374
   13MOL   H144 4728   3.045   3.084   0.552 -0.6175 -0.1805 -0.3331
   13MOL   H145 4729   3.019   3.193   0.802  2.3316 -0.2667  1.3802
   13MOL   H146 4730   2.830   3.270   0.769 -0.9704  0.1614  0.5002
   13MOL   H147 4731   2.600   3.128   0.663  0.8163 -1.1709  2.2614
   13MOL   H148 4732   2.658   3.417   0.611  1.9242 -1.1937  0.0740
   13MOL   H149 4733   2.625   3.276   0.485  2.3084 -0.3863  0.8364
   13MOL   H150 4734   2.506   3.350   0.588  0.4667  1.8981 -0.6301
   13MOL   H151 4735   2.469   3.239   0.834  0.7084 -0.3372 -0.6116
   13MOL   H152 4736   2.594   3.363   0.856 -1.9343  0.6466  0.1937
   13MOL   H153 4737   2.618   3.200   0.921 -0.4620  1.8334  1.4536
   13MOL   C154 4738   3.030   2.989   0.879 -0.1603 -0.5755  0.2010
   13MOL   C155 4739   2.982   3.042   1.014 -0.0275  0.0042 -0.8063
   13MOL   C156 4740   3.083   3.131   1.075 -0.2424 -0.4917  0.0830
   13MOL   O157 4741   3.198   3.151   1.036 -0.3430  0.2937 -0.1039
   13MOL   N158 4742   3.035   3.197   1.179  0.5801  0.1065  0.3396
   13MOL   C159 4743   3.099   3.279   1.280  0.3359 -0.2735 -0.2182
   13MOL   C160 4744   3.031   3.246   1.412 -0.2834 -0.5309  0.4496
   13MOL   C161 4745   3.087   3.434   1.249 -0.4484  0.0060  0.1763
   13MOL   H162 4746   3.136   2.963   0.875 -0.1740 -0.5546 -0.4265
   13MOL   H163 4747   2.988   2.896   0.842  0.0349 -0.7823  0.5011
   13MOL   H164 4748   2.897   3.103   0.984  1.3195  2.0414 -0.5825
   13MOL   H165 4749   2.941   3.173   1.203  0.9144 -3.2353 -1.4041
   13MOL   H166 4750   3.207   3.263   1.275  0.3755 -0.5516  1.2499
   13MOL   H167 4751   3.025   3.139   1.434  0.7246 -0.2614  2.1276
   13MOL   H168 4752   3.086   3.283   1.499 -0.6720  0.2872  0.3471
   13MOL   H169 4753   2.933   3.292   1.420  0.0027  0.5405 -1.8254
   13MOL   H170 4754   3.126   3.456   1.149 -1.6245 -0.3119 -0.3617
   13MOL   H171 4755   3.138   3.486   1.330  1.5821  0.9171 -1.6554
   13MOL   H172 4756   2.982   3.461   1.258 -0.1190  0.3765  3.3945
   13MOL   C173 4757   2.937   2.933   1.108 -1.5873 -0.2089 -0.8040
   13MOL   C174 4758   2.783   2.901   1.120  0.1296  0.3045  0.2514
   13MOL   C175 4759   2.718   2.994   1.225  0.1784  0.2009 -0.2233
   13MOL   O176 4760   2.772   3.106   1.245  0.3416 -0.3526  0.2044
   13MOL   N177 4761   2.608   2.951   1.286  0.3453 -0.4288  0.1689
   13MOL   C178 4762   2.522   3.024   1.371  0.3800 -0.2759  0.4882
   13MOL   C179 4763   2.521   2.950   1.509  0.5438  0.3589  0.2762
   13MOL   C180 4764   2.381   3.039   1.305 -0.2633  0.5422  0.2157
   13MOL   H181 4765   2.967   2.948   1.211  0.1049 -0.8289 -1.1776
   13MOL   H182 4766   2.990   2.839   1.088  0.7672  1.1434 -1.0969
   13MOL   H183 4767   2.780   2.803   1.167 -1.9560 -0.2746 -1.0190
   13MOL   H184 4768   2.579   2.857   1.263  0.8698 -0.7899  0.9517
   13MOL   H185 4769   2.564   3.124   1.384  0.4773 -0.1930 -0.4358
   13MOL   H186 4770   2.502   2.846   1.484  2.6420  0.4895 -2.1234
   13MOL   H187 4771   2.435   2.993   1.560  0.3722  1.9588 -1.2986
   13MOL   H188 4772   2.615   2.968   1.561  1.8569 -0.1558 -1.8118
   13MOL   H189 4773   2.399   3.069   1.202 -1.7575 -1.4021 -0.6316
   13MOL   H190 4774   2.320   3.114   1.356  0.1095  1.1213 -0.1892
   13MOL   H191 4775   2.339   2.938   1.304 -0.1444  0.5023 -1.0278
   13MOL   C192 4776   2.706   2.889   0.982  0.0436 -0.0533  1.2339
   13MOL   C193 4777   2.562   2.817   0.986 -0.1056 -0.1117 -0.3517
   13MOL   C194 4778   2.577   2.678   1.050  0.5214  0.5557  0.7373
   13MOL   O195 4779   2.540   2.666   1.165 -0.3216  0.3644 -0.5539
   13MOL   N196 4780   2.631   2.573   0.988  0.1920  0.3990  0.4869
   13MOL   C197 4781   2.672   2.447   1.049 -0.5705  0.0096  0.2371
   13MOL   C198 4782   2.554   2.350   1.062  0.4235 -0.2440  0.1541
   13MOL   C199 4783   2.798   2.392   0.975  0.0460 -0.0481  0.2469
   13MOL   H200 4784   2.762   2.849   0.898  0.4189  0.2456  1.3417
   13MOL   H201 4785   2.697   2.992   0.949  4.4023  0.0587  0.0450
   13MOL   H202 4786   2.509   2.888   1.050  1.0887  0.4367  0.0630
   13MOL   H203 4787   2.639   2.582   0.888 -1.3705  0.6984  0.3656
   13MOL   H204 4788   2.698   2.484   1.148 -0.3838  0.5095  0.0008
   13MOL   H205 4789   2.585   2.259   1.112 -1.4721 -1.0270 -0.0586
   13MOL   H206 4790   2.502   2.332   0.968 -0.3529  2.4742  0.0131
   13MOL   H207 4791   2.479   2.391   1.130  1.5852  0.2968  1.1215
   13MOL   H208 4792   2.781   2.321   0.893 -0.1809  0.8446 -0.4860
   13MOL   H209 4793   2.859   2.336   1.046  2.0686 -0.0534 -1.4185
   13MOL   H210 4794   2.868   2.473   0.954 -0.4377  0.5707  0.9885
   13MOL   C211 4795   2.496   2.822   0.842 -0.6907  0.2268 -0.7369
   13MOL   C212 4796   2.341   2.806   0.853  0.5994  0.6964 -0.1998
   13MOL   C213 4797   2.276   2.931   0.895 -0.0997 -0.3348 -0.0986
   13MOL   O214 4798   2.340   3.034   0.914  0.5911  0.1699 -0.0059
   13MOL   N215 4799   2.145   2.911   0.917  0.5605 -0.0095 -0.7957
   13MOL   C216 4800   2.050   3.010   0.966  0.5485 -0.5631 -0.2407
   13MOL   C217 4801   1.910   2.946   0.992 -0.1303  0.1976  0.1283
   13MOL   C218 4802   2.032   3.121   0.857 -0.2214  0.4592 -0.1346
   13MOL   H219 4803   2.530   2.737   0.784  0.4156  0.5547 -0.5811
   13MOL   H220 4804   2.523   2.904   0.776  3.2977 -2.0027 -2.1008
   13MOL   H221 4805   2.329   2.744   0.942 -0.3021 -0.3094 -1.0176
   13MOL   H222 4806   2.109   2.823   0.885  0.9881 -0.8786  1.0611
   13MOL   H223 4807   2.099   3.048   1.056 -0.9334 -0.2583  0.4469
   13MOL   H224 4808   1.857   2.910   0.903 -2.1174 -1.4723  1.9410
   13MOL   H225 4809   1.908   2.868   1.068  0.6121 -1.1142 -1.1456
   13MOL   H226 4810   1.836   3.013   1.035  1.5572  1.4452  1.1099
   13MOL   H227 4811   1.965   3.203   0.883 -1.6928 -1.0746  1.1101
   13MOL   H228 4812   2.027   3.078   0.757  2.8973 -0.0929 -0.0957
   13MOL   H229 4813   2.126   3.168   0.828 -1.2842  1.9277 -1.2924
   13MOL   C230 4814   2.284   2.749   0.714  0.5041 -0.0374  0.5599
   13MOL   C231 4815   2.261   2.597   0.710  0.2561 -0.3808  0.0377
   13MOL   C232 4816   2.162   2.553   0.816 -0.1027 -0.8783 -0.7898
   13MOL   O233 4817   2.059   2.619   0.845 -0.2286  0.3097 -0.2459
   13MOL   N234 4818   2.184   2.438   0.877 -0.1692  0.5226 -0.5149
   13MOL   C235 4819   2.105   2.380   0.980  0.1337 -0.4134 -0.7885
   13MOL   C236 4820   1.988   2.307   0.918  0.2888 -0.4643 -0.3509
   13MOL   C237 4821   2.186   2.301   1.084 -0.1925 -0.0367 -0.6255
   13MOL   H238 4822   2.358   2.760   0.635 -0.2239  1.3294  0.0652
   13MOL   H239 4823   2.191   2.802   0.697  0.7726  0.3582  0.3118
   13MOL   H240 4824   2.354   2.556   0.748  0.6419 -0.4079 -0.9181
   13MOL   H241 4825   2.265   2.385   0.846 -0.4127  0.0643 -0.3845
   13MOL   H242 4826   2.068   2.461   1.043  0.7387  0.2747 -1.3055
   13MOL   H243 4827   1.923   2.274   1.000  0.7884 -0.7553 -0.0734
   13MOL   H244 4828   1.925   2.380   0.867 -0.8710 -1.0112  0.2807
   13MOL   H245 4829   2.015   2.227   0.849  0.9324 -0.1342 -0.4860
   13MOL   H246 4830   2.120   2.228   1.130  1.6492  0.0495  2.2643
   13MOL   H247 4831   2.239   2.360   1.159 -1.5829 -1.9445  1.9468
   13MOL   H248 4832   2.257   2.239   1.030  0.7492 -0.2298  0.8092
   13MOL   C249 4833   2.216   2.549   0.574 -0.1933 -0.3774  0.2702
   13MOL   C250 4834   2.326   2.499   0.475  0.0401  0.1238 -0.4017
   13MOL   C251 4835   2.250   2.447   0.352 -0.1822 -0.5783  0.4660
   13MOL   O252 4836   2.169   2.359   0.366 -0.1877 -0.0273 -0.9161
   13MOL   N253 4837   2.275   2.499   0.227  0.2111 -0.2256  0.4354
   13MOL   C254 4838   2.197   2.466   0.106  0.2781 -0.0045  0.3641
   13MOL   C255 4839   2.175   2.596   0.023 -0.3984  0.4955  0.0381
   13MOL   C256 4840   2.261   2.356   0.024 -0.6696  0.3024  0.4251
   13MOL   H257 4841   2.153   2.624   0.526  0.2285 -1.6308 -2.3600
   13MOL   H258 4842   2.154   2.460   0.588  0.0107 -0.3859  1.1498
   13MOL   H259 4843   2.390   2.585   0.452 -1.3565  1.1544 -0.5211
   13MOL   H260 4844   2.342   2.575   0.225  1.1984 -1.0937 -3.8663
   13MOL   H261 4845   2.095   2.431   0.122 -0.2634  0.8126 -1.1884
   13MOL   H262 4846   2.268   2.620   7.807 -0.5819 -1.1810 -1.1254
   13MOL   H263 4847   2.111   2.572   7.775 -2.4518  0.2807  1.6113
   13MOL   H264 4848   2.135   2.680   0.079 -1.3059  0.3378 -0.3632
   13MOL   H265 4849   2.365   2.382   0.006 -1.5032  2.1375 -2.0987
   13MOL   H266 4850   2.262   2.258   0.072  1.6310  0.9081  1.6936
   13MOL   H267 4851   2.224   2.347   7.758 -2.0227  2.3191  0.7081
   13MOL   C268 4852   2.420   2.397   0.537  0.1614 -0.0822  0.5399
   13MOL   C269 4853   2.571   2.408   0.501  0.1928 -0.3910 -0.4361
   13MOL   C270 4854   2.628   2.533   0.568 -0.2971  0.2502 -0.0744
   13MOL   O271 4855   2.635   2.534   0.696  0.1986  0.2301  0.4411
   13MOL   N272 4856   2.673   2.624   0.484  0.3804 -1.1521  0.0631
   13MOL   C273 4857   2.764   2.730   0.513  0.0571 -0.2844  0.0711
   13MOL   C274 4858   2.901   2.669   0.543 -0.3961  1.0254  0.0756
   13MOL   C275 4859   2.768   2.833   0.405  0.2757 -0.9005  0.1116
   13MOL   H276 4860   2.417   2.398   0.646 -0.6575  2.0301  0.5299
   13MOL   H277 4861   2.382   2.298   0.513 -1.5320  1.2187 -2.5066
   13MOL   H278 4862   2.585   2.413   0.393 -0.9374 -0.7516 -0.6079
   13MOL   H279 4863   2.645   2.615   0.387 -1.5539  1.8001  0.2516
   13MOL   H280 4864   2.727   2.774   0.605  0.5426  0.1181  0.0746
   13MOL   H281 4865   2.974   2.739   0.582 -1.3024  2.1311 -0.1665
   13MOL   H282 4866   2.890   2.607   0.631  2.9260 -0.3026 -0.3964
   13MOL   H283 4867   2.937   2.608   0.460  1.0683 -1.3704  2.4190
   13MOL   H284 4868   2.849   2.903   0.389  0.1523 -0.3564  1.8491
   13MOL   H285 4869   2.774   2.783   0.308 -0.4816 -0.4831 -0.1539
   13MOL   H286 4870   2.673   2.885   0.409  1.5429  1.3323  1.9242
   13MOL   C287 4871   2.642   2.276   0.555  0.2422  0.3331 -0.4171
   13MOL   C288 4872   2.749   2.210   0.463  0.1961  0.4505 -0.6418
   13MOL   C289 4873   2.676   2.172   0.324  0.3415 -0.7893 -0.5493
   13MOL   O290 4874   2.570   2.107   0.320  0.5172 -0.2495 -0.0944
   13MOL   N291 4875   2.747   2.217   0.212 -0.2612 -0.0304 -0.1339
   13MOL   C292 4876   2.693   2.224   0.082  0.1640 -0.5100  0.0484
   13MOL   C293 4877   2.617   2.351   0.074  0.4925 -0.0412  0.3562
   13MOL   C294 4878   2.811   2.219   7.818  0.3165 -0.5230 -0.1866
   13MOL   H295 4879   2.679   2.285   0.658 -2.2549 -2.4193  0.7927
   13MOL   H296 4880   2.572   2.195   0.575  0.7281  0.4775  2.0444
   13MOL   H297 4881   2.815   2.294   0.446  0.1538  0.9425  1.5467
   13MOL   H298 4882   2.841   2.245   0.234 -0.1143  0.3403 -1.1947
   13MOL   H299 4883   2.622   2.145   0.060 -1.6139  1.4124 -1.2695
   13MOL   H300 4884   2.686   2.432   0.094  1.5896 -0.4993 -1.5036
   13MOL   H301 4885   2.576   2.371   7.811  0.7292  2.6654  0.7643
   13MOL   H302 4886   2.534   2.366   0.143 -0.6367  0.3699 -1.0862
   13MOL   H303 4887   2.776   2.262   7.725  0.8292  0.0791 -0.1096
   13MOL   H304 4888   2.902   2.270   0.013  1.3618 -1.3502 -1.8372
   13MOL   H305 4889   2.838   2.114   7.804 -2.2257 -1.6510  2.5979
   13MOL   C306 4890   2.820   2.086   0.527 -0.0423  0.0099 -0.6013
   13MOL   C307 4891   2.969   2.071   0.511  0.1966  0.4560  0.2690
   13MOL   C308 4892   3.057   2.184   0.580  0.4117 -0.3534 -0.7679
   13MOL   O309 4893   3.048   2.296   0.543  0.5479 -0.1589  0.0197
   13MOL   N310 4894   3.131   2.149   0.686 -0.6517 -0.5947 -0.0780
   13MOL   C311 4895   3.216   2.237   0.769  0.5010 -0.2600  0.0094
   13MOL   C312 4896   3.123   2.317   0.860 -0.7541  0.0975  0.0002
   13MOL   C313 4897   3.317   2.153   0.852 -0.1779  0.1814 -0.5387
   13MOL   H314 4898   2.786   2.094   0.630 -0.3646 -1.0335 -0.6207
   13MOL   H315 4899   2.769   1.996   0.492 -0.0490 -0.8554  1.5742
   13MOL   H316 4900   2.992   1.986   0.575  1.9147  0.9467  0.3485
   13MOL   H317 4901   3.123   2.053   0.716  1.3747 -0.7245  0.1224
   13MOL   H318 4902   3.271   2.310   0.710 -0.7076  0.2652 -0.4789
   13MOL   H319 4903   3.058   2.384   0.803 -1.4437  1.5141  2.3658
   13MOL   H320 4904   3.178   2.368   0.940 -2.2673  2.6450 -0.5305
   13MOL   H321 4905   3.047   2.253   0.903 -2.6284  2.2661  0.0004
   13MOL   H322 4906   3.275   2.084   0.925 -1.8370  3.0404  1.3313
   13MOL   H323 4907   3.378   2.212   0.920  0.9502 -0.7517 -0.7237
   13MOL   H324 4908   3.385   2.097   0.788 -1.3460 -1.8972 -0.0241
   13MOL   C325 4909   2.999   2.051   0.353  0.6402  0.5676  0.1634
   13MOL   C326 4910   3.139   1.996   0.334 -0.1772 -0.5011  0.5845
   13MOL   C327 4911   3.156   1.867   0.407 -0.2593  0.6649  0.7828
   13MOL   O328 4912   3.098   1.765   0.367 -0.6144 -0.3493  0.0573
   13MOL   N329 4913   3.230   1.870   0.519  0.0108 -0.0031 -0.1610
   13MOL   C330 4914   3.258   1.750   0.598 -0.1612 -0.1079  0.2504
   13MOL   C331 4915   3.131   1.703   0.675 -0.5814  0.3443  0.5634
   13MOL   C332 4916   3.376   1.789   0.699  0.3205 -0.2252  0.4580
   13MOL   H333 4917   2.978   2.148   0.308  1.8276 -0.0590 -1.8103
   13MOL   H334 4918   2.927   1.985   0.304  1.4408 -0.7975  0.8133
   13MOL   H335 4919   3.204   2.064   0.390  1.2739  0.0039 -1.6695
   13MOL   H336 4920   3.290   1.948   0.544 -0.1353  0.6156 -1.6545
   13MOL   H337 4921   3.298   1.672   0.533  0.1123 -0.1082  0.4156
   13MOL   H338 4922   3.110   1.778   0.751  0.1171  1.5874 -0.4314
   13MOL   H339 4923   3.051   1.674   0.607 -1.4853  2.8225  0.5325
   13MOL   H340 4924   3.162   1.615   0.731  1.9925  0.5661 -0.4258
   13MOL   H341 4925   3.423   1.703   0.748  0.5339 -0.3247  0.0786
   13MOL   H342 4926   3.336   1.858   0.773 -1.5374  0.8477 -1.5147
   13MOL   H343 4927   3.452   1.845   0.644 -2.0946  2.4212 -0.3178
   13MOL   C344 4928   3.195   2.011   0.191  0.0893  0.0697 -0.0290
   13MOL   C345 4929   3.349   2.019   0.195 -0.2735  0.3401 -0.1828
   13MOL   C346 4930   3.412   1.974   0.061  0.3359 -0.5386 -0.4179
   13MOL   O347 4931   3.377   2.015   7.789 -0.2019 -0.2844 -0.2386
   13MOL   N348 4932   3.509   1.889   0.081 -0.2946  0.1672  0.2302
   13MOL   C349 4933   3.581   1.827   7.813  0.1257  0.1005  0.3767
   13MOL   C350 4934   3.692   1.902   7.740 -0.4496  0.3356 -0.7854
   13MOL   C351 4935   3.642   1.697   0.033 -0.7076 -0.1038  0.5257
   13MOL   H352 4936   3.165   2.100   0.136  0.1737 -0.1462 -0.4238
   13MOL   H353 4937   3.170   1.925   0.130 -1.2240 -0.3893  1.1364
   13MOL   H354 4938   3.376   1.933   0.256  1.3443  0.9085 -0.0900
   13MOL   H355 4939   3.534   1.846   0.169  1.7822 -2.1996 -1.4436
   13MOL   H356 4940   3.508   1.802   7.735  0.2631 -0.7739  0.5236
   13MOL   H357 4941   3.736   1.977   7.804  2.6620 -1.5809 -0.5973
   13MOL   H358 4942   3.766   1.831   7.703 -0.2136 -0.0129  0.3569
   13MOL   H359 4943   3.654   1.955   7.652  1.5498 -0.8741 -2.3993
   13MOL   H360 4944   3.671   1.620   7.798  0.0310  1.6977 -1.1492
   13MOL   H361 4945   3.736   1.724   0.080 -0.8885  1.0548  0.2524
   13MOL   H362 4946   3.570   1.651   0.102 -1.2622  1.2308  0.8524
   13MOL   C363 4947   3.411   2.152   0.246  0.3911 -0.1957  0.1145
   13MOL   C364 4948   3.559   2.149   0.272 -0.3394  0.0175 -0.7192
   13MOL   C365 4949   3.595   2.070   0.398 -0.7779  0.2544 -0.8587
   13MOL   O366 4950   3.510   2.005   0.462 -0.0377  0.4048  0.2720
   13MOL   N367 4951   3.725   2.058   0.429  0.4027 -0.0804  0.3848
   13MOL   C368 4952   3.783   1.964   0.528  0.3786  0.4796  0.7154
   13MOL   C369 4953   3.896   1.876   0.477  0.2054 -0.4930  0.7079
   13MOL   C370 4954   3.840   2.044   0.645 -0.3688  1.0722 -0.4617
   13MOL   H371 4955   3.368   2.186   0.340  0.4163 -0.4018  0.2009
   13MOL   H372 4956   3.389   2.236   0.180  1.5004 -0.6545 -0.8684
   13MOL   H373 4957   3.591   2.253   0.279 -1.1910  0.3244 -1.4230
   13MOL   H374 4958   3.780   2.108   0.360 -1.9768 -0.4636 -1.8751
   13MOL   H375 4959   3.711   1.893   0.570 -0.9371  1.1553 -0.3439
   13MOL   H376 4960   3.927   1.819   0.565  1.3319  0.9378  1.2700
   13MOL   H377 4961   3.871   1.816   0.390  1.1979  0.4387 -0.2352
   13MOL   H378 4962   3.978   1.943   0.454 -0.9249  0.5544 -0.3324
   13MOL   H379 4963   3.758   2.107   0.680  0.3110  1.4725  0.4408
   13MOL   H380 4964   3.883   1.976   0.718 -1.1550 -3.3084 -3.8764
   13MOL   H381 4965   3.912   2.120   0.615  0.6130  0.0675 -0.6527
   13MOL   H382 4966   3.610   2.112   0.183 -1.2548  0.7844 -1.5702
   14MOL     C1 4967   7.723   4.830   3.119 -1.1626  0.2665  0.1842
   14MOL     C2 4968   7.726   4.721   3.234 -0.3032 -0.2666  0.3175
   14MOL     C3 4969   0.013   4.729   3.321 -0.2787 -0.4577  0.1129
   14MOL     O4 4970   0.052   4.833   3.367  0.1104  0.2188 -0.0608
   14MOL     N5 4971   0.077   4.610   3.352 -0.1174  0.6543 -0.1191
   14MOL     C6 4972   0.191   4.596   3.440 -0.3238  0.1248  0.0965
   14MOL     C7 4973   0.182   4.473   3.532  0.1490 -0.8527 -0.3258
   14MOL     C8 4974   0.320   4.588   3.364 -0.4215  0.3567 -0.2411
   14MOL     H9 4975   7.811   4.812   3.057 -0.3451  0.5738  1.2449
   14MOL    H10 4976   7.719   4.936   3.145  5.3707  0.9395 -0.7297
   14MOL    H11 4977   7.730   4.621   3.190 -0.9671 -0.4684  0.7041
   14MOL    H12 4978   0.029   4.526   3.324  0.9824 -0.2558  0.7074
   14MOL    H13 4979   0.180   4.681   3.508 -3.2716  0.5405 -0.8508
   14MOL    H14 4980   0.090   4.456   3.589 -1.0408 -0.4940 -2.1065
   14MOL    H15 4981   0.259   4.480   3.609  1.3416  0.0659 -1.5758
   14MOL    H16 4982   0.183   4.386   3.467 -0.7419 -0.6935 -0.5554
   14MOL    H17 4983   0.329   4.506   3.293 -0.8794  1.0710 -1.1475
   14MOL    H18 4984   0.336   4.676   3.300  2.3082 -0.2044 -0.4069
   14MOL    H19 4985   0.408   4.584   3.429 -1.6726  0.0066  1.4513
   14MOL    H20 4986   7.641   4.804   3.051 -0.3710 -1.0695 -0.2759
   14MOL    C21 4987   7.590   4.740   3.307 -0.6636 -0.3320 -0.6388
   14MOL    C22 4988   7.565   4.647   3.430 -0.5776 -0.3567 -0.1456
   14MOL    C23 4989   7.566   4.501   3.403  0.0094 -0.3175 -0.0749
   14MOL    O24 4990   7.519   4.467   3.294 -0.4098  0.0186 -0.5752
   14MOL    N25 4991   7.618   4.415   3.493  0.3477 -0.1908  0.3009
   14MOL    C26 4992   7.622   4.272   3.476 -1.0041  0.4285  0.0919
   14MOL    C27 4993   7.583   4.212   3.613 -0.8536  0.6401  0.1986
   14MOL    C28 4994   7.765   4.214   3.432  0.0287 -0.2520 -0.5659
   14MOL    H29 4995   7.515   4.720   3.230 -0.2462 -0.4863 -1.0079
   14MOL    H30 4996   7.574   4.846   3.328 -3.4060 -0.4046 -2.1310
   14MOL    H31 4997   7.650   4.658   3.496 -0.1672 -1.3696 -0.4885
   14MOL    H32 4998   7.635   4.461   3.581  1.3024 -1.0093  0.5447
   14MOL    H33 4999   7.542   4.246   3.407 -0.2661  3.1458 -1.8278
   14MOL    H34 5000   7.565   4.104   3.618  1.6517  0.2109  0.5979
   14MOL    H35 5001   7.489   4.257   3.646 -0.2527  1.1737  1.2207
   14MOL    H36 5002   7.649   4.246   3.693  0.2268  0.9700 -0.8343
   14MOL    H37 5003   0.002   4.186   3.508 -0.6062  0.9361  0.5087
   14MOL    H38 5004   7.746   4.121   3.380  0.6753  0.5602 -2.3096
   14MOL    H39 5005   7.812   4.282   3.361  0.2625  2.0119  1.6457
   14MOL    C40 5006   7.442   4.686   3.505  0.6629  0.5492  0.0854
   14MOL    C41 5007   7.459   4.807   3.598  0.4215 -0.6437 -0.4850
   14MOL    C42 5008   7.537   4.765   3.722 -0.3620 -0.0580 -0.8340
   14MOL    O43 5009   7.501   4.670   3.793  0.3692 -0.2898  0.0400
   14MOL    N44 5010   7.646   4.835   3.755  0.4639  0.1484  0.2525
   14MOL    C45 5011   7.723   4.818   3.879  0.8084 -0.0471 -0.2701
   14MOL    C46 5012   0.002   4.716   3.864 -0.4751 -0.1017  0.2374
   14MOL    C47 5013   7.771   4.956   3.929 -0.2885 -0.3309  0.3427
   14MOL    H48 5014   7.404   4.606   3.569  2.8743 -1.0774 -0.5757
   14MOL    H49 5015   7.359   4.685   3.434  1.3221  0.4730 -0.6918
   14MOL    H50 5016   7.520   4.882   3.548  2.0041 -2.0092 -0.6430
   14MOL    H51 5017   7.683   4.906   3.693 -0.1162  1.5311  1.4834
   14MOL    H52 5018   7.653   4.793   3.959  2.6813  2.2144  2.2025
   14MOL    H53 5019   7.819   4.618   3.820 -3.4447 -0.0918  1.3706
   14MOL    H54 5020   0.036   4.695   3.966  1.7943 -2.2355 -0.9140
   14MOL    H55 5021   0.065   4.774   3.797 -2.8488  2.5126  0.2068
   14MOL    H56 5022   0.009   4.955   4.008 -0.4824  1.3272  0.5831
   14MOL    H57 5023   7.688   5.020   3.960 -0.4770 -0.2756 -0.2673
   14MOL    H58 5024   7.828   5.003   3.849 -2.0256  0.6477 -0.3712
   14MOL    C59 5025   7.314   4.868   3.632 -1.0714 -0.0489  0.7118
   14MOL    C60 5026   7.325   5.004   3.710  0.1455 -0.5287  0.0297
   14MOL    C61 5027   7.195   5.039   3.779  0.1819 -0.4040  0.5368
   14MOL    O62 5028   7.110   5.098   3.717  0.1880  0.1951 -0.5754
   14MOL    N63 5029   7.190   5.015   3.912 -0.2413  0.4925 -0.4926
   14MOL    C64 5030   7.084   5.042   4.008  0.2701  0.0970 -0.0561
   14MOL    C65 5031   7.127   5.003   4.154 -0.9069 -0.5330  0.2307
   14MOL    C66 5032   7.048   5.189   4.013 -0.1625  0.1413 -0.0181
   14MOL    H67 5033   7.264   4.886   3.537 -1.2512  4.4731  1.5346
   14MOL    H68 5034   7.265   4.792   3.692 -3.2098  0.9213  0.2481
   14MOL    H69 5035   7.403   4.999   3.787  0.0132 -2.5524  0.0726
   14MOL    H70 5036   7.276   4.986   3.956 -0.2088  1.0323 -0.1917
   14MOL    H71 5037   6.995   4.984   3.986 -0.6525  1.7458 -0.7229
   14MOL    H72 5038   7.068   5.061   4.225 -0.2564 -1.2217  1.3244
   14MOL    H73 5039   7.116   4.897   4.175  0.3840 -0.6362  0.3908
   14MOL    H74 5040   7.232   5.025   4.169 -1.2735  2.0678 -0.5959
   14MOL    H75 5041   6.953   5.213   4.060 -0.8423  0.3839 -1.4639
   14MOL    H76 5042   7.118   5.246   4.073  2.0066 -0.2236 -2.1053
   14MOL    H77 5043   7.051   5.232   3.913  2.0633  1.7892  0.7203
   14MOL    C78 5044   7.377   5.123   3.617  0.3237  0.1546  0.0057
   14MOL    C79 5045   7.372   5.270   3.670 -0.1406  1.1246 -0.1029
   14MOL    C80 5046   7.451   5.281   3.800 -0.4676 -0.0780  1.2148
   14MOL    O81 5047   7.566   5.230   3.802 -0.0812 -0.0040 -0.4802
   14MOL    N82 5048   7.391   5.346   3.903 -0.4256  0.1159  0.1814
   14MOL    C83 5049   7.461   5.340   4.031  0.3924 -0.2093  0.0419
   14MOL    C84 5050   7.428   5.469   4.104 -0.4695  0.2204  0.3372
   14MOL    C85 5051   7.430   5.216   4.109  0.5041  0.9518 -0.0037
   14MOL    H86 5052   7.330   5.108   3.520  0.4853 -0.3173 -0.0055
   14MOL    H87 5053   7.484   5.111   3.597  0.5427  2.1927 -0.1571
   14MOL    H88 5054   7.266   5.296   3.676 -0.7104 -0.7196 -1.7135
   14MOL    H89 5055   7.299   5.386   3.894 -0.5191 -0.1686 -0.1234
   14MOL    H90 5056   7.569   5.337   4.023  0.3984 -1.0474  0.4564
   14MOL    H91 5057   7.485   5.479   4.196 -1.6667  2.2125  0.9185
   14MOL    H92 5058   7.432   5.558   4.041 -0.7393 -1.7016 -2.4746
   14MOL    H93 5059   7.327   5.467   4.144  0.3359 -2.3395  2.3585
   14MOL    H94 5060   7.442   5.126   4.047 -1.7149  0.5324  0.1393
   14MOL    H95 5061   7.328   5.228   4.145  0.5054  0.6094  0.1237
   14MOL    H96 5062   7.495   5.210   4.196 -0.3097 -3.2962  0.4333
   14MOL    C97 5063   7.433   5.359   3.561 -1.3074 -0.6530 -0.1520
   14MOL    C98 5064   7.449   5.511   3.592  0.7267  0.0940 -0.3114
   14MOL    C99 5065   7.315   5.575   3.606 -0.2300 -0.6519  0.8261
   14MOL   O100 5066   7.237   5.575   3.511  0.0611  0.3910 -0.4016
   14MOL   N101 5067   7.289   5.637   3.720 -0.0479  0.2141 -0.0874
   14MOL   C102 5068   7.161   5.691   3.764  0.1819  0.1888 -0.1661
   14MOL   C103 5069   7.155   5.708   3.917  0.4362  0.2877 -0.2139
   14MOL   C104 5070   7.154   5.826   3.691 -0.1715 -0.0238  0.2178
   14MOL   H105 5071   7.388   5.344   3.463  1.1794  0.6407 -1.5367
   14MOL   H106 5072   7.535   5.324   3.547 -1.4525 -0.6191 -1.3002
   14MOL   H107 5073   7.498   5.511   3.689  0.2967 -2.7078 -0.0417
   14MOL   H108 5074   7.372   5.672   3.767 -1.5230  0.5617  2.3292
   14MOL   H109 5075   7.082   5.621   3.736 -0.2452  1.0017 -1.0071
   14MOL   H110 5076   7.217   5.790   3.952 -0.2461  1.4252 -1.6281
   14MOL   H111 5077   7.053   5.731   3.949  0.5468  1.5783 -0.7420
   14MOL   H112 5078   7.189   5.618   3.969 -0.3820  0.1205  0.0441
   14MOL   H113 5079   7.200   5.817   3.592  0.9725  1.0229  0.6559
   14MOL   H114 5080   7.197   5.899   3.758  0.5858 -1.4076  1.2710
   14MOL   H115 5081   7.048   5.849   3.681 -0.0015  1.0474  0.8473
   14MOL   C116 5082   7.538   5.580   3.484  0.9305 -0.2688  0.1665
   14MOL   C117 5083   7.581   5.728   3.506 -0.5770  0.8410  0.2435
   14MOL   C118 5084   7.655   5.782   3.380 -0.6242  0.0146  0.3060
   14MOL   O119 5085   7.752   5.722   3.340 -0.1116  0.5672  0.8007
   14MOL   N120 5086   7.634   5.909   3.338 -0.7391 -0.4910  0.1731
   14MOL   C121 5087   7.703   5.983   3.229  0.8354  0.7697 -0.2997
   14MOL   C122 5088   7.622   5.982   3.101  0.1059  0.6426  0.2357
   14MOL   C123 5089   7.713   6.120   3.289 -0.7674  0.3422  0.7550
   14MOL   H124 5090   7.490   5.557   3.389 -1.0044 -1.3535  1.3717
   14MOL   H125 5091   7.630   5.521   3.475  0.6586 -0.7439  0.4965
   14MOL   H126 5092   7.489   5.786   3.511 -0.6084  1.0390 -2.0202
   14MOL   H127 5093   7.560   5.957   3.389  0.1188  0.1944  0.7950
   14MOL   H128 5094   7.803   5.950   3.200  0.7055 -1.5167  1.6500
   14MOL   H129 5095   7.605   5.885   3.053  1.9624 -0.5131  1.8379
   14MOL   H130 5096   7.687   6.027   3.025 -0.9495  2.1246  0.1802
   14MOL   H131 5097   7.528   6.035   3.114 -0.4956 -1.0134  3.1337
   14MOL   H132 5098   7.615   6.159   3.317 -0.7103  0.5547  0.6544
   14MOL   H133 5099   7.784   6.124   3.372  0.7112 -3.4007 -0.2327
   14MOL   H134 5100   7.751   6.177   3.205 -3.7101  0.4809 -0.5441
   14MOL   C135 5101   7.657   5.742   3.643  0.8492 -1.0437  0.2714
   14MOL   C136 5102   7.667   5.888   3.692  0.0290 -0.2953  0.9132
   14MOL   C137 5103   7.525   5.943   3.720  0.1836 -0.4272  0.1497
   14MOL   O138 5104   7.443   5.862   3.770 -0.1670 -0.5601  0.2729
   14MOL   N139 5105   7.501   6.074   3.687 -0.0660  0.5227  0.9830
   14MOL   C140 5106   7.384   6.148   3.725  0.3100 -0.3692 -0.3657
   14MOL   C141 5107   7.379   6.283   3.657  0.4153 -0.3962  0.4348
   14MOL   C142 5108   7.362   6.159   3.882 -0.3150  0.4710 -0.5026
   14MOL   H143 5109   7.750   5.687   3.631  1.0907 -0.8657  1.2663
   14MOL   H144 5110   7.605   5.693   3.725  1.4267 -0.6140  0.8972
   14MOL   H145 5111   7.701   5.956   3.614 -2.3802  1.1696  1.0872
   14MOL   H146 5112   7.562   6.122   3.623 -0.7425  0.4166  0.2524
   14MOL   H147 5113   7.299   6.093   3.684  0.2070 -0.9501  0.5988
   14MOL   H148 5114   7.375   6.267   3.549  0.4744 -0.2499  0.4098
   14MOL   H149 5115   7.293   6.345   3.681  0.1843 -1.0315  1.2583
   14MOL   H150 5116   7.471   6.337   3.679  0.3311 -0.2544  0.4401
   14MOL   H151 5117   7.457   6.188   3.928 -1.1857  1.5645  0.6575
   14MOL   H152 5118   7.336   6.065   3.930  2.0516  0.5919  1.0840
   14MOL   H153 5119   7.294   6.239   3.913  1.5136  1.4237  1.2140
   14MOL   C154 5120   7.759   5.894   3.811 -0.2280  0.0725 -0.1851
   14MOL   C155 5121   7.782   6.035   3.880  0.3576 -0.1661 -0.3299
   14MOL   C156 5122   0.040   6.127   3.796 -0.6662 -0.4678 -0.3955
   14MOL   O157 5123   0.155   6.090   3.761 -0.1042  0.0345 -1.0556
   14MOL   N158 5124   7.815   6.245   3.759 -0.1133 -0.1717 -0.1825
   14MOL   C159 5125   0.031   6.349   3.682 -0.3849 -0.1726  0.5088
   14MOL   C160 5126   0.090   6.458   3.772 -0.3429  0.3001 -0.2724
   14MOL   C161 5127   7.753   6.424   3.602 -0.2796 -0.3726  0.0710
   14MOL   H162 5128   0.024   5.868   3.781 -0.5361 -2.2455  0.6676
   14MOL   H163 5129   7.725   5.820   3.884  1.9410  0.8073  1.6440
   14MOL   H164 5130   7.683   6.078   3.880  0.2931 -0.2946 -1.3568
   14MOL   H165 5131   7.723   6.256   3.800 -0.9678 -2.0982 -1.5281
   14MOL   H166 5132   0.101   6.315   3.605 -0.5045 -1.2428  0.8660
   14MOL   H167 5133   0.002   6.491   3.827 -0.4297  0.0960 -0.2860
   14MOL   H168 5134   0.160   6.429   3.851 -1.3566  2.2489  1.4153
   14MOL   H169 5135   0.144   6.540   3.727  1.4220 -0.7043 -0.0317
   14MOL   H170 5136   7.776   6.521   3.558 -0.6741 -0.4279 -0.2650
   14MOL   H171 5137   7.663   6.455   3.657  0.3695  0.5535  0.6259
   14MOL   H172 5138   7.714   6.368   3.517 -1.3999 -0.3899  0.5807
   14MOL   C173 5139   7.818   6.037   4.029 -0.3925 -0.2737  0.1845
   14MOL   C174 5140   0.009   6.165   4.105  0.0851  0.1533  0.4661
   14MOL   C175 5141   7.717   6.255   4.109 -0.1526 -0.0303  0.3528
   14MOL   O176 5142   7.613   6.201   4.145  0.2624 -0.3862 -1.2344
   14MOL   N177 5143   7.734   6.382   4.079 -0.0235 -0.3215  0.0024
   14MOL   C178 5144   7.639   6.495   4.093  1.3857  0.4561  0.4423
   14MOL   C179 5145   7.514   6.482   4.004 -0.2866 -0.4774 -0.2667
   14MOL   C180 5146   7.722   6.618   4.068 -0.3541  0.6503 -0.1092
   14MOL   H181 5147   0.075   5.982   4.036 -0.2696 -0.3250 -1.6998
   14MOL   H182 5148   7.749   5.972   4.083 -1.1028  0.0426 -0.3272
   14MOL   H183 5149   0.086   6.217   4.048  0.7702 -0.4202  0.8692
   14MOL   H184 5150   7.825   6.408   4.046 -0.7396  0.3139 -1.5416
   14MOL   H185 5151   7.612   6.490   4.198  0.3403 -0.2188  0.1529
   14MOL   H186 5152   7.453   6.395   4.028  0.6996 -1.2531 -0.5330
   14MOL   H187 5153   7.540   6.480   3.898 -0.7712  0.0256 -0.3920
   14MOL   H188 5154   7.454   6.571   4.022  0.3476 -0.0828 -0.0751
   14MOL   H189 5155   7.807   6.629   4.135  1.6311  0.9244 -2.6324
   14MOL   H190 5156   7.657   6.706   4.067 -0.7643  0.4078  2.3470
   14MOL   H191 5157   7.767   6.617   3.969  0.0852  1.6820  0.0659
   14MOL   C192 5158   0.062   6.132   4.244  0.3749  0.5502 -0.5110
   14MOL   C193 5159   0.118   6.247   4.330  0.4685 -0.4464 -0.4471
   14MOL   C194 5160   0.230   6.346   4.268 -0.1891  0.2895  0.3551
   14MOL   O195 5161   0.187   6.452   4.217 -0.0576  0.2087 -0.2908
   14MOL   N196 5162   0.356   6.301   4.257 -0.2218 -0.4456 -0.4812
   14MOL   C197 5163   0.459   6.378   4.188  0.0772 -0.4561 -0.6861
   14MOL   C198 5164   0.600   6.341   4.252 -0.6361 -0.1766 -0.1367
   14MOL   C199 5165   0.465   6.339   4.037 -0.7111  0.8098  0.1109
   14MOL   H200 5166   0.139   6.057   4.226 -0.4814 -0.2693 -0.8155
   14MOL   H201 5167   7.826   6.074   4.300  2.1090 -0.2716  0.9107
   14MOL   H202 5168   0.033   6.310   4.355  0.5738 -0.1521 -0.8281
   14MOL   H203 5169   0.386   6.207   4.280  2.7154  0.7287  0.6961
   14MOL   H204 5170   0.445   6.486   4.198 -0.3468 -0.3357 -2.5412
   14MOL   H205 5171   0.629   6.246   4.207  0.2944  0.9624 -1.9902
   14MOL   H206 5172   0.589   6.331   4.360 -0.5277  0.9706 -0.0126
   14MOL   H207 5173   0.685   6.407   4.231 -1.1205  0.3751 -0.3516
   14MOL   H208 5174   0.503   6.237   4.038  0.1921  1.1315  1.5010
   14MOL   H209 5175   0.534   6.404   3.983 -1.0249  1.6274  0.6723
   14MOL   H210 5176   0.371   6.346   3.983  1.2049  0.3233 -3.4036
   14MOL   C211 5177   0.161   6.193   4.463  0.0930  1.2209 -0.1294
   14MOL   C212 5178   0.219   6.294   4.566  0.0327 -0.2362  0.2978
   14MOL   C213 5179   0.117   6.394   4.620 -0.0903  0.1359  0.3537
   14MOL   O214 5180   0.073   6.378   4.732  0.6099 -0.3412 -0.2898
   14MOL   N215 5181   0.082   6.497   4.542 -0.0559 -0.5833 -0.0685
   14MOL   C216 5182   7.832   6.609   4.571 -0.0964  0.0437 -0.3648
   14MOL   C217 5183   7.776   6.655   4.437 -0.1445 -0.1496  0.2802
   14MOL   C218 5184   0.068   6.717   4.657  0.0101 -0.3793 -0.1484
   14MOL   H219 5185   0.230   6.110   4.446  0.6593  1.6938 -0.1340
   14MOL   H220 5186   0.080   6.134   4.507 -0.3829  1.1884 -1.0387
   14MOL   H221 5187   0.303   6.349   4.524 -1.0431  0.7868 -0.5724
   14MOL   H222 5188   0.133   6.503   4.455 -2.0761  0.9129 -1.1986
   14MOL   H223 5189   7.747   6.572   4.629  0.8725 -0.6008  0.6652
   14MOL   H224 5190   7.769   6.564   4.377  1.1880  0.4201 -0.7684
   14MOL   H225 5191   7.682   6.706   4.459 -0.3006 -0.9122  1.4474
   14MOL   H226 5192   0.006   6.729   4.392  0.9951  0.9561  3.6064
   14MOL   H227 5193   0.164   6.745   4.613 -0.8464 -0.1297 -1.9231
   14MOL   H228 5194   0.098   6.680   4.755  0.2538  1.9564  0.6856
   14MOL   H229 5195   7.835   6.797   4.682 -1.7353 -1.6857 -0.7018
   14MOL   C230 5196   0.283   6.207   4.674 -0.2137 -0.4794 -0.5961
   14MOL   C231 5197   0.401   6.276   4.738  0.1759 -0.5243 -0.1908
   14MOL   C232 5198   0.401   6.272   4.893 -0.5579  0.4722 -0.5033
   14MOL   O233 5199   0.495   6.219   4.956  1.4435 -0.1642  0.3131
   14MOL   N234 5200   0.299   6.333   4.951  0.1154 -0.5333  0.5328
   14MOL   C235 5201   0.283   6.367   5.095  0.6549 -0.9699  0.4358
   14MOL   C236 5202   0.204   6.501   5.100  0.1387  0.3040  0.1403
   14MOL   C237 5203   0.220   6.254   5.171  0.4472 -0.0710  0.1799
   14MOL   H238 5204   0.316   6.115   4.625 -1.5569 -0.6052 -1.2781
   14MOL   H239 5205   0.226   6.163   4.755  0.5749  2.5711  1.6887
   14MOL   H240 5206   0.392   6.384   4.721 -3.0704 -0.5706  0.9277
   14MOL   H241 5207   0.219   6.354   4.894  0.3755  1.6301  0.9123
   14MOL   H242 5208   0.380   6.394   5.137  1.6106 -0.8331 -1.7938
   14MOL   H243 5209   0.181   6.534   5.202  0.2781 -0.2974  0.3664
   14MOL   H244 5210   0.272   6.570   5.049  0.5497 -0.7198 -0.7081
   14MOL   H245 5211   0.112   6.492   5.044  1.5136 -2.9792 -1.7149
   14MOL   H246 5212   0.271   6.160   5.155 -0.3657 -0.5469  0.3795
   14MOL   H247 5213   0.116   6.243   5.143  0.0439  0.7390  1.3095
   14MOL   H248 5214   0.220   6.270   5.279 -1.6259  0.3049  0.1478
   14MOL   C249 5215   0.532   6.244   4.668 -0.1869 -0.2809  0.0643
   14MOL   C250 5216   0.654   6.339   4.698  0.1812  0.2127  0.3797
   14MOL   C251 5217   0.631   6.490   4.664  0.3632  0.0888  0.6482
   14MOL   O252 5218   0.621   6.525   4.551 -0.0586  0.6297  0.6762
   14MOL   N253 5219   0.614   6.572   4.765 -0.6780 -0.3989 -0.4148
   14MOL   C254 5220   0.562   6.704   4.764 -0.4272  0.0708  0.1172
   14MOL   C255 5221   0.408   6.705   4.762 -0.2169  0.7514  0.6427
   14MOL   C256 5222   0.601   6.777   4.897 -0.6428  0.6418 -0.2142
   14MOL   H257 5223   0.518   6.265   4.562  2.8233  0.3509 -0.2602
   14MOL   H258 5224   0.564   6.141   4.678  0.1931 -0.1830 -0.1424
   14MOL   H259 5225   0.666   6.338   4.806 -0.1057  2.7924  0.4651
   14MOL   H260 5226   0.641   6.533   4.854  0.3766 -0.4632 -0.7493
   14MOL   H261 5227   0.599   6.758   4.677  0.6924 -0.6983  0.1069
   14MOL   H262 5228   0.372   6.808   4.772 -0.1942  1.1287 -2.4956
   14MOL   H263 5229   0.360   6.663   4.673 -2.1055  1.7298  1.1562
   14MOL   H264 5230   0.359   6.660   4.849  0.0028  2.3533  1.6170
   14MOL   H265 5231   0.706   6.760   4.920 -0.4982  0.5714 -0.9314
   14MOL   H266 5232   0.599   6.884   4.878 -0.1705  0.3801 -1.8145
   14MOL   H267 5233   0.546   6.737   4.982  0.3853 -1.2648 -0.4158
   14MOL   C268 5234   0.771   6.283   4.611  0.1202 -0.8487  0.1823
   14MOL   C269 5235   0.909   6.351   4.628  0.0874 -0.4424  0.2577
   14MOL   C270 5236   0.975   6.314   4.758 -0.2938 -0.3301  0.0755
   14MOL   O271 5237   0.996   6.402   4.843 -0.6858  0.5252  0.2994
   14MOL   N272 5238   1.005   6.186   4.781 -0.1289  0.2291  0.1190
   14MOL   C273 5239   1.048   6.125   4.906  0.0402 -0.2810  0.9261
   14MOL   C274 5240   0.942   6.011   4.941  0.8983 -0.5588  0.3191
   14MOL   C275 5241   1.184   6.071   4.886  0.4584 -0.2249  0.9389
   14MOL   H276 5242   0.788   6.179   4.641  0.6457 -1.1832 -1.1921
   14MOL   H277 5243   0.742   6.287   4.506  1.2842  0.9992 -0.0863
   14MOL   H278 5244   0.892   6.459   4.625 -0.4051 -0.5000  0.9272
   14MOL   H279 5245   0.984   6.132   4.698  0.6158 -0.8956  0.6483
   14MOL   H280 5246   1.038   6.201   4.985  1.5175  0.3911  0.4826
   14MOL   H281 5247   0.966   5.915   4.895  1.9159 -0.3250  0.3426
   14MOL   H282 5248   0.933   5.995   5.049 -0.8689 -2.8036 -0.1163
   14MOL   H283 5249   0.840   6.041   4.918  1.1347 -1.9416 -2.7963
   14MOL   H284 5250   1.185   5.980   4.826  3.1779  0.9547 -0.9166
   14MOL   H285 5251   1.246   6.149   4.843 -1.1981 -0.3758 -1.8251
   14MOL   H286 5252   1.233   6.029   4.974  0.1712 -0.7878  0.8358
   14MOL   C287 5253   1.001   6.318   4.501  0.5797 -0.6274  0.1310
   14MOL   C288 5254   0.987   6.413   4.384 -0.0243 -0.4042  0.1722
   14MOL   C289 5255   1.030   6.360   4.252 -0.4939  0.1965 -0.3834
   14MOL   O290 5256   1.138   6.308   4.246 -0.0412 -0.1169 -0.1445
   14MOL   N291 5257   0.944   6.377   4.149  0.5087  0.1977 -0.1620
   14MOL   C292 5258   0.963   6.321   4.019 -0.7125  0.6678 -0.1567
   14MOL   C293 5259   0.883   6.195   4.002  0.0759  0.5530 -0.2540
   14MOL   C294 5260   0.924   6.424   3.920  0.2921  0.0399  0.2858
   14MOL   H295 5261   1.105   6.323   4.532  0.2786 -0.4819  1.1622
   14MOL   H296 5262   0.983   6.216   4.467 -0.1976 -0.4387 -0.0301
   14MOL   H297 5263   0.882   6.441   4.385  0.0808  0.0716 -1.1983
   14MOL   H298 5264   0.865   6.436   4.172  0.5217 -0.6112  2.1538
   14MOL   H299 5265   1.068   6.295   4.005 -0.8360  0.3640 -0.5277
   14MOL   H300 5266   0.779   6.210   4.028  0.5274  0.0786  1.8723
   14MOL   H301 5267   0.901   6.160   3.900  1.2972 -0.6475  0.3651
   14MOL   H302 5268   0.925   6.121   4.070 -1.6761 -1.1891 -1.0264
   14MOL   H303 5269   0.979   6.411   3.826  0.9986 -0.6432  0.7862
   14MOL   H304 5270   0.819   6.413   3.896  0.5826  0.9642 -1.4800
   14MOL   H305 5271   0.948   6.521   3.963  0.1431  0.4574 -0.5727
   14MOL   C306 5272   1.069   6.541   4.424  0.4420 -0.2955  0.3213
   14MOL   C307 5273   1.037   6.665   4.336  0.2253 -0.2828 -0.0114
   14MOL   C308 5274   1.165   6.753   4.339 -0.1828 -0.1812  0.9828
   14MOL   O309 5275   1.170   6.852   4.408 -0.3377  0.5211  0.2257
   14MOL   N310 5276   1.261   6.716   4.250  0.3273 -0.5937  0.0631
   14MOL   C311 5277   1.375   6.796   4.212 -0.1061  0.0206  0.0916
   14MOL   C312 5278   1.503   6.720   4.202  0.1894 -0.4618  0.7677
   14MOL   C313 5279   1.350   6.868   4.073  0.1323 -0.4353  0.4464
   14MOL   H314 5280   1.054   6.563   4.529  0.9415 -1.2989  0.6170
   14MOL   H315 5281   1.177   6.525   4.424  0.2809 -1.4366  0.8461
   14MOL   H316 5282   1.018   6.643   4.231  3.5051 -0.8556 -0.5426
   14MOL   H317 5283   1.254   6.629   4.199 -1.4472 -0.0330 -0.6798
   14MOL   H318 5284   1.398   6.862   4.296 -1.2578  1.2267 -0.5309
   14MOL   H319 5285   1.594   6.779   4.219  1.1928 -1.7377 -0.0942
   14MOL   H320 5286   1.513   6.670   4.106 -1.7466 -2.7573  1.7301
   14MOL   H321 5287   1.501   6.642   4.277 -0.4042 -2.0169 -0.8297
   14MOL   H322 5288   1.417   6.834   3.994  1.9104 -0.5368  1.9805
   14MOL   H323 5289   1.391   6.969   4.081  0.8997 -0.7188  0.0775
   14MOL   H324 5290   1.247   6.890   4.043 -0.3222  0.8441  2.8082
   14MOL   C325 5291   0.907   6.732   4.395  0.3294 -0.0052 -0.0643
   14MOL   C326 5292   0.848   6.839   4.300 -0.1706 -0.1190  0.0180
   14MOL   C327 5293   0.760   6.773   4.189  0.3948 -0.1833  1.0661
   14MOL   O328 5294   0.734   6.651   4.188  0.3383  0.6364 -0.3772
   14MOL   N329 5295   0.741   6.847   4.078 -0.3070  0.3732  1.2523
   14MOL   C330 5296   0.684   6.810   3.952 -0.0236 -0.1113  0.2922
   14MOL   C331 5297   0.779   6.862   3.845 -0.0726 -0.7578  0.3261
   14MOL   C332 5298   0.540   6.865   3.957  0.2576  0.0123 -1.1912
   14MOL   H333 5299   0.916   6.785   4.489 -0.8239 -0.5446  0.3640
   14MOL   H334 5300   0.837   6.649   4.407  0.1077  0.2489  0.4055
   14MOL   H335 5301   0.928   6.899   4.257  1.2231  1.0330  4.0081
   14MOL   H336 5302   0.759   6.945   4.095  1.6735  0.3818 -0.7439
   14MOL   H337 5303   0.677   6.703   3.932  0.1255 -0.4667  2.1213
   14MOL   H338 5304   0.885   6.835   3.853  0.3578  0.5458 -0.7768
   14MOL   H339 5305   0.754   6.826   3.745 -0.6602  0.7975 -0.1102
   14MOL   H340 5306   0.789   6.971   3.841  0.9087 -0.8943 -1.7456
   14MOL   H341 5307   0.496   6.827   3.865  1.4365 -2.4154 -0.8151
   14MOL   H342 5308   0.541   6.974   3.956  1.9375  0.0190 -0.2658
   14MOL   H343 5309   0.481   6.835   4.045 -1.1768  1.1373 -1.7510
   14MOL   C344 5310   0.762   6.940   4.382  0.2070 -0.1201 -0.0131
   14MOL   C345 5311   0.826   7.078   4.414  0.4138  0.3790 -0.1625
   14MOL   C346 5312   0.864   7.154   4.286 -0.0934 -0.8337 -0.0668
   14MOL   O347 5313   0.773   7.175   4.204 -0.4557 -0.3490  0.3786
   14MOL   N348 5314   0.996   7.182   4.275  0.1524  0.4745  0.3609
   14MOL   C349 5315   1.057   7.242   4.151 -0.2532  0.1705 -0.9526
   14MOL   C350 5316   1.036   7.394   4.156  0.1504 -0.0065  0.0413
   14MOL   C351 5317   1.200   7.190   4.136  0.1691  0.4281 -1.0016
   14MOL   H352 5318   0.723   6.891   4.472  2.0386 -1.6700 -0.0246
   14MOL   H353 5319   0.672   6.967   4.328 -1.2423 -1.1117  1.8302
   14MOL   H354 5320   0.916   7.058   4.472  0.7357  1.5702 -0.2411
   14MOL   H355 5321   1.059   7.139   4.341 -1.0518 -1.3636  0.3596
   14MOL   H356 5322   0.999   7.205   4.066 -0.3540 -1.2343 -0.2817
   14MOL   H357 5323   1.064   7.441   4.062  0.8846  3.6755  2.0144
   14MOL   H358 5324   0.936   7.425   4.186  0.5034  2.0224 -0.7915
   14MOL   H359 5325   1.098   7.444   4.231  0.5859 -2.2199  1.2221
   14MOL   H360 5326   1.244   7.233   4.046  0.8292 -0.7548 -1.2584
   14MOL   H361 5327   1.272   7.208   4.215  2.1945  0.2181 -2.7763
   14MOL   H362 5328   1.194   7.081   4.141  1.7738  0.2056 -3.2744
   14MOL   C363 5329   0.728   7.163   4.505  0.4510 -0.7577 -0.5236
   14MOL   C364 5330   0.582   7.180   4.456  0.3828 -0.0478  0.5776
   14MOL   C365 5331   0.479   7.072   4.508  0.1984 -0.1100  0.6521
   14MOL   O366 5332   0.468   7.038   4.624  0.2244 -0.5656 -0.3287
   14MOL   N367 5333   0.397   7.027   4.408 -0.5268 -0.0379  0.2006
   14MOL   C368 5334   0.288   6.936   4.431 -0.1659  0.1233  0.0895
   14MOL   C369 5335   0.157   7.009   4.398 -0.9259 -0.1809 -0.2300
   14MOL   C370 5336   0.306   6.800   4.357 -0.8659  0.0882  0.6203
   14MOL   H371 5337   0.782   7.258   4.501 -0.5666 -0.2030 -1.3878
   14MOL   H372 5338   0.729   7.122   4.606  1.8326 -0.0303 -0.2314
   14MOL   H373 5339   0.573   7.196   4.349 -0.4780 -0.6287  0.5632
   14MOL   H374 5340   0.416   7.050   4.311  0.6476 -2.7469 -0.2742
   14MOL   H375 5341   0.284   6.917   4.538 -0.8079 -0.1905  0.0129
   14MOL   H376 5342   0.142   7.097   4.459  0.9873  1.2018 -1.6895
   14MOL   H377 5343   0.165   7.035   4.292 -1.7608 -0.2509 -0.3084
   14MOL   H378 5344   0.074   6.941   4.417 -0.0502 -0.8017  1.5228
   14MOL   H379 5345   0.305   6.826   4.251  0.4156  0.7294  0.7552
   14MOL   H380 5346   0.400   6.751   4.382 -0.5916  0.6941  0.7799
   14MOL   H381 5347   0.222   6.736   4.384  1.9086 -2.9761  2.2971
   14MOL   H382 5348   0.551   7.271   4.508 -1.5531 -0.9389  1.0060
   15MOL     C1 5349   0.739   7.250   3.865 -0.1181  0.0232 -0.3709
   15MOL     C2 5350   0.596   7.284   3.802 -1.1414  0.0482 -0.3154
   15MOL     C3 5351   0.611   7.418   3.722 -0.8000 -0.1411  0.2902
   15MOL     O4 5352   0.697   7.435   3.631  0.4469  0.4081 -0.3738
   15MOL     N5 5353   0.530   7.514   3.769  0.1237  0.1914 -0.1003
   15MOL     C6 5354   0.542   7.655   3.746  0.3961  0.5335  0.3578
   15MOL     C7 5355   0.458   7.695   3.623  0.4250  0.2699  0.4913
   15MOL     C8 5356   0.497   7.725   3.870  0.3802 -0.4438 -0.8859
   15MOL     H9 5357   0.816   7.234   3.790 -0.0895  0.4488 -0.4318
   15MOL    H10 5358   0.731   7.168   3.937 -0.2252  1.0583  0.8188
   15MOL    H11 5359   0.521   7.285   3.880  0.6746  1.2997  1.4814
   15MOL    H12 5360   0.456   7.481   3.830  0.6632  1.1286  1.0659
   15MOL    H13 5361   0.644   7.678   3.719  0.5219 -0.8792 -0.4109
   15MOL    H14 5362   0.494   7.660   3.526 -0.6832 -1.0703  0.5451
   15MOL    H15 5363   0.464   7.803   3.614 -0.2926  0.3468  0.9757
   15MOL    H16 5364   0.356   7.658   3.620  0.9375 -1.0976 -2.5773
   15MOL    H17 5365   0.525   7.830   3.859 -0.3335 -0.3061 -1.3986
   15MOL    H18 5366   0.390   7.706   3.866  0.1765  0.5390 -0.2314
   15MOL    H19 5367   0.540   7.690   3.964  2.2753  0.0150 -1.5600
   15MOL    H20 5368   0.767   7.336   3.924  1.7367 -0.8818  0.0915
   15MOL    C21 5369   0.549   7.168   3.709  0.0128  0.4421  0.3728
   15MOL    C22 5370   0.413   7.183   3.631 -0.3494 -0.2754 -0.2362
   15MOL    C23 5371   0.293   7.236   3.719  0.3252  0.7360 -0.3197
   15MOL    O24 5372   0.248   7.162   3.810  0.5910  0.2781  0.3033
   15MOL    N25 5373   0.237   7.346   3.687 -0.3201 -0.4624 -0.2440
   15MOL    C26 5374   0.115   7.391   3.750 -0.6062  0.3608  0.4938
   15MOL    C27 5375   7.830   7.326   3.675  0.4514  0.4268  0.3092
   15MOL    C28 5376   0.112   7.548   3.743  0.2307 -0.4220  0.2835
   15MOL    H29 5377   0.537   7.077   3.768  1.6009 -0.5708 -0.8432
   15MOL    H30 5378   0.618   7.170   3.625 -0.9256  1.6777 -0.3926
   15MOL    H31 5379   0.417   7.265   3.559  1.1309  0.9903  1.2737
   15MOL    H32 5380   0.287   7.407   3.623 -0.0851  0.0013  0.3858
   15MOL    H33 5381   0.115   7.363   3.855 -1.8835 -1.5632  0.0305
   15MOL    H34 5382   7.732   7.367   3.700 -0.5943 -1.2818 -0.8779
   15MOL    H35 5383   7.821   7.218   3.680  1.6970  0.1515 -2.4702
   15MOL    H36 5384   0.005   7.323   3.567 -0.8466  0.8649  0.1485
   15MOL    H37 5385   0.144   7.588   3.646 -2.6709  0.0351 -0.5308
   15MOL    H38 5386   0.019   7.584   3.787 -0.5521 -0.2055 -1.5045
   15MOL    H39 5387   0.188   7.578   3.816  1.4623 -2.9548  0.0883
   15MOL    C40 5388   0.387   7.049   3.547 -0.0369 -0.0058  0.7635
   15MOL    C41 5389   0.247   7.002   3.506  0.3057 -0.9354  0.0614
   15MOL    C42 5390   0.192   6.892   3.595  0.1556  0.3006  0.1355
   15MOL    O43 5391   0.176   6.775   3.555  0.9967 -0.0194 -0.2550
   15MOL    N44 5392   0.155   6.925   3.716 -0.6740  0.4721 -0.0497
   15MOL    C45 5393   0.071   6.847   3.809  0.3385 -0.2657 -0.4479
   15MOL    C46 5394   0.088   6.903   3.949  0.1521 -0.0541  0.5697
   15MOL    C47 5395   7.757   6.857   3.762 -0.2424  0.1704  0.4967
   15MOL    H48 5396   0.426   6.965   3.605  1.6453 -0.6715 -1.2700
   15MOL    H49 5397   0.448   7.054   3.457  1.6176 -0.7771  1.8270
   15MOL    H50 5398   0.169   7.075   3.524  0.1856 -0.9700 -0.3232
   15MOL    H51 5399   0.170   7.022   3.738 -1.1362  0.7266 -0.8229
   15MOL    H52 5400   0.097   6.741   3.817 -0.2626 -0.4602 -0.9937
   15MOL    H53 5401   0.180   6.868   3.997  0.7005 -0.9725 -1.1190
   15MOL    H54 5402   0.008   6.868   4.014  0.4530 -1.9720 -0.0751
   15MOL    H55 5403   0.097   7.012   3.941 -1.2144  0.0840  0.8851
   15MOL    H56 5404   7.690   6.807   3.832  0.7310 -0.4195  1.0150
   15MOL    H57 5405   7.750   6.825   3.658  1.0256  1.0510  0.1301
   15MOL    H58 5406   7.714   6.957   3.773  0.1560  0.4267 -0.2837
   15MOL    C59 5407   0.255   6.959   3.356 -0.9987  0.4926  0.2251
   15MOL    C60 5408   0.260   7.078   3.260 -0.5718  0.5242  0.8594
   15MOL    C61 5409   0.130   7.161   3.262 -0.0733  0.2208 -0.5358
   15MOL    O62 5410   0.120   7.270   3.324  0.3444 -0.4248 -0.1363
   15MOL    N63 5411   0.025   7.118   3.185  0.3450 -0.0160  0.2480
   15MOL    C64 5412   7.733   7.189   3.154  0.4877  0.1210  0.8116
   15MOL    C65 5413   7.766   7.263   3.022  0.0287 -0.0036 -0.5328
   15MOL    C66 5414   7.629   7.084   3.130 -0.6703 -0.5580  0.0932
   15MOL    H67 5415   0.342   6.894   3.343 -0.9327  0.9987 -2.2184
   15MOL    H68 5416   0.170   6.894   3.333 -0.4738 -0.1590  0.0976
   15MOL    H69 5417   0.340   7.143   3.297  2.8886 -2.4964 -0.9901
   15MOL    H70 5418   0.042   7.033   3.134  0.3090  0.4261 -0.5103
   15MOL    H71 5419   7.705   7.260   3.231 -2.1652  0.8951 -0.8224
   15MOL    H72 5420   7.787   7.190   2.944  0.2452 -0.6766  0.1432
   15MOL    H73 5421   7.699   7.341   2.985  2.6416  1.7914 -1.6135
   15MOL    H74 5422   0.023   7.317   3.040 -1.2201  1.9381  0.2369
   15MOL    H75 5423   7.641   7.041   3.031  1.5011  0.6650 -0.2076
   15MOL    H76 5424   7.637   6.998   3.197  0.5078 -1.3186 -1.0030
   15MOL    H77 5425   7.529   7.128   3.134 -0.6794 -0.6913  1.5572
   15MOL    C78 5426   0.319   7.040   3.120 -0.5417  0.5016 -0.1301
   15MOL    C79 5427   0.325   7.157   3.016 -0.9818  0.5640 -0.3981
   15MOL    C80 5428   0.411   7.274   3.063 -0.1795 -0.2283 -0.2345
   15MOL    O81 5429   0.527   7.252   3.100  0.7814 -0.3353  0.0554
   15MOL    N82 5430   0.355   7.393   3.072 -0.4525  0.6449  0.3517
   15MOL    C83 5431   0.430   7.517   3.086 -0.1790  0.4132 -0.1235
   15MOL    C84 5432   0.393   7.614   2.977 -0.2330  0.0181 -0.4090
   15MOL    C85 5433   0.433   7.585   3.228 -0.4266 -0.3937 -0.5192
   15MOL    H86 5434   0.257   6.961   3.078  0.8512 -1.1656  0.9063
   15MOL    H87 5435   0.423   7.011   3.128 -0.7784 -0.5294 -0.7202
   15MOL    H88 5436   0.220   7.187   3.015 -1.0924  0.2081  0.1219
   15MOL    H89 5437   0.261   7.403   3.037 -0.6996 -1.7873  0.2851
   15MOL    H90 5438   0.536   7.500   3.070  0.0348  0.0433  1.5957
   15MOL    H91 5439   0.285   7.618   2.967 -0.3566 -1.7689  0.0087
   15MOL    H92 5440   0.436   7.709   3.007  1.6084 -1.0186  0.3193
   15MOL    H93 5441   0.430   7.599   2.876  0.5223  3.2189 -0.6646
   15MOL    H94 5442   0.327   7.611   3.234 -0.4259 -0.4981 -0.0614
   15MOL    H95 5443   0.503   7.668   3.229 -1.5765  0.5862 -0.9744
   15MOL    H96 5444   0.453   7.511   3.306 -2.1388 -0.9960 -0.6235
   15MOL    C97 5445   0.366   7.108   2.877  0.1237 -0.3793  0.2502
   15MOL    C98 5446   0.339   7.209   2.767  0.9556 -0.4857 -0.2667
   15MOL    C99 5447   0.190   7.219   2.733 -0.0222 -0.2145  0.3180
   15MOL   O100 5448   0.110   7.121   2.756 -0.3728 -0.1705 -0.4013
   15MOL   N101 5449   0.149   7.332   2.678  0.4997 -0.0698  0.1784
   15MOL   C102 5450   0.010   7.373   2.654  0.1904 -0.2210  0.0212
   15MOL   C103 5451   0.002   7.512   2.725  0.2655 -0.4581 -0.0780
   15MOL   C104 5452   7.820   7.375   2.503  0.2408  0.3189 -0.0401
   15MOL   H105 5453   0.307   7.020   2.851 -1.1100  0.2763  0.7517
   15MOL   H106 5454   0.468   7.072   2.882 -0.2403 -1.6572 -1.2135
   15MOL   H107 5455   0.369   7.306   2.807 -0.2500  0.0917 -0.7328
   15MOL   H108 5456   0.213   7.407   2.655 -3.5328  2.6305 -2.8933
   15MOL   H109 5457   7.781   7.298   2.699  0.1585  0.5608  1.3092
   15MOL   H110 5458   7.835   7.507   2.833  2.7430  3.8589  0.3234
   15MOL   H111 5459   0.101   7.558   2.715 -0.0633  1.1429  3.4739
   15MOL   H112 5460   7.765   7.581   2.685  1.5256  0.1689 -1.3771
   15MOL   H113 5461   0.034   7.464   2.464  0.7001  0.5074  0.9709
   15MOL   H114 5462   7.712   7.388   2.494  0.1662  1.8080  2.5041
   15MOL   H115 5463   7.834   7.283   2.446  1.2422 -0.1117  0.8642
   15MOL   C116 5464   0.438   7.199   2.645  0.2998 -0.1379 -0.2906
   15MOL   C117 5465   0.410   7.093   2.536 -0.0465  0.6864 -0.6621
   15MOL   C118 5466   0.390   6.947   2.592  0.7927 -0.4150  0.3866
   15MOL   O119 5467   0.482   6.895   2.654  0.7448  0.1497 -0.3383
   15MOL   N120 5468   0.265   6.903   2.578  0.1258  0.0248 -0.3381
   15MOL   C121 5469   0.214   6.780   2.624 -0.5053  0.4391  0.1088
   15MOL   C122 5470   0.125   6.801   2.747 -0.2844 -0.2955  0.2343
   15MOL   C123 5471   0.123   6.711   2.515  0.8356 -0.1672  0.3530
   15MOL   H124 5472   0.540   7.192   2.683 -0.7852 -0.9024  2.6206
   15MOL   H125 5473   0.428   7.298   2.599  0.8096 -0.4711 -1.1209
   15MOL   H126 5474   0.313   7.121   2.496 -0.6922  0.0805  0.4505
   15MOL   H127 5475   0.198   6.974   2.552 -1.1236 -0.5067  1.3385
   15MOL   H128 5476   0.295   6.718   2.663 -1.8418 -0.7407  1.0743
   15MOL   H129 5477   0.046   6.868   2.712 -0.7794 -0.7663  0.4444
   15MOL   H130 5478   0.163   6.840   2.842 -0.4525  1.5767 -0.4421
   15MOL   H131 5479   0.066   6.713   2.771 -2.7097  0.4763 -2.5994
   15MOL   H132 5480   0.180   6.722   2.423  0.4188  1.3749  0.2591
   15MOL   H133 5481   0.111   6.606   2.544 -1.8880  0.3303  1.1734
   15MOL   H134 5482   0.029   6.765   2.507  0.8349 -0.3045 -0.5509
   15MOL   C135 5483   0.524   7.097   2.427  0.4254  0.4922  0.5552
   15MOL   C136 5484   0.669   7.035   2.440 -0.2505  0.6320 -0.4036
   15MOL   C137 5485   0.760   7.062   2.566  0.2545 -0.7196  0.0840
   15MOL   O138 5486   0.872   7.106   2.541  0.4547  0.3014  0.3933
   15MOL   N139 5487   0.719   7.014   2.684 -0.1717  0.3533  0.2356
   15MOL   C140 5488   0.791   7.031   2.809 -0.2793 -0.2825 -0.6767
   15MOL   C141 5489   0.746   6.927   2.909 -0.4683 -0.5616 -0.7052
   15MOL   C142 5490   0.777   7.179   2.862 -0.0175  0.4710  0.5533
   15MOL   H143 5491   0.543   7.204   2.424 -1.5021  0.8470  0.4001
   15MOL   H144 5492   0.489   7.064   2.329  1.7145 -0.1735  0.3155
   15MOL   H145 5493   0.716   7.088   2.358  0.0870  2.1011  0.7187
   15MOL   H146 5494   0.625   6.977   2.682 -0.6292  1.5713 -1.3739
   15MOL   H147 5495   0.896   7.019   2.781 -1.2253  0.6906 -5.0107
   15MOL   H148 5496   0.756   6.822   2.881 -0.4850 -0.9692  0.7529
   15MOL   H149 5497   0.799   6.959   2.999 -0.9594  0.0468 -0.6328
   15MOL   H150 5498   0.638   6.935   2.918 -0.3860 -0.9812  0.7497
   15MOL   H151 5499   0.843   7.217   2.939 -0.4080  1.5141  0.3835
   15MOL   H152 5500   0.675   7.188   2.898  0.0153 -1.0476  1.0644
   15MOL   H153 5501   0.790   7.249   2.779  0.2618  1.0386  1.0762
   15MOL   C154 5502   0.682   6.883   2.394  0.4979 -0.0640  0.1568
   15MOL   C155 5503   0.819   6.841   2.346  0.0321  0.2519  0.0592
   15MOL   C156 5504   0.871   6.925   2.230  0.1173 -1.7073  0.0517
   15MOL   O157 5505   0.847   6.902   2.112  0.0119 -0.3948  0.1259
   15MOL   N158 5506   0.957   7.025   2.264  0.4288  0.3687  0.4994
   15MOL   C159 5507   1.027   7.118   2.170 -0.3636  0.4103 -0.2248
   15MOL   C160 5508   1.138   7.063   2.087 -0.5088  0.1584  0.0350
   15MOL   C161 5509   1.082   7.231   2.252 -0.0495 -0.1927 -0.0075
   15MOL   H162 5510   0.608   6.871   2.315  0.4459  0.8948  0.0590
   15MOL   H163 5511   0.655   6.819   2.478  1.1318 -0.2316  0.2400
   15MOL   H164 5512   0.892   6.851   2.427 -0.9803 -0.2582  1.0429
   15MOL   H165 5513   0.974   7.031   2.363  1.4016 -0.7396  0.4030
   15MOL   H166 5514   0.952   7.158   2.102 -0.4094 -0.4776 -0.7053
   15MOL   H167 5515   1.221   7.024   2.146  1.7160  0.4008 -2.8247
   15MOL   H168 5516   1.100   6.970   2.044 -0.3478  0.3632 -0.5504
   15MOL   H169 5517   1.167   7.137   2.013 -0.9068  1.3700  1.0802
   15MOL   H170 5518   0.997   7.281   2.299 -0.6476 -0.7248 -0.5318
   15MOL   H171 5519   1.135   7.307   2.196 -0.8369 -0.5012 -1.1751
   15MOL   H172 5520   1.145   7.196   2.334 -0.4762  1.0121  0.8515
   15MOL   C173 5521   0.813   6.691   2.318 -0.3193 -0.3985  0.7010
   15MOL   C174 5522   0.943   6.615   2.285 -0.1668 -0.4202  0.0319
   15MOL   C175 5523   1.044   6.620   2.401  0.5332  0.0671 -0.4351
   15MOL   O176 5524   1.046   6.536   2.492 -0.0443  0.1005  0.1565
   15MOL   N177 5525   1.117   6.731   2.408 -0.1057  0.5230 -0.3050
   15MOL   C178 5526   1.220   6.758   2.505 -0.3661 -0.5309  0.0239
   15MOL   C179 5527   1.167   6.835   2.625  0.3234  0.2983  0.0084
   15MOL   C180 5528   1.339   6.837   2.440 -0.2842  0.6908  0.2189
   15MOL   H181 5529   0.741   6.685   2.237 -1.5569 -0.0614  1.7541
   15MOL   H182 5530   0.772   6.643   2.407 -0.5212  1.3463  1.5717
   15MOL   H183 5531   0.990   6.668   2.202 -0.2464  0.2071  0.3867
   15MOL   H184 5532   1.097   6.805   2.342  0.4539  0.7847 -0.1862
   15MOL   H185 5533   1.260   6.662   2.540  2.0529 -0.5322 -2.5396
   15MOL   H186 5534   1.247   6.829   2.699 -0.0474  0.1420  0.3993
   15MOL   H187 5535   1.082   6.784   2.669 -0.4713  1.7880  0.2530
   15MOL   H188 5536   1.141   6.938   2.602 -0.1561  0.2923  0.5058
   15MOL   H189 5537   1.315   6.943   2.434  2.0260  1.2013 -0.3303
   15MOL   H190 5538   1.368   6.785   2.349 -0.0303 -2.5899  2.0834
   15MOL   H191 5539   1.420   6.842   2.512 -0.9341  2.4214  0.8601
   15MOL   C192 5540   0.920   6.471   2.239  0.5317 -0.4555 -0.4009
   15MOL   C193 5541   1.043   6.395   2.175 -0.1625 -0.2466 -0.5529
   15MOL   C194 5542   1.106   6.470   2.056  0.7681 -0.7268  0.1912
   15MOL   O195 5543   1.030   6.503   1.970  0.5414  0.3064  0.3037
   15MOL   N196 5544   1.236   6.496   2.057  0.6860  0.3774 -0.0136
   15MOL   C197 5545   1.310   6.593   1.974  0.0487 -0.1560 -1.2196
   15MOL   C198 5546   1.374   6.703   2.066  0.4106 -0.7043 -0.0585
   15MOL   C199 5547   1.416   6.529   1.882 -0.5693 -0.0777 -0.1875
   15MOL   H200 5548   0.834   6.451   2.176  0.1662 -0.0917 -0.0264
   15MOL   H201 5549   0.897   6.423   2.334  0.0862  0.5557  0.0156
   15MOL   H202 5550   1.121   6.394   2.251 -0.6029  0.2431 -0.0891
   15MOL   H203 5551   1.276   6.477   2.148  0.6431  1.5520  0.2638
   15MOL   H204 5552   1.245   6.648   1.906 -0.0027  1.4693  0.0966
   15MOL   H205 5553   1.295   6.758   2.117  2.0091  0.0741  1.6338
   15MOL   H206 5554   1.450   6.772   2.030  2.4712 -1.7182  2.2469
   15MOL   H207 5555   1.442   6.647   2.131 -1.0065 -2.2537  0.1356
   15MOL   H208 5556   1.457   6.604   1.815 -1.6079  2.0676  1.5032
   15MOL   H209 5557   1.363   6.454   1.824 -0.5026 -0.9255  0.8330
   15MOL   H210 5558   1.504   6.487   1.931 -1.0624 -2.5621 -1.3675
   15MOL   C211 5559   1.010   6.241   2.147  0.3903 -0.1255 -0.5470
   15MOL   C212 5560   0.920   6.210   2.023  0.6106  0.0715  0.3077
   15MOL   C213 5561   0.988   6.180   1.892  0.0210  0.0680  0.2749
   15MOL   O214 5562   1.047   6.075   1.879 -0.7489  0.1714  0.3372
   15MOL   N215 5563   0.967   6.270   1.791  0.2710  0.0824 -0.5702
   15MOL   C216 5564   1.023   6.249   1.655 -0.0991  0.6020 -0.0935
   15MOL   C217 5565   1.092   6.384   1.605 -0.1279 -0.1292  0.6593
   15MOL   C218 5566   0.909   6.211   1.559  0.8884 -1.0210 -0.1057
   15MOL   H219 5567   0.964   6.207   2.240 -1.1985 -0.3525 -1.3912
   15MOL   H220 5568   1.102   6.182   2.148 -0.3298 -1.2579  0.3773
   15MOL   H221 5569   0.860   6.297   1.997 -3.0992 -2.4535  0.0118
   15MOL   H222 5570   0.925   6.358   1.815  0.3381 -0.6733  2.4798
   15MOL   H223 5571   1.095   6.167   1.662  0.4505  1.2232  2.0716
   15MOL   H224 5572   1.152   6.350   1.520  0.6065 -0.0738  1.1461
   15MOL   H225 5573   1.015   6.457   1.583  1.3120  1.1787 -0.1259
   15MOL   H226 5574   1.154   6.416   1.689  1.6195  1.2825 -1.1165
   15MOL   H227 5575   0.858   6.117   1.578  1.5603 -1.8660 -2.3324
   15MOL   H228 5576   0.961   6.179   1.469  1.2127 -0.6632 -0.0473
   15MOL   H229 5577   0.837   6.289   1.535 -1.5485 -2.0667  3.4724
   15MOL   C230 5578   0.817   6.087   2.056  0.4506 -0.1712 -0.2449
   15MOL   C231 5579   0.689   6.107   2.137  0.4165 -0.0804 -0.1869
   15MOL   C232 5580   0.601   6.217   2.077  0.5520  0.2971  0.6851
   15MOL   O233 5581   0.533   6.200   1.978 -0.3320  0.2915 -0.3609
   15MOL   N234 5582   0.585   6.318   2.163 -0.0610  0.0507  0.0872
   15MOL   C235 5583   0.499   6.425   2.138  0.3462  0.2118 -0.3988
   15MOL   C236 5584   0.466   6.489   2.274  0.6266 -0.5562  1.0561
   15MOL   C237 5585   0.543   6.517   2.019 -1.4224  0.5669  0.0320
   15MOL   H238 5586   0.873   5.997   2.083 -0.2172 -0.1466  1.2870
   15MOL   H239 5587   0.784   6.064   1.955 -0.9255 -0.9763  0.3765
   15MOL   H240 5588   0.733   6.136   2.232  2.2782 -1.4989 -0.5803
   15MOL   H241 5589   0.638   6.311   2.248  1.1575  1.0221 -0.5930
   15MOL   H242 5590   0.400   6.388   2.111  0.4729 -0.4816  0.0834
   15MOL   H243 5591   0.549   6.543   2.320  2.4198  0.8852 -3.6353
   15MOL   H244 5592   0.379   6.554   2.276  1.2730  0.4205 -1.5087
   15MOL   H245 5593   0.447   6.405   2.341  0.7330 -0.9575  0.5847
   15MOL   H246 5594   0.492   6.483   1.929  0.6767 -1.9671 -0.2363
   15MOL   H247 5595   0.647   6.508   1.989 -1.3113 -1.6467  0.9805
   15MOL   H248 5596   0.533   6.624   2.042  1.1165  0.8234  0.0048
   15MOL   C249 5597   0.611   5.973   2.162  0.4852  0.3626  0.0004
   15MOL   C250 5598   0.516   5.965   2.286  0.1312  0.0225 -0.0618
   15MOL   C251 5599   0.379   6.023   2.258  0.3718  0.3903  0.4353
   15MOL   O252 5600   0.335   6.105   2.335  0.4022 -0.1598  0.4539
   15MOL   N253 5601   0.306   5.985   2.148 -0.2124 -0.0102 -0.0997
   15MOL   C254 5602   0.188   6.064   2.101 -0.3332  0.3872  0.2620
   15MOL   C255 5603   0.221   6.136   1.975  0.0218 -0.3600 -0.2297
   15MOL   C256 5604   0.068   5.975   2.074 -0.2102 -0.0027 -0.4334
   15MOL   H257 5605   0.673   5.884   2.174  1.3560  0.9272 -0.2986
   15MOL   H258 5606   0.564   5.949   2.067  0.8702  0.1503 -0.1366
   15MOL   H259 5607   0.489   5.860   2.287  2.4702 -0.6012 -0.4929
   15MOL   H260 5608   0.344   5.906   2.099 -1.4666 -0.5257 -0.2421
   15MOL   H261 5609   0.158   6.126   2.185  0.0486  0.2234  0.5242
   15MOL   H262 5610   0.278   6.066   1.914 -0.7229 -3.2396  2.2656
   15MOL   H263 5611   0.141   6.175   1.911 -0.3862  1.5679  1.4129
   15MOL   H264 5612   0.274   6.229   1.991 -1.5683  1.1734 -3.2910
   15MOL   H265 5613   7.805   6.017   2.093  0.7710  1.8624  0.7211
   15MOL   H266 5614   0.065   5.951   1.967 -1.6785  0.1698 -0.4378
   15MOL   H267 5615   0.079   5.883   2.131 -0.1208 -0.9117 -1.8852
   15MOL   C268 5616   0.568   5.991   2.427  0.9433  0.4730 -0.2610
   15MOL   C269 5617   0.683   5.899   2.476 -0.9360 -0.1065  0.2570
   15MOL   C270 5618   0.737   5.959   2.611 -0.7779  0.0632 -0.4463
   15MOL   O271 5619   0.669   6.033   2.684 -0.0175  0.2413  0.1175
   15MOL   N272 5620   0.869   5.946   2.639  0.4425  0.2683 -0.5094
   15MOL   C273 5621   0.956   6.006   2.739 -0.0903  0.5087  0.3673
   15MOL   C274 5622   0.911   5.969   2.884  0.4397  0.4491  0.2844
   15MOL   C275 5623   1.101   5.954   2.730  0.2108  0.5334  0.8896
   15MOL   H276 5624   0.584   6.099   2.440 -0.1134  0.5802  0.2359
   15MOL   H277 5625   0.484   5.974   2.495 -0.2092 -1.3239 -2.0754
   15MOL   H278 5626   0.761   5.921   2.403  0.1133 -3.2551  0.3288
   15MOL   H279 5627   0.919   5.885   2.575 -1.2109  0.6621 -2.2238
   15MOL   H280 5628   0.962   6.114   2.731  2.0883  0.3422 -0.5096
   15MOL   H281 5629   0.983   5.992   2.962 -0.3109  1.5670  0.6465
   15MOL   H282 5630   0.815   6.016   2.906 -0.8275 -0.0295 -3.6532
   15MOL   H283 5631   0.898   5.861   2.895  1.4988  0.2064 -0.6847
   15MOL   H284 5632   1.093   5.845   2.733 -2.2387  0.6335 -0.4565
   15MOL   H285 5633   1.151   5.993   2.641 -0.7286  0.2087  0.2086
   15MOL   H286 5634   1.153   5.984   2.820  0.8395  1.6208  0.1738
   15MOL   C287 5635   0.651   5.749   2.516  0.5205  0.4753  0.0477
   15MOL   C288 5636   0.748   5.641   2.446 -0.4492 -0.3827  1.1495
   15MOL   C289 5637   0.895   5.654   2.492 -0.1069 -0.3511  0.3417
   15MOL   O290 5638   0.963   5.753   2.466 -0.3719 -0.0174  0.4242
   15MOL   N291 5639   0.943   5.549   2.553  0.0751  0.5414  0.4355
   15MOL   C292 5640   1.069   5.543   2.619  0.4070 -0.0547 -0.2900
   15MOL   C293 5641   1.044   5.530   2.770 -0.6240  0.2175  0.0097
   15MOL   C294 5642   1.158   5.421   2.566 -1.0272 -0.3056 -0.3073
   15MOL   H295 5643   0.640   5.721   2.621 -1.0924 -0.3789 -0.3266
   15MOL   H296 5644   0.553   5.720   2.478  1.1304 -1.9090  0.2467
   15MOL   H297 5645   0.719   5.546   2.490 -1.4052 -0.9599 -0.6943
   15MOL   H298 5646   0.886   5.465   2.549 -1.6647  1.6295  1.7379
   15MOL   H299 5647   1.124   5.637   2.615 -0.7636  0.7380  1.2484
   15MOL   H300 5648   0.989   5.439   2.793  0.9463 -0.4584  1.1874
   15MOL   H301 5649   1.140   5.552   2.818  1.5441  0.7448 -4.3290
   15MOL   H302 5650   0.985   5.620   2.792 -0.2577  0.7546 -1.1802
   15MOL   H303 5651   1.096   5.336   2.535 -0.2170 -1.0418  0.0529
   15MOL   H304 5652   1.209   5.457   2.477 -0.7328  2.4436  0.9402
   15MOL   H305 5653   1.241   5.397   2.633 -0.1490  1.1605 -0.8536
   15MOL   C306 5654   0.737   5.638   2.292 -0.7704  0.2300 -0.2225
   15MOL   C307 5655   0.805   5.516   2.217 -0.8684 -0.4346  0.0228
   15MOL   C308 5656   0.843   5.555   2.072  0.8027 -0.5818  1.1024
   15MOL   O309 5657   0.749   5.585   1.988 -0.3762 -0.2386 -0.3813
   15MOL   N310 5658   0.971   5.562   2.036  0.1751 -0.5732 -0.1899
   15MOL   C311 5659   1.014   5.565   1.895 -0.2314  0.1076  0.5350
   15MOL   C312 5660   1.059   5.704   1.849  0.3391 -0.1923  0.0599
   15MOL   C313 5661   1.122   5.462   1.870  0.7289 -0.2456  0.3560
   15MOL   H314 5662   0.634   5.663   2.265 -0.3028  2.7051  0.1084
   15MOL   H315 5663   0.788   5.725   2.250  0.3484  0.2859  1.2211
   15MOL   H316 5664   0.899   5.486   2.263 -0.9606 -0.5442  0.1432
   15MOL   H317 5665   1.045   5.555   2.104  0.7874  1.8610 -0.5756
   15MOL   H318 5666   0.926   5.534   1.839  0.6877 -0.4628 -0.6157
   15MOL   H319 5667   0.978   5.776   1.860  1.4480  1.0998 -0.1383
   15MOL   H320 5668   1.093   5.696   1.746 -2.5736 -1.4803 -0.8373
   15MOL   H321 5669   1.148   5.738   1.903 -2.2988  1.1975  3.7573
   15MOL   H322 5670   1.090   5.358   1.873  1.1317 -0.3328  1.8597
   15MOL   H323 5671   1.203   5.469   1.943 -0.4887  0.3691  1.6478
   15MOL   H324 5672   1.167   5.469   1.771 -0.2886 -2.4857 -0.2895
   15MOL   C325 5673   0.713   5.392   2.216 -0.5345  0.2606 -0.3832
   15MOL   C326 5674   0.785   5.260   2.246  0.1890  0.2468 -0.0729
   15MOL   C327 5675   0.851   5.235   2.385 -0.0040 -0.5192 -0.8490
   15MOL   O328 5676   0.835   5.322   2.477  0.5402  0.2580  0.4544
   15MOL   N329 5677   0.915   5.117   2.405 -1.0121  0.6900 -0.5885
   15MOL   C330 5678   0.950   5.056   2.536 -0.0754 -0.2970 -0.3947
   15MOL   C331 5679   1.007   4.915   2.514 -0.3880 -0.5728  0.1661
   15MOL   C332 5680   0.821   5.040   2.626 -0.2443 -0.0672  0.2053
   15MOL   H333 5681   0.674   5.378   2.116  1.7796 -1.5612 -1.0748
   15MOL   H334 5682   0.633   5.412   2.287 -0.7395 -0.9789 -0.2550
   15MOL   H335 5683   0.873   5.253   2.181  0.3771 -3.7158  0.4935
   15MOL   H336 5684   0.901   5.050   2.330 -2.1201  1.0505 -0.7123
   15MOL   H337 5685   1.036   5.100   2.585 -0.4447  0.3941 -0.3572
   15MOL   H338 5686   1.032   4.888   2.616  1.0974  2.7532  0.7379
   15MOL   H339 5687   0.925   4.850   2.483 -1.4860  0.8448  0.0135
   15MOL   H340 5688   1.090   4.892   2.447  0.1096 -2.1434  1.3108
   15MOL   H341 5689   0.836   5.004   2.727 -0.1796  0.9072  0.5547
   15MOL   H342 5690   0.745   4.984   2.572 -0.1258  0.1904 -0.2371
   15MOL   H343 5691   0.777   5.137   2.651  1.3996  0.4786  1.0195
   15MOL   C344 5692   0.709   5.138   2.199  0.4121  0.1911  0.2551
   15MOL   C345 5693   0.740   5.080   2.055 -0.4987 -0.2020 -0.1693
   15MOL   C346 5694   0.861   4.987   2.067  0.3869  0.8651 -0.6159
   15MOL   O347 5695   0.895   4.931   2.172  0.0355 -0.3176 -0.2386
   15MOL   N348 5696   0.926   4.964   1.951 -1.1837  0.4070 -0.0881
   15MOL   C349 5697   1.046   4.883   1.936 -0.2206  0.5790  0.3620
   15MOL   C350 5698   1.010   4.748   1.877 -0.0692  0.0811  0.2035
   15MOL   C351 5699   1.145   4.963   1.849 -0.3239  0.1214 -0.3864
   15MOL   H352 5700   0.606   5.171   2.203  0.1062 -0.9661  2.1922
   15MOL   H353 5701   0.716   5.051   2.264  0.5998 -0.1633 -0.2378
   15MOL   H354 5702   0.746   5.162   1.984 -1.2405 -1.1126 -1.2984
   15MOL   H355 5703   0.883   5.002   1.868 -2.6642 -1.0626 -0.0253
   15MOL   H356 5704   1.103   4.883   2.029  0.8915 -1.0860 -0.2854
   15MOL   H357 5705   1.088   4.678   1.905 -1.1464 -0.3412  2.2605
   15MOL   H358 5706   0.920   4.717   1.931 -0.2599  0.1205 -0.0914
   15MOL   H359 5707   0.983   4.751   1.772  0.6885 -1.5469 -0.0490
   15MOL   H360 5708   1.196   5.034   1.915 -0.4340 -1.2421  1.1837
   15MOL   H361 5709   1.225   4.908   1.800 -1.0856  0.4898 -2.1006
   15MOL   H362 5710   1.090   5.009   1.767  1.9143 -0.5296 -2.2758
   15MOL   C363 5711   0.618   4.996   2.009  0.7717  0.1185  0.7668
   15MOL   C364 5712   0.621   4.919   1.871 -0.7129  0.6997 -0.1932
   15MOL   C365 5713   0.664   5.014   1.752 -0.1741  0.9714 -0.2976
   15MOL   O366 5714   0.774   5.070   1.753 -0.1094  0.0644  0.4170
   15MOL   N367 5715   0.580   5.031   1.656  0.1388  0.9462 -0.5191
   15MOL   C368 5716   0.584   5.141   1.559 -0.6428 -0.0678  0.4476
   15MOL   C369 5717   0.564   5.087   1.420 -0.0261 -0.3038 -0.1455
   15MOL   C370 5718   0.485   5.250   1.609 -0.6816 -0.1243 -0.1356
   15MOL   H371 5719   0.523   5.041   2.037  1.3959  2.0050 -0.0892
   15MOL   H372 5720   0.612   4.911   2.076  1.0072 -0.8568 -0.4237
   15MOL   H373 5721   0.517   4.892   1.856 -0.2196 -1.8689  0.7444
   15MOL   H374 5722   0.492   4.982   1.653  0.2259  0.4155  3.3074
   15MOL   H375 5723   0.681   5.189   1.549 -1.1081  0.6678 -0.6702
   15MOL   H376 5724   0.651   5.029   1.389  0.3783  0.3474 -0.2468
   15MOL   H377 5725   0.476   5.023   1.420 -0.7970  0.7407 -0.1277
   15MOL   H378 5726   0.528   5.159   1.346  0.7237  0.1582 -0.0636
   15MOL   H379 5727   0.382   5.231   1.581 -0.4384 -1.2467 -0.2855
   15MOL   H380 5728   0.489   5.280   1.714  0.7368  0.1001 -0.2372
   15MOL   H381 5729   0.513   5.343   1.559  1.0237 -1.6581 -2.1429
   15MOL   H382 5730   0.675   4.825   1.864 -0.6529  0.5729  1.7027
   16MOL     C1 5731   4.511   2.340   1.299 -0.4397  0.8318  0.7527
   16MOL     C2 5732   4.651   2.273   1.323  0.3157 -0.2277 -0.4321
   16MOL     C3 5733   4.626   2.124   1.355 -0.5273  0.0196 -0.1044
   16MOL     O4 5734   4.589   2.057   1.260  0.6218  0.5195 -0.0370
   16MOL     N5 5735   4.647   2.070   1.482 -0.0848 -0.0784  0.3459
   16MOL     C6 5736   4.617   1.931   1.528  0.0654 -0.1670 -0.1888
   16MOL     C7 5737   4.467   1.899   1.518  0.1330 -0.3005 -0.2319
   16MOL     C8 5738   4.695   1.822   1.454  0.0840  0.1688 -0.2164
   16MOL     H9 5739   4.536   2.437   1.257 -3.8827  1.3141 -0.3262
   16MOL    H10 5740   4.451   2.363   1.388 -2.4813  0.3045 -0.4459
   16MOL    H11 5741   4.679   2.315   1.420 -1.2245 -2.4813  1.0349
   16MOL    H12 5742   4.680   2.133   1.553 -3.4244  0.9192  1.1062
   16MOL    H13 5743   4.641   1.944   1.634 -2.9709  0.0268  0.5097
   16MOL    H14 5744   4.421   1.995   1.542  1.5391  0.2981  0.1477
   16MOL    H15 5745   4.439   1.817   1.583  0.1047 -0.4098 -0.3813
   16MOL    H16 5746   4.453   1.876   1.412 -1.0831 -3.0264  0.4876
   16MOL    H17 5747   4.803   1.839   1.465  0.2100 -0.9998  0.4734
   16MOL    H18 5748   4.680   1.728   1.506 -0.6783 -0.4264 -1.4927
   16MOL    H19 5749   4.692   1.810   1.346  0.6390  0.4749 -0.2711
   16MOL    H20 5750   4.445   2.291   1.228 -0.0353 -0.2752  1.1360
   16MOL    C21 5751   4.744   2.289   1.204  0.0716 -0.1749  0.3317
   16MOL    C22 5752   4.879   2.208   1.220  0.1180  0.0638 -0.1339
   16MOL    C23 5753   4.958   2.261   1.344 -0.2722  0.1799 -0.1154
   16MOL    O24 5754   4.966   2.381   1.361 -0.3545 -0.3141  0.4066
   16MOL    N25 5755   5.005   2.172   1.443  0.3567  0.1373  0.1427
   16MOL    C26 5756   5.068   2.205   1.576  0.3943 -0.0042  0.4995
   16MOL    C27 5757   5.125   2.077   1.626 -0.0258 -0.5125  0.2866
   16MOL    C28 5758   4.971   2.255   1.686  0.0998  0.5846 -0.3442
   16MOL    H29 5759   4.772   2.394   1.199 -1.4391  0.3459  2.2261
   16MOL    H30 5760   4.704   2.266   1.105  1.9226  1.1084 -0.7648
   16MOL    H31 5761   4.850   2.106   1.245 -2.0143  1.1477  2.0790
   16MOL    H32 5762   5.006   2.074   1.420  2.7397  0.1286  0.1758
   16MOL    H33 5763   5.138   2.287   1.557  0.3957 -0.2137 -0.4369
   16MOL    H34 5764   5.052   2.006   1.665 -1.0617  0.6143  0.4375
   16MOL    H35 5765   5.192   2.118   1.702 -0.0760  1.1796 -0.5686
   16MOL    H36 5766   5.182   2.027   1.548 -0.1587  1.8231 -1.3577
   16MOL    H37 5767   4.890   2.186   1.711  0.3930  1.0314  1.9168
   16MOL    H38 5768   5.020   2.279   1.781 -1.8595 -0.9251  1.0997
   16MOL    H39 5769   4.913   2.346   1.671 -2.3306 -0.9347 -0.4047
   16MOL    C40 5770   4.950   2.230   1.083  0.4145 -0.3537  0.2239
   16MOL    C41 5771   5.096   2.174   1.065  0.1747 -0.0746  0.9330
   16MOL    C42 5772   5.123   2.034   1.132 -0.5688  0.0716 -0.1916
   16MOL    O43 5773   5.196   2.027   1.232  0.6152  0.3958  0.0242
   16MOL    N44 5774   5.064   1.930   1.077 -0.6172 -0.2947 -0.4359
   16MOL    C45 5775   5.057   1.793   1.127  0.4889  0.4299  0.1297
   16MOL    C46 5776   5.046   1.780   1.284  0.0444  0.5148 -0.1881
   16MOL    C47 5777   4.930   1.736   1.070 -0.5152 -0.0489 -0.4656
   16MOL    H48 5778   4.944   2.337   1.065  0.5698 -0.1214  1.4854
   16MOL    H49 5779   4.898   2.181   1.001 -0.8121  0.0711  0.7403
   16MOL    H50 5780   5.107   2.157   0.957  0.9429 -0.5535  1.0782
   16MOL    H51 5781   5.025   1.952   0.987 -0.3610 -0.3362 -0.5585
   16MOL    H52 5782   5.140   1.735   1.086  0.4038  1.7894 -2.0826
   16MOL    H53 5783   4.999   1.685   1.309 -1.3008  1.5962  1.4895
   16MOL    H54 5784   4.969   1.848   1.319 -2.1606 -2.1190  0.1977
   16MOL    H55 5785   5.139   1.792   1.340 -0.7983  0.7603  1.1707
   16MOL    H56 5786   4.843   1.778   1.121 -0.1866  1.6106 -1.2595
   16MOL    H57 5787   4.924   1.627   1.077  1.5200 -0.1821 -0.2502
   16MOL    H58 5788   4.918   1.744   0.963 -2.0597  0.7941 -0.2332
   16MOL    C59 5789   5.208   2.275   1.094 -0.4129  0.1568 -0.0808
   16MOL    C60 5790   5.321   2.286   0.989  0.2216 -0.8450  0.1956
   16MOL    C61 5791   5.277   2.364   0.862  0.9454  0.0768 -0.0702
   16MOL    O62 5792   5.363   2.430   0.799  0.0475  0.4348  0.2473
   16MOL    N63 5793   5.146   2.373   0.823  0.1480  0.4218 -0.0523
   16MOL    C64 5794   5.098   2.442   0.707 -1.0157  0.2774 -0.1598
   16MOL    C65 5795   5.130   2.340   0.590 -0.1247 -0.9855 -0.1365
   16MOL    C66 5796   4.947   2.469   0.718  0.0125 -0.2562  0.0148
   16MOL    H67 5797   5.163   2.374   1.110 -0.9703 -0.1678  0.3790
   16MOL    H68 5798   5.258   2.251   1.188 -3.8936 -2.0334  1.3218
   16MOL    H69 5799   5.386   2.362   1.034 -0.1555  0.7702 -1.8898
   16MOL    H70 5800   5.087   2.306   0.871  0.9665 -0.1444  0.1614
   16MOL    H71 5801   5.149   2.538   0.697  0.0679 -0.2825 -0.0224
   16MOL    H72 5802   5.057   2.260   0.594 -0.7238 -0.3545  2.0987
   16MOL    H73 5803   5.125   2.384   0.490 -2.0573 -0.2436  0.2561
   16MOL    H74 5804   5.229   2.297   0.602  0.7520  1.1948  0.7944
   16MOL    H75 5805   4.892   2.379   0.745 -0.7389  0.2046  0.0530
   16MOL    H76 5806   4.920   2.542   0.795 -0.1791 -0.7566  0.4211
   16MOL    H77 5807   4.903   2.503   0.624 -1.2581 -1.9410 -0.0202
   16MOL    C78 5808   5.392   2.158   0.967  0.0147  0.4231  0.3100
   16MOL    C79 5809   5.518   2.171   0.876  0.7324 -0.3333 -0.0020
   16MOL    C80 5810   5.614   2.280   0.934  0.3292  0.5970 -0.1100
   16MOL    O81 5811   5.648   2.268   1.048  0.7703 -0.1144 -0.5916
   16MOL    N82 5812   5.660   2.374   0.857  0.7781  0.0305  0.0206
   16MOL    C83 5813   5.751   2.477   0.892 -0.1697 -0.5070 -1.0582
   16MOL    C84 5814   5.887   2.446   0.829  0.3330 -0.0305  0.3494
   16MOL    C85 5815   5.693   2.604   0.842  0.2714 -0.4289  0.0116
   16MOL    H86 5816   5.321   2.083   0.933 -0.5471  1.2573 -0.3874
   16MOL    H87 5817   5.432   2.130   1.065  1.4313 -1.3151 -0.7488
   16MOL    H88 5818   5.474   2.202   0.781  1.3549 -2.4742 -1.0379
   16MOL    H89 5819   5.619   2.390   0.766 -0.2969 -0.4333  0.4060
   16MOL    H90 5820   5.747   2.482   1.001 -2.9319  0.8069 -1.1735
   16MOL    H91 5821   5.955   2.531   0.828 -1.1380  1.1692 -0.1727
   16MOL    H92 5822   5.943   2.371   0.884 -0.9337 -0.4887  1.0323
   16MOL    H93 5823   5.871   2.416   0.725  1.2097 -0.2983  0.2900
   16MOL    H94 5824   5.588   2.596   0.870  0.0891 -1.0578 -0.8143
   16MOL    H95 5825   5.704   2.632   0.737 -1.5612 -2.8098 -0.8544
   16MOL    H96 5826   5.728   2.686   0.904  0.7577 -0.5064 -0.1592
   16MOL    C97 5827   5.596   2.040   0.860 -0.5211  0.8307 -0.1832
   16MOL    C98 5828   5.737   2.042   0.787 -0.0241 -0.6708 -0.2304
   16MOL    C99 5829   5.735   2.098   0.637  0.1906  0.1200  0.2671
   16MOL   O100 5830   5.648   2.066   0.559  0.8181 -0.3332 -0.4213
   16MOL   N101 5831   5.825   2.182   0.602 -0.6075  0.2159 -0.2494
   16MOL   C102 5832   5.851   2.234   0.468 -0.1056 -0.3054 -0.6029
   16MOL   C103 5833   5.754   2.348   0.427 -0.3145 -0.1697  0.1976
   16MOL   C104 5834   5.996   2.294   0.476  0.1040  0.5574  0.4228
   16MOL   H105 5835   5.528   1.971   0.812 -1.8565  3.1462 -1.6822
   16MOL   H106 5836   5.612   2.006   0.963 -0.8432  0.5554 -0.2234
   16MOL   H107 5837   5.798   2.118   0.835  1.5060 -2.1209  0.1372
   16MOL   H108 5838   5.891   2.211   0.673 -1.1783  0.2829  0.2518
   16MOL   H109 5839   5.843   2.157   0.391 -2.2272  0.7110 -1.4353
   16MOL   H110 5840   5.760   2.427   0.502 -3.7486 -1.9920  2.5808
   16MOL   H111 5841   5.789   2.397   0.337  0.6242  1.1788  1.2794
   16MOL   H112 5842   5.650   2.316   0.423 -0.2965 -0.2471  0.3284
   16MOL   H113 5843   6.034   2.294   0.374  1.6108 -2.5599  0.9089
   16MOL   H114 5844   6.050   2.228   0.544  1.2889 -1.5448 -2.4482
   16MOL   H115 5845   5.994   2.394   0.518 -4.4020  1.7159 -2.2153
   16MOL   C116 5846   5.815   1.906   0.795  0.2653  0.6490  0.2806
   16MOL   C117 5847   5.894   1.883   0.928  0.0533  0.2708  0.9117
   16MOL   C118 5848   5.991   1.999   0.947 -0.4128 -0.1489 -0.9723
   16MOL   O119 5849   6.057   2.041   0.854 -0.5695  0.3753 -0.2216
   16MOL   N120 5850   6.013   2.037   1.076 -0.2904 -1.0201 -0.1164
   16MOL   C121 5851   6.114   2.123   1.129 -0.9816  0.6092 -0.0300
   16MOL   C122 5852   6.050   2.233   1.220  0.4376 -0.3360  0.1902
   16MOL   C123 5853   6.221   2.046   1.201  0.0511  1.0573  0.2834
   16MOL   H124 5854   5.886   1.908   0.712  2.1193 -3.7567  1.6197
   16MOL   H125 5855   5.743   1.824   0.792  0.0607  0.5721  4.7548
   16MOL   H126 5856   5.822   1.894   1.009  0.2158  5.0090  0.5480
   16MOL   H127 5857   5.969   1.988   1.153  0.6610 -1.0758  0.4007
   16MOL   H128 5858   6.169   2.179   1.053  0.8718  0.9244  1.5044
   16MOL   H129 5859   5.978   2.295   1.166 -0.4053 -0.8383  0.7213
   16MOL   H130 5860   6.118   2.310   1.257 -1.9616  0.4908  3.1038
   16MOL   H131 5861   5.992   2.204   1.308 -0.3965  0.3695 -0.1138
   16MOL   H132 5862   6.177   1.997   1.288  0.7150 -1.1197 -0.5722
   16MOL   H133 5863   6.256   1.960   1.144  0.5893  2.7321 -1.9648
   16MOL   H134 5864   6.306   2.110   1.225  0.5897 -0.2092  1.8731
   16MOL   C135 5865   5.970   1.751   0.935 -0.0814  0.0323 -0.1051
   16MOL   C136 5866   5.888   1.617   0.921 -0.0388 -0.2228 -0.3227
   16MOL   C137 5867   5.854   1.586   0.771 -0.2970 -0.5648 -0.1560
   16MOL   O138 5868   5.937   1.615   0.685  0.6603  0.4869  0.3130
   16MOL   N139 5869   5.741   1.528   0.741  0.5129  0.1861  0.2280
   16MOL   C140 5870   5.718   1.470   0.617 -0.5278 -0.4689  1.2255
   16MOL   C141 5871   5.668   1.575   0.512  0.3987 -0.5911 -0.5990
   16MOL   C142 5872   5.629   1.351   0.631  0.0945 -0.1248  0.3407
   16MOL   H143 5873   6.024   1.756   1.029  0.0954  1.0400 -0.2598
   16MOL   H144 5874   6.052   1.755   0.864  0.2915 -1.8942  0.1904
   16MOL   H145 5875   5.798   1.615   0.982 -0.1074 -1.7664 -0.4628
   16MOL   H146 5876   5.666   1.512   0.807 -0.0138  1.1840 -0.1147
   16MOL   H147 5877   5.817   1.435   0.588 -0.9311 -1.2942  0.8217
   16MOL   H148 5878   5.745   1.649   0.493  0.4831 -0.5983 -0.2847
   16MOL   H149 5879   5.627   1.537   0.418 -0.3549  0.9655 -0.9164
   16MOL   H150 5880   5.579   1.620   0.554  0.3978 -0.6332 -0.5562
   16MOL   H151 5881   5.526   1.383   0.644  1.0636  2.1656  3.1696
   16MOL   H152 5882   5.653   1.286   0.716  0.2375 -1.1443 -0.4779
   16MOL   H153 5883   5.610   1.296   0.539 -2.1955  2.5925 -0.8885
   16MOL   C154 5884   5.983   1.508   0.983  0.0274  0.0367  0.6604
   16MOL   C155 5885   5.937   1.360   0.970 -0.2111 -0.1839  0.5288
   16MOL   C156 5886   5.802   1.324   1.041  0.4368 -0.0337  0.4889
   16MOL   O157 5887   5.758   1.402   1.120 -0.1594 -0.8943  0.2683
   16MOL   N158 5888   5.745   1.206   1.009  0.6982 -0.0023  0.1400
   16MOL   C159 5889   5.617   1.164   1.062 -0.2184  0.0394 -0.6226
   16MOL   C160 5890   5.651   1.055   1.162 -0.4957 -0.2002 -0.2964
   16MOL   C161 5891   5.526   1.109   0.953  0.0644  1.2194  0.0412
   16MOL   H162 5892   6.000   1.530   1.089  0.2448 -1.2441  0.9071
   16MOL   H163 5893   6.080   1.529   0.940 -1.1944  0.6653 -1.8354
   16MOL   H164 5894   5.910   1.342   0.866 -0.6421 -0.6839  0.7281
   16MOL   H165 5895   5.790   1.155   0.935  0.5771 -1.1223  0.8262
   16MOL   H166 5896   5.559   1.238   1.117  0.5925  0.2750 -0.0875
   16MOL   H167 5897   5.557   1.004   1.179 -1.5206  1.8658  0.3894
   16MOL   H168 5898   5.720   0.985   1.114 -0.8685  0.6870 -2.1685
   16MOL   H169 5899   5.696   1.091   1.254 -1.4643 -0.4415  0.2800
   16MOL   H170 5900   5.555   1.017   0.902  0.1692  0.7622  0.9083
   16MOL   H171 5901   5.484   1.186   0.889 -2.4257 -0.9406 -1.0337
   16MOL   H172 5902   5.433   1.070   0.996  0.3627  0.6310  0.1565
   16MOL   C173 5903   6.052   1.260   0.999  0.0408 -0.0431 -0.8796
   16MOL   C174 5904   6.113   1.181   0.883  0.3242  0.1720 -0.3752
   16MOL   C175 5905   6.010   1.076   0.828 -1.0353  0.3117 -0.0432
   16MOL   O176 5906   5.901   1.115   0.796  0.0266  0.7060  0.2583
   16MOL   N177 5907   6.054   0.951   0.821  0.2117 -0.5459  0.2101
   16MOL   C178 5908   5.974   0.826   0.792 -0.2452  0.4544 -0.0088
   16MOL   C179 5909   5.859   0.798   0.893  0.1683 -0.6909  0.0254
   16MOL   C180 5910   6.075   0.713   0.782  0.5634  0.2902 -0.3160
   16MOL   H181 5911   6.015   1.183   1.066 -2.1737  0.6893 -1.1938
   16MOL   H182 5912   6.130   1.320   1.045 -1.1214  1.2920 -0.5980
   16MOL   H183 5913   6.197   1.127   0.926  0.4495  1.3031  0.8200
   16MOL   H184 5914   6.143   0.934   0.868 -0.1295  1.4546  1.6776
   16MOL   H185 5915   5.923   0.832   0.696 -2.2601  0.0346  1.0038
   16MOL   H186 5916   5.808   0.707   0.860  2.0415 -1.4192 -0.9453
   16MOL   H187 5917   5.787   0.879   0.889  1.9805  0.8713 -3.4501
   16MOL   H188 5918   5.891   0.784   0.996 -0.9380  1.1201  0.6328
   16MOL   H189 5919   6.138   0.732   0.695  0.2993  0.0294 -0.5636
   16MOL   H190 5920   6.031   0.615   0.760 -0.8223  0.1414  2.7925
   16MOL   H191 5921   6.130   0.705   0.877 -0.7670  1.5590  0.5707
   16MOL   C192 5922   6.176   1.266   0.769  0.3535 -0.0656 -0.0096
   16MOL   C193 5923   6.211   1.200   0.628 -0.3749  0.3751  0.2594
   16MOL   C194 5924   6.325   1.096   0.645 -0.2597 -0.1861  0.4571
   16MOL   O195 5925   6.416   1.109   0.723 -0.3211 -0.0540 -0.0969
   16MOL   N196 5926   6.311   0.996   0.553  0.3499  0.2991  0.2390
   16MOL   C197 5927   6.411   0.896   0.512  0.4788  0.3308  0.0142
   16MOL   C198 5928   6.522   0.952   0.421  0.0375  0.4516 -0.0052
   16MOL   C199 5929   6.460   0.800   0.619  0.0732  0.5396 -0.2425
   16MOL   H200 5930   6.262   1.321   0.807 -0.7906  0.9914  1.0643
   16MOL   H201 5931   6.105   1.348   0.760  1.6664  0.9359 -1.5291
   16MOL   H202 5932   6.122   1.145   0.597  0.3359 -1.2975  1.1185
   16MOL   H203 5933   6.221   0.985   0.509 -0.0380  2.1129  0.5162
   16MOL   H204 5934   6.352   0.826   0.452 -2.4250  2.2171  0.5896
   16MOL   H205 5935   6.584   1.025   0.473  0.9258 -0.3293  0.0408
   16MOL   H206 5936   6.472   1.008   0.341 -3.0745  0.1366  1.6706
   16MOL   H207 5937   6.584   0.873   0.378 -0.6450 -0.5496  0.8347
   16MOL   H208 5938   6.367   0.761   0.662  0.5888 -0.0417  0.3496
   16MOL   H209 5939   6.519   0.856   0.691  0.7925  0.9714 -1.1624
   16MOL   H210 5940   6.520   0.716   0.584 -2.7297 -1.5288 -0.3029
   16MOL   C211 5941   6.253   1.314   0.527  0.6093  0.6037 -0.5087
   16MOL   C212 5942   6.131   1.398   0.484  0.8711 -0.6551  0.4007
   16MOL   C213 5943   6.182   1.536   0.439 -0.3202 -0.4076  0.2327
   16MOL   O214 5944   6.286   1.552   0.379 -0.2779  0.2540 -0.0261
   16MOL   N215 5945   6.097   1.635   0.462  0.1980 -0.0612  0.5254
   16MOL   C216 5946   6.116   1.772   0.422 -0.1133 -1.0044 -0.0988
   16MOL   C217 5947   6.175   1.857   0.539 -0.2058  0.2928 -0.2985
   16MOL   C218 5948   5.988   1.827   0.363  0.7081 -0.0999  0.5818
   16MOL   H219 5949   6.302   1.274   0.438 -0.0371 -1.6820  0.1315
   16MOL   H220 5950   6.325   1.367   0.588 -0.2623  0.0057  1.0603
   16MOL   H221 5951   6.076   1.413   0.577 -0.3314 -0.9219 -0.2517
   16MOL   H222 5952   6.033   1.617   0.538 -0.8100 -1.1418 -0.5384
   16MOL   H223 5953   6.186   1.773   0.338 -0.5203  0.4703 -0.4269
   16MOL   H224 5954   6.182   1.959   0.504 -1.9073  0.4822 -0.1574
   16MOL   H225 5955   6.098   1.865   0.616  0.0046  3.2834 -0.3560
   16MOL   H226 5956   6.274   1.832   0.577  0.1406 -0.2412 -1.5450
   16MOL   H227 5957   5.991   1.932   0.333  0.8033 -0.5020 -0.8714
   16MOL   H228 5958   5.900   1.819   0.426 -0.2158  1.4176 -0.4922
   16MOL   H229 5959   5.952   1.772   0.276 -3.1280  0.7661  1.5536
   16MOL   C230 5960   6.037   1.336   0.373 -0.1421  0.0776  0.6491
   16MOL   C231 5961   6.086   1.312   0.226  0.2687  0.5152 -0.3233
   16MOL   C232 5962   6.151   1.175   0.204 -0.5571 -0.5367  0.2031
   16MOL   O233 5963   6.174   1.091   0.296  0.1986 -0.6232 -0.0539
   16MOL   N234 5964   6.207   1.152   0.089  0.3245 -0.0827  0.2948
   16MOL   C235 5965   6.242   1.017   0.033  0.5080 -0.3031  0.1577
   16MOL   C236 5966   6.123   0.915   0.051 -0.5101 -0.1775 -0.1690
   16MOL   C237 5967   6.281   1.026   7.721  0.4542  0.2067 -0.1042
   16MOL   H238 5968   5.949   1.399   0.365  1.8784  3.0594  0.9225
   16MOL   H239 5969   5.999   1.248   0.424 -0.2720  1.9760  4.0160
   16MOL   H240 5970   6.168   1.384   0.223 -0.8492  1.8973  1.2129
   16MOL   H241 5971   6.220   1.226   0.021 -1.3028  0.4773  0.5640
   16MOL   H242 5972   6.328   0.986   0.093 -0.3872 -0.4412  1.3707
   16MOL   H243 5973   6.098   0.898   0.155  2.0743 -1.2153  0.3241
   16MOL   H244 5974   6.029   0.942   0.002 -1.1477 -1.6786  0.2043
   16MOL   H245 5975   6.161   0.820   0.015  1.1117  0.8556 -1.2816
   16MOL   H246 5976   6.209   1.081   7.661  0.2490  1.6265  1.3962
   16MOL   H247 5977   6.286   0.924   7.685  3.0396 -0.4737  1.9779
   16MOL   H248 5978   6.375   1.082   7.719 -0.1115  1.1392 -0.9942
   16MOL   C249 5979   5.989   1.358   0.117 -1.1335 -0.1145  0.1081
   16MOL   C250 5980   5.957   1.506   0.109 -0.3107 -0.6015 -0.9439
   16MOL   C251 5981   5.811   1.528   0.068 -0.6861  0.0117  0.4903
   16MOL   O252 5982   5.760   1.467   7.808  0.9262  0.0041  0.7236
   16MOL   N253 5983   5.741   1.622   0.127  0.3897 -0.1637  0.6556
   16MOL   C254 5984   5.619   1.684   0.082  0.0962 -0.4677 -0.3419
   16MOL   C255 5985   5.551   1.748   0.203 -0.2343  0.9449  0.0708
   16MOL   C256 5986   5.661   1.794   7.816 -0.1037 -0.2448 -0.2682
   16MOL   H257 5987   5.895   1.310   0.144 -0.6383 -0.2759  1.5872
   16MOL   H258 5988   6.033   1.332   0.020 -1.7740  1.4803 -0.6171
   16MOL   H259 5989   5.963   1.550   0.209  0.8744 -0.4659 -1.0692
   16MOL   H260 5990   5.782   1.648   0.216  0.3077  0.4486  0.5186
   16MOL   H261 5991   5.565   1.602   0.035 -0.1027 -0.5089 -0.0422
   16MOL   H262 5992   5.525   1.675   0.280  0.6207 -0.2307 -0.7387
   16MOL   H263 5993   5.614   1.825   0.248 -3.1893  2.2043  2.2069
   16MOL   H264 5994   5.460   1.789   0.161 -0.6016  1.0036  0.9082
   16MOL   H265 5995   5.732   1.865   0.022 -1.0781 -0.2508  1.4090
   16MOL   H266 5996   5.696   1.749   7.723 -1.5479  1.2940 -1.5799
   16MOL   H267 5997   5.567   1.842   7.790  1.5715  2.5131 -1.4877
   16MOL   C268 5998   6.047   1.594   0.018  0.6985 -0.3921  0.7995
   16MOL   C269 5999   6.203   1.613   0.043  0.0039  0.0723  0.1338
   16MOL   C270 6000   6.294   1.501   7.836  0.3651  0.5348 -0.3127
   16MOL   O271 6001   6.266   1.432   7.740 -0.5869  0.1221  0.2343
   16MOL   N272 6002   6.394   1.465   0.079  0.1263 -0.3048  0.3836
   16MOL   C273 6003   6.492   1.362   0.038  0.2181 -0.1527 -0.4773
   16MOL   C274 6004   6.612   1.417   7.798 -0.3278 -0.2872 -0.4885
   16MOL   C275 6005   6.531   1.278   0.162 -0.1776 -0.0676  0.3653
   16MOL   H276 6006   6.032   1.559   7.752  0.9015  1.5264  0.1062
   16MOL   H277 6007   6.006   1.694   0.010  0.9893 -0.3176  0.2315
   16MOL   H278 6008   6.203   1.629   0.150 -2.3368 -0.7233  0.2928
   16MOL   H279 6009   6.410   1.517   0.164  1.2486 -1.3178  0.8010
   16MOL   H280 6010   6.443   1.283   7.818 -1.4099  1.5028 -1.4326
   16MOL   H281 6011   6.616   1.523   7.822 -2.6775 -0.0170 -1.1144
   16MOL   H282 6012   6.706   1.365   7.816 -0.2224 -0.4193 -1.3704
   16MOL   H283 6013   6.588   1.414   7.691  0.4334 -1.3837 -0.6358
   16MOL   H284 6014   6.447   1.238   0.219  0.2792  1.1705  1.9360
   16MOL   H285 6015   6.603   1.198   0.148  1.2196  1.5773 -2.2104
   16MOL   H286 6016   6.581   1.340   0.236  0.7129 -0.4696  0.0999
   16MOL   C287 6017   6.257   1.741   7.798 -0.1945 -0.6199 -0.4452
   16MOL   C288 6018   6.409   1.780   7.813  0.0610 -0.6800 -0.0919
   16MOL   C289 6019   6.436   1.796   0.130  0.1289 -0.1643 -0.7457
   16MOL   O290 6020   6.372   1.874   0.202  0.5311  0.4358 -0.4217
   16MOL   N291 6021   6.542   1.729   0.176 -0.3190 -0.0648  0.4194
   16MOL   C292 6022   6.616   1.731   0.299  0.0962  0.1048  0.4074
   16MOL   C293 6023   6.707   1.605   0.292  0.1222  0.5835  0.3653
   16MOL   C294 6024   6.690   1.865   0.316  0.8905 -0.0994 -0.3553
   16MOL   H295 6025   6.234   1.731   7.692 -0.7568  2.0276 -0.6027
   16MOL   H296 6026   6.195   1.824   7.831 -1.7094 -2.1506  0.6751
   16MOL   H297 6027   6.468   1.699   7.771  1.8653 -0.5301  2.0614
   16MOL   H298 6028   6.592   1.684   0.100  0.4497  0.8842  0.3575
   16MOL   H299 6029   6.537   1.722   0.374  0.0309 -0.8306  0.2296
   16MOL   H300 6030   6.653   1.511   0.276  1.1746  0.3476 -2.0217
   16MOL   H301 6031   6.785   1.623   0.219  1.4878 -0.7299  1.4651
   16MOL   H302 6032   6.771   1.612   0.380  2.0197 -0.8717 -0.8518
   16MOL   H303 6033   6.620   1.941   0.283  2.0442  0.3993 -1.6926
   16MOL   H304 6034   6.722   1.876   0.420  0.3191 -0.2629 -0.1631
   16MOL   H305 6035   6.786   1.867   0.264  1.3755 -0.6166  0.5002
   16MOL   C306 6036   6.448   1.902   7.735  0.1106 -0.6722  0.1947
   16MOL   C307 6037   6.598   1.914   7.721 -0.2824 -0.1845 -0.1908
   16MOL   C308 6038   6.641   2.055   7.761 -0.1766 -0.3082  0.4599
   16MOL   O309 6039   6.607   2.146   7.688 -0.3389  0.4617 -0.3353
   16MOL   N310 6040   6.735   2.074   0.020 -0.1016  0.3360  0.2260
   16MOL   C311 6041   6.806   2.198   0.053  0.1343  0.0052  0.0494
   16MOL   C312 6042   6.779   2.236   0.194 -0.8277  0.2208  0.5344
   16MOL   C313 6043   6.961   2.187   0.036 -0.3746  0.3755  0.3470
   16MOL   H314 6044   6.405   1.891   7.636 -1.0324  1.6315  0.4001
   16MOL   H315 6045   6.395   1.987   7.780  1.0117  0.0950 -0.1799
   16MOL   H316 6046   6.646   1.839   7.784  0.2863 -1.7789 -2.4666
   16MOL   H317 6047   6.761   1.983   0.057  0.5270 -0.1143 -1.2784
   16MOL   H318 6048   6.763   2.283   0.001  0.5866  0.8883  1.1217
   16MOL   H319 6049   6.670   2.227   0.205 -0.7923 -2.3147 -0.8375
   16MOL   H320 6050   6.810   2.340   0.207  0.3122  0.2637 -2.3298
   16MOL   H321 6051   6.829   2.176   0.269 -0.9868  0.8522  1.1573
   16MOL   H322 6052   6.988   2.144   7.776  0.0608  0.6570  0.3407
   16MOL   H323 6053   7.020   2.125   0.102  1.9194  1.9992 -0.0863
   16MOL   H324 6054   6.995   2.290   0.023  0.2217 -0.1074 -2.1756
   16MOL   C325 6055   6.639   1.868   7.578 -0.2503 -0.3591 -0.0258
   16MOL   C326 6056   6.793   1.859   7.545 -0.1371  0.2770  0.0293
   16MOL   C327 6057   6.857   1.755   7.644 -0.5413  0.0374  0.1424
   16MOL   O328 6058   6.798   1.658   7.686  0.1398  0.5204  0.4897
   16MOL   N329 6059   6.980   1.784   7.679 -0.0445  0.5071  0.0127
   16MOL   C330 6060   7.058   1.702   7.773  0.2259 -0.5151 -0.0922
   16MOL   C331 6061   7.061   1.777   0.068  0.6984 -0.1076  0.0084
   16MOL   C332 6062   7.192   1.688   7.707 -0.2329 -0.4877 -0.3903
   16MOL   H333 6063   6.588   1.937   7.512  1.5475 -0.0035 -1.0826
   16MOL   H334 6064   6.598   1.768   7.561  0.9155 -0.6022 -1.4839
   16MOL   H335 6065   6.838   1.955   7.571 -0.0614  0.2335  0.0588
   16MOL   H336 6066   7.021   1.864   7.634  1.9531 -0.2533  0.4394
   16MOL   H337 6067   7.016   1.602   7.784 -1.0093  0.1983  2.0797
   16MOL   H338 6068   6.967   1.818   0.104  1.1267 -0.5002  1.6006
   16MOL   H339 6069   7.090   1.702   0.142 -0.8062  1.1655  1.9326
   16MOL   H340 6070   7.145   1.846   0.066 -1.1253  2.1314 -1.9804
   16MOL   H341 6071   7.179   1.631   7.615  1.6143 -0.8595 -0.4519
   16MOL   H342 6072   7.261   1.632   7.771 -2.1974 -1.2415  1.1081
   16MOL   H343 6073   7.251   1.777   7.685  2.9749 -2.3539  0.3048
   16MOL   C344 6074   6.805   1.807   7.398  0.1552 -0.4136 -0.4030
   16MOL   C345 6075   6.944   1.784   7.345  0.5536 -0.3920  0.6440
   16MOL   C346 6076   6.958   1.646   7.278 -0.1651 -0.4733 -0.1730
   16MOL   O347 6077   6.883   1.612   7.187 -0.1818  0.5365 -0.2728
   16MOL   N348 6078   7.055   1.564   7.320  0.3639  0.4035  0.2129
   16MOL   C349 6079   7.065   1.419   7.304 -0.3021  0.2870  0.1794
   16MOL   C350 6080   7.207   1.377   7.259  0.2146 -0.4986 -0.7076
   16MOL   C351 6081   7.031   1.354   7.438 -0.6408 -0.5157  0.1554
   16MOL   H352 6082   6.747   1.871   7.332 -0.3938 -0.1897  0.2931
   16MOL   H353 6083   6.742   1.718   7.393  0.9861 -1.1728  2.1357
   16MOL   H354 6084   7.020   1.788   7.423  0.7725 -0.0122  0.4137
   16MOL   H355 6085   7.115   1.602   7.392  0.7584 -2.4097  1.4304
   16MOL   H356 6086   6.989   1.385   7.233  0.2804 -2.4726  0.8074
   16MOL   H357 6087   7.226   1.415   7.159  1.5562  2.0013  0.4245
   16MOL   H358 6088   7.293   1.410   7.318 -1.1315  0.2229  0.9037
   16MOL   H359 6089   7.223   1.270   7.260 -3.1861 -1.0735 -1.0916
   16MOL   H360 6090   7.101   1.378   7.518  1.0770  0.9390 -1.7200
   16MOL   H361 6091   6.929   1.385   7.465 -1.1092 -1.2389 -0.7616
   16MOL   H362 6092   7.032   1.247   7.422 -1.1776 -0.2287 -2.0026
   16MOL   C363 6093   6.983   1.891   7.245  0.6191  0.2106  0.4488
   16MOL   C364 6094   6.978   2.031   7.308 -0.2513  0.0550  0.3489
   16MOL   C365 6095   7.108   2.085   7.377 -0.5445  0.8893 -0.2020
   16MOL   O366 6096   7.139   2.029   7.484 -0.4076 -0.6424 -0.8110
   16MOL   N367 6097   7.178   2.179   7.316 -0.0152 -0.1875 -0.1040
   16MOL   C368 6098   7.304   2.220   7.366  0.5923  0.1706  0.2818
   16MOL   C369 6099   7.412   2.115   7.347 -0.1187  0.4448  0.1126
   16MOL   C370 6100   7.351   2.348   7.295 -0.3670 -0.0631  0.0880
   16MOL   H371 6101   6.923   1.875   7.155  1.4533  0.0958 -0.0972
   16MOL   H372 6102   7.083   1.870   7.206  0.6357  1.6440 -0.3519
   16MOL   H373 6103   6.895   2.049   7.375 -1.0085 -0.1191 -0.5267
   16MOL   H374 6104   7.140   2.231   7.239  0.8108  0.0571 -0.3524
   16MOL   H375 6105   7.317   2.248   7.471  0.8504 -1.1307  0.6009
   16MOL   H376 6106   7.417   2.086   7.242 -0.2817  0.3627  0.1264
   16MOL   H377 6107   7.511   2.148   7.379  0.9454 -0.9102 -1.6781
   16MOL   H378 6108   7.378   2.026   7.402 -0.0353 -0.3095 -1.0383
   16MOL   H379 6109   7.277   2.426   7.308 -0.2821 -0.0895  0.7752
   16MOL   H380 6110   7.445   2.380   7.340 -0.5011  0.0170  0.3162
   16MOL   H381 6111   7.370   2.329   7.190  1.0712 -0.7886  0.4498
   16MOL   H382 6112   6.957   2.100   7.226  0.8995 -0.2237 -0.2047
   17MOL     C1 6113   0.933   4.532   4.497 -0.4327 -0.1354 -0.1175
   17MOL     C2 6114   1.047   4.428   4.471  0.0046 -0.4045  0.0138
   17MOL     C3 6115   1.165   4.489   4.386  0.6331  0.1851 -0.6402
   17MOL     O4 6116   1.256   4.552   4.439 -0.0361 -0.1653 -0.0479
   17MOL     N5 6117   1.156   4.469   4.254 -0.3888 -0.3359 -0.6279
   17MOL     C6 6118   1.244   4.531   4.160 -0.6467  0.0617 -0.1174
   17MOL     C7 6119   1.260   4.441   4.037 -0.3791 -0.4226  0.2046
   17MOL     C8 6120   1.177   4.662   4.114  1.3146  0.6211  0.9026
   17MOL     H9 6121   0.974   4.627   4.533  0.4366  0.0122 -1.4368
   17MOL    H10 6122   0.853   4.493   4.558 -0.3613  1.2456  0.8751
   17MOL    H11 6123   0.996   4.353   4.409  0.7309 -1.4349  0.6380
   17MOL    H12 6124   1.075   4.426   4.211 -1.0530 -0.8102  1.0557
   17MOL    H13 6125   1.340   4.560   4.202 -0.8991  2.1241 -0.8894
   17MOL    H14 6126   1.318   4.478   3.952 -1.5027 -1.6583 -1.1287
   17MOL    H15 6127   1.162   4.435   3.988 -0.9195 -2.4607  1.4843
   17MOL    H16 6128   1.292   4.346   4.079 -1.3874  0.0159  2.0186
   17MOL    H17 6129   1.167   4.731   4.197 -0.2072 -0.7219  1.8626
   17MOL    H18 6130   1.215   4.700   4.019  0.2939 -0.4831  0.0349
   17MOL    H19 6131   1.078   4.626   4.084  1.4197  0.9329  0.1602
   17MOL    H20 6132   0.892   4.554   4.398  0.0321  1.0555 -0.0532
   17MOL    C21 6133   1.106   4.360   4.599  0.2137 -0.0911  0.3360
   17MOL    C22 6134   1.217   4.253   4.581  0.5198 -0.3961 -0.0022
   17MOL    C23 6135   1.184   4.145   4.479  0.5285  0.3978 -0.2740
   17MOL    O24 6136   1.071   4.102   4.463 -0.1129  0.5132 -0.0248
   17MOL    N25 6137   1.294   4.091   4.414 -0.3401  0.6108  0.1368
   17MOL    C26 6138   1.284   3.972   4.329  0.2892 -0.3003  0.3578
   17MOL    C27 6139   1.383   3.865   4.377  0.3825 -0.8348 -0.1364
   17MOL    C28 6140   1.308   4.013   4.187  0.4294  0.2028  0.2308
   17MOL    H29 6141   1.034   4.317   4.669 -0.2071 -1.5581 -0.9725
   17MOL    H30 6142   1.144   4.451   4.646 -1.9969  1.5175 -0.9040
   17MOL    H31 6143   1.306   4.309   4.553  0.3163 -0.1066 -0.0670
   17MOL    H32 6144   1.383   4.128   4.443  0.1725  0.0655 -0.7496
   17MOL    H33 6145   1.183   3.931   4.328 -0.6371  1.9388  0.2930
   17MOL    H34 6146   1.353   3.820   4.471 -0.5427  1.1360  0.5516
   17MOL    H35 6147   1.486   3.900   4.390 -0.2328  0.5250  1.2658
   17MOL    H36 6148   1.390   3.795   4.294 -0.1898  2.2132 -2.8895
   17MOL    H37 6149   1.245   4.092   4.145 -0.0799  0.3803  1.3129
   17MOL    H38 6150   1.414   4.039   4.180 -0.1246  2.1302 -1.3724
   17MOL    H39 6151   1.293   3.931   4.116 -0.1819 -0.3799  1.0269
   17MOL    C40 6152   1.254   4.194   4.717 -0.2904 -0.7182  0.5482
   17MOL    C41 6153   1.399   4.145   4.733 -0.7086  0.1364  0.1384
   17MOL    C42 6154   1.399   4.003   4.791 -0.3718 -0.2311 -0.1030
   17MOL    O43 6155   1.439   3.910   4.733 -0.2784  0.4691 -0.4946
   17MOL    N44 6156   1.326   3.988   4.902  0.1948 -0.8194  0.1050
   17MOL    C45 6157   1.315   3.872   4.990 -0.5404 -0.1702  0.1199
   17MOL    C46 6158   1.396   3.904   5.112 -0.2326 -0.5652 -0.2900
   17MOL    C47 6159   1.166   3.864   5.027  0.0134  0.7895  1.0899
   17MOL    H48 6160   1.189   4.107   4.727  0.7131 -1.6776 -1.0141
   17MOL    H49 6161   1.221   4.261   4.797 -2.2480 -1.4863  0.4162
   17MOL    H50 6162   1.439   4.141   4.631  4.6046 -1.3877  2.1071
   17MOL    H51 6163   1.295   4.075   4.944  1.3174  1.0220 -2.7354
   17MOL    H52 6164   1.354   3.783   4.942  1.3688  1.2804 -1.0649
   17MOL    H53 6165   1.498   3.933   5.090 -0.4058  0.2986  0.0132
   17MOL    H54 6166   1.408   3.811   5.168 -0.1793 -0.4659 -0.1369
   17MOL    H55 6167   1.355   3.993   5.161  1.8380  1.4955 -2.2191
   17MOL    H56 6168   1.139   3.778   5.088 -0.4739 -0.6517 -1.1175
   17MOL    H57 6169   1.113   3.837   4.935  1.1758 -1.5339  1.0623
   17MOL    H58 6170   1.126   3.954   5.074  0.7011 -0.4004  4.0367
   17MOL    C59 6171   1.492   4.233   4.812 -0.1093 -0.0742  0.8235
   17MOL    C60 6172   1.492   4.384   4.795  0.8692 -0.1096 -0.4446
   17MOL    C61 6173   1.579   4.425   4.673 -0.2900 -0.7196  0.3660
   17MOL    O62 6174   1.699   4.457   4.693 -0.3450 -0.3368  0.0530
   17MOL    N63 6175   1.523   4.432   4.551  0.8546  0.6614  0.4112
   17MOL    C64 6176   1.592   4.426   4.424  0.5607 -0.3580  0.2603
   17MOL    C65 6177   1.519   4.331   4.330 -0.2234 -0.0423 -0.6402
   17MOL    C66 6178   1.586   4.572   4.362 -0.4003 -0.4363  0.2480
   17MOL    H67 6179   1.475   4.192   4.911  0.7497 -2.1375  0.1398
   17MOL    H68 6180   1.589   4.190   4.787 -0.8242 -1.2700  0.0753
   17MOL    H69 6181   1.392   4.416   4.766  0.8419 -1.5530 -2.0128
   17MOL    H70 6182   1.424   4.412   4.542  0.7988  1.7888 -1.8940
   17MOL    H71 6183   1.695   4.392   4.429  1.1394  1.0325 -1.7092
   17MOL    H72 6184   1.412   4.354   4.324 -0.5745 -1.7638 -1.2751
   17MOL    H73 6185   1.560   4.326   4.229  1.7314  0.2040  0.1214
   17MOL    H74 6186   1.521   4.230   4.370  0.6506 -0.1515 -0.9607
   17MOL    H75 6187   1.649   4.652   4.400 -0.7449  0.3965 -0.9035
   17MOL    H76 6188   1.626   4.568   4.260  0.0805  3.1082  0.2355
   17MOL    H77 6189   1.482   4.605   4.361  0.1970  1.4895  0.5444
   17MOL    C78 6190   1.531   4.459   4.922  0.1452  0.3872 -0.4851
   17MOL    C79 6191   1.411   4.506   5.012  0.4031  0.1262  0.3627
   17MOL    C80 6192   1.326   4.381   5.061  0.2582 -0.0775 -0.6431
   17MOL    O81 6193   1.385   4.284   5.110  0.1093 -0.4926  0.0507
   17MOL    N82 6194   1.195   4.392   5.046  0.4824 -0.0921  0.2832
   17MOL    C83 6195   1.087   4.304   5.093 -1.0224 -0.7913  0.3468
   17MOL    C84 6196   1.035   4.368   5.219 -0.5806 -0.2783 -0.5811
   17MOL    C85 6197   0.982   4.285   4.983  0.1459  0.3538  0.8023
   17MOL    H86 6198   1.588   4.550   4.900  0.5012  0.2787 -0.0344
   17MOL    H87 6199   1.602   4.397   4.977  0.2477  1.1050  0.2102
   17MOL    H88 6200   1.334   4.556   4.954 -0.5182  0.9547  2.2717
   17MOL    H89 6201   1.163   4.484   5.020  0.8603  0.0718  0.3883
   17MOL    H90 6202   1.127   4.208   5.125  0.1423  0.2539  2.1280
   17MOL    H91 6203   0.951   4.312   5.258 -0.1079 -0.2809  0.4703
   17MOL    H92 6204   1.116   4.358   5.292 -1.3250  2.6404  0.7503
   17MOL    H93 6205   1.008   4.474   5.211  0.2652  0.2369  2.5722
   17MOL    H94 6206   0.965   4.375   4.924  3.2147  0.9039  0.6682
   17MOL    H95 6207   0.886   4.263   5.031  0.7386 -0.9136  1.4202
   17MOL    H96 6208   1.004   4.202   4.916  1.0760  0.5670  0.8387
   17MOL    C97 6209   1.467   4.596   5.124 -1.1416 -0.2341  0.2347
   17MOL    C98 6210   1.564   4.528   5.221  0.3186 -0.2577 -0.8381
   17MOL    C99 6211   1.491   4.492   5.358 -0.1290 -0.4294 -0.1445
   17MOL   O100 6212   1.439   4.576   5.428 -0.1410 -0.6981 -0.2500
   17MOL   N101 6213   1.492   4.364   5.398  0.0094 -0.0525 -0.1102
   17MOL   C102 6214   1.434   4.320   5.528  0.2118  0.2034  0.5394
   17MOL   C103 6215   1.294   4.248   5.505 -0.5510  0.1348  0.3038
   17MOL   C104 6216   1.535   4.219   5.588 -0.4419  0.4249  0.1888
   17MOL   H105 6217   1.382   4.637   5.178 -0.2251  0.4161  1.1988
   17MOL   H106 6218   1.508   4.688   5.084 -2.3147 -0.6522 -2.0395
   17MOL   H107 6219   1.604   4.435   5.183  1.8522  0.7408 -1.7232
   17MOL   H108 6220   1.524   4.293   5.334  0.7823  0.0004  0.2064
   17MOL   H109 6221   1.417   4.402   5.597 -1.1622  1.7425 -1.5509
   17MOL   H110 6222   1.267   4.200   5.599 -3.0524  2.9289  1.1011
   17MOL   H111 6223   1.219   4.324   5.484 -2.7424 -2.0546 -0.0398
   17MOL   H112 6224   1.296   4.175   5.424 -3.1146  1.7785 -1.2962
   17MOL   H113 6225   1.636   4.255   5.569 -0.0513 -0.0830  1.2957
   17MOL   H114 6226   1.520   4.112   5.572 -1.1042  0.1131  2.6186
   17MOL   H115 6227   1.528   4.237   5.695 -0.5572  0.4838  0.1723
   17MOL   C116 6228   1.688   4.622   5.252 -0.1823 -0.4918  0.3003
   17MOL   C117 6229   1.784   4.639   5.137  0.3245 -0.2451  0.6582
   17MOL   C118 6230   1.861   4.515   5.116  0.3235  0.4020 -0.1209
   17MOL   O119 6231   1.940   4.471   5.199  0.2082 -0.7022 -0.1441
   17MOL   N120 6232   1.843   4.455   5.000  0.3844 -0.1504 -0.2312
   17MOL   C121 6233   1.910   4.326   4.972 -0.0010  0.2530  0.7410
   17MOL   C122 6234   1.847   4.204   5.049 -0.2355 -0.6402 -0.2085
   17MOL   C123 6235   1.927   4.290   4.817  0.0832 -0.7140  0.4204
   17MOL   H124 6236   1.752   4.590   5.334  1.3717  0.9327 -0.3383
   17MOL   H125 6237   1.643   4.717   5.282 -2.3304 -1.5309  0.4989
   17MOL   H126 6238   1.727   4.662   5.047 -0.6094 -2.9373  0.5240
   17MOL   H127 6239   1.763   4.487   4.949  0.6175  0.6641 -0.0918
   17MOL   H128 6240   2.010   4.329   5.016 -0.4236  0.2496  1.7083
   17MOL   H129 6241   1.848   4.221   5.156 -1.9092  0.2937 -0.3229
   17MOL   H130 6242   1.909   4.116   5.031 -0.7391 -0.8934 -0.7340
   17MOL   H131 6243   1.748   4.171   5.017  0.4910 -1.2074 -1.9186
   17MOL   H132 6244   1.995   4.208   4.793 -1.4918 -1.2477 -2.4585
   17MOL   H133 6245   1.839   4.262   4.758 -0.5660  2.4147 -0.1478
   17MOL   H134 6246   1.962   4.378   4.763  1.2379 -0.7982  1.0173
   17MOL   C135 6247   1.879   4.768   5.161  0.8545 -0.1471 -0.1806
   17MOL   C136 6248   1.981   4.801   5.053 -0.2633  0.4516  0.1510
   17MOL   C137 6249   1.918   4.856   4.923 -0.4409 -0.7317  0.0561
   17MOL   O138 6250   1.906   4.975   4.919 -0.1267 -0.4800 -0.4506
   17MOL   N139 6251   1.895   4.773   4.814 -0.3680  0.1702 -0.7983
   17MOL   C140 6252   1.849   4.827   4.685  0.0126 -0.5466  0.7537
   17MOL   C141 6253   1.697   4.835   4.677  0.6342 -0.0579  0.4884
   17MOL   C142 6254   1.910   4.728   4.582  0.2992 -0.0962 -0.4929
   17MOL   H143 6255   1.927   4.745   5.256  1.3123  0.0902 -0.3586
   17MOL   H144 6256   1.823   4.858   5.183  1.0292  0.4177 -1.9375
   17MOL   H145 6257   2.042   4.716   5.022 -1.9748 -0.2484 -1.3613
   17MOL   H146 6258   1.916   4.675   4.823  1.2570  0.6870  1.7369
   17MOL   H147 6259   1.891   4.928   4.676  0.9315 -0.7429  2.5431
   17MOL   H148 6260   1.643   4.740   4.672 -0.3378  0.5531 -1.2667
   17MOL   H149 6261   1.667   4.893   4.764  1.8559  0.5033  0.5457
   17MOL   H150 6262   1.663   4.900   4.596 -0.3978 -1.9834 -0.6591
   17MOL   H151 6263   1.912   4.759   4.478 -1.4930 -2.8735 -1.4142
   17MOL   H152 6264   1.865   4.629   4.589  1.1692 -0.4167  0.5898
   17MOL   H153 6265   2.015   4.709   4.603  0.4175 -1.8761 -2.5629
   17MOL   C154 6266   2.077   4.909   5.114 -0.0461 -0.1521  0.8294
   17MOL   C155 6267   2.188   4.859   5.201 -0.2785 -0.0448  1.1603
   17MOL   C156 6268   2.204   4.944   5.325 -0.3608 -1.2918  0.4757
   17MOL   O157 6269   2.109   4.943   5.408 -0.8197 -0.2719  0.2389
   17MOL   N158 6270   2.317   5.016   5.350  0.7514 -0.1898  0.4172
   17MOL   C159 6271   2.356   5.079   5.474 -0.3604  0.5508  0.0717
   17MOL   C160 6272   2.469   5.182   5.442  1.4701 -0.3631  0.3261
   17MOL   C161 6273   2.407   4.980   5.580  0.3969 -1.0747 -0.2013
   17MOL   H162 6274   2.013   4.981   5.165 -0.4204 -0.9785  1.5419
   17MOL   H163 6275   2.116   4.979   5.040  0.1007  0.1562  1.1954
   17MOL   H164 6276   2.167   4.755   5.225 -0.3925 -0.3245 -0.1487
   17MOL   H165 6277   2.388   5.014   5.277 -1.2769 -0.9866 -1.6177
   17MOL   H166 6278   2.269   5.138   5.505 -0.7769  0.5888 -1.1150
   17MOL   H167 6279   2.507   5.218   5.538 -0.1062  0.6200  0.5915
   17MOL   H168 6280   2.557   5.135   5.398  1.1836 -0.8743  0.2885
   17MOL   H169 6281   2.441   5.271   5.386  1.5180 -0.1713  0.6022
   17MOL   H170 6282   2.412   5.036   5.674  2.2036 -1.3596 -0.1059
   17MOL   H171 6283   2.509   4.947   5.562  1.1275  0.7019  0.6310
   17MOL   H172 6284   2.343   4.893   5.594  2.6809 -2.8144 -0.1916
   17MOL   C173 6285   2.331   4.852   5.123  0.1236 -0.0575  0.3169
   17MOL   C174 6286   2.457   4.794   5.181 -0.5354  0.1947 -0.0076
   17MOL   C175 6287   2.434   4.649   5.217  0.4078  0.7344 -0.4619
   17MOL   O176 6288   2.430   4.567   5.124  0.1814  0.5787 -0.2662
   17MOL   N177 6289   2.408   4.632   5.342  0.8988  0.4020  0.0123
   17MOL   C178 6290   2.346   4.521   5.404 -0.2542  0.3185 -1.0943
   17MOL   C179 6291   2.225   4.568   5.495  0.7157 -0.0944  0.0177
   17MOL   C180 6292   2.447   4.444   5.489  0.2938 -0.2954 -0.0869
   17MOL   H181 6293   2.365   4.948   5.086  1.8724 -0.4470  0.8627
   17MOL   H182 6294   2.315   4.796   5.030 -1.0868  0.8938 -0.0601
   17MOL   H183 6295   2.494   4.853   5.265  1.0244 -2.4637  1.2245
   17MOL   H184 6296   2.400   4.723   5.385 -0.4029 -0.1099  0.8562
   17MOL   H185 6297   2.313   4.450   5.329  0.8646  1.2804 -2.5138
   17MOL   H186 6298   2.252   4.642   5.571 -0.7742 -0.8441  1.3336
   17MOL   H187 6299   2.190   4.480   5.550  0.6405  0.2593  0.5464
   17MOL   H188 6300   2.153   4.617   5.429  1.4207 -0.2306 -0.8553
   17MOL   H189 6301   2.424   4.338   5.481  1.3448 -0.8039  2.9699
   17MOL   H190 6302   2.445   4.471   5.595 -0.9370  2.3483 -0.7235
   17MOL   H191 6303   2.549   4.459   5.455  0.5641 -0.0535  0.8203
   17MOL   C192 6304   2.566   4.799   5.075 -0.7048  0.0459 -1.2460
   17MOL   C193 6305   2.701   4.731   5.109  0.7064 -0.0411 -0.0717
   17MOL   C194 6306   2.760   4.757   5.249 -0.4032 -0.5849 -0.2515
   17MOL   O195 6307   2.793   4.870   5.289 -0.5494  0.0750  0.2896
   17MOL   N196 6308   2.785   4.649   5.323 -0.0019  0.0185  0.3027
   17MOL   C197 6309   2.846   4.645   5.455 -0.2369  0.1633 -0.1548
   17MOL   C198 6310   2.768   4.729   5.551 -0.5391 -0.4300  0.2782
   17MOL   C199 6311   2.858   4.502   5.506  0.0194 -0.1067  0.4709
   17MOL   H200 6312   2.575   4.904   5.045 -2.8787  0.6955  0.2407
   17MOL   H201 6313   2.529   4.746   4.987  0.0102 -3.5871  0.5794
   17MOL   H202 6314   2.693   4.622   5.110 -1.9234  0.1018  2.5134
   17MOL   H203 6315   2.753   4.558   5.293 -0.6407  0.1383  0.6314
   17MOL   H204 6316   2.946   4.687   5.441 -0.0474  0.8092  2.6812
   17MOL   H205 6317   2.668   4.691   5.573 -0.8605  0.3419  0.1523
   17MOL   H206 6318   2.748   4.833   5.525  0.3989 -0.5785 -1.0498
   17MOL   H207 6319   2.825   4.751   5.642  0.4859  0.5444 -0.5995
   17MOL   H208 6320   2.941   4.452   5.458 -0.6798 -0.9492  0.1167
   17MOL   H209 6321   2.768   4.444   5.481 -0.6762  0.4559  1.6273
   17MOL   H210 6322   2.869   4.495   5.614 -2.0333 -0.4497  0.6880
   17MOL   C211 6323   2.813   4.771   5.006 -0.1502 -0.1643 -0.7960
   17MOL   C212 6324   2.787   4.729   4.854  0.0131 -0.3477  0.5500
   17MOL   C213 6325   2.874   4.811   4.758  0.0847 -0.5653 -0.1322
   17MOL   O214 6326   2.973   4.869   4.796  0.3021 -0.3395 -0.2605
   17MOL   N215 6327   2.834   4.815   4.633 -0.0206  0.1905  0.0127
   17MOL   C216 6328   2.894   4.872   4.508 -0.0174  0.1705 -0.3471
   17MOL   C217 6329   2.781   4.930   4.425  0.8718 -0.3262  0.2945
   17MOL   C218 6330   2.984   4.772   4.438 -0.0878 -0.2189 -0.1525
   17MOL   H219 6331   2.910   4.739   5.044 -0.3160  2.1388  1.7123
   17MOL   H220 6332   2.831   4.878   5.020 -0.9956 -0.1869  0.5421
   17MOL   H221 6333   2.688   4.763   4.824  0.6708 -0.1770 -1.4814
   17MOL   H222 6334   2.759   4.749   4.620  1.3898 -1.7022  1.3367
   17MOL   H223 6335   2.955   4.955   4.544  2.0769 -2.0366  1.2727
   17MOL   H224 6336   2.715   4.851   4.390 -2.0727  1.5145  1.4974
   17MOL   H225 6337   2.723   4.997   4.489  0.0849  0.0569 -0.8186
   17MOL   H226 6338   2.815   4.993   4.343  3.5100  0.1013  1.6615
   17MOL   H227 6339   3.087   4.781   4.474 -0.3082 -0.3790  0.5180
   17MOL   H228 6340   2.979   4.787   4.330 -2.8483  3.2291  0.3457
   17MOL   H229 6341   2.952   4.675   4.474  0.1958  0.2335  1.3855
   17MOL   C230 6342   2.811   4.580   4.827  0.4495  0.4933  0.1870
   17MOL   C231 6343   2.689   4.491   4.835  0.6307 -0.2458  0.1932
   17MOL   C232 6344   2.575   4.519   4.740 -0.4436  0.1073  0.0148
   17MOL   O233 6345   2.600   4.554   4.624 -0.3862  0.3293 -0.1588
   17MOL   N234 6346   2.452   4.512   4.797  0.2520  0.3870  0.1362
   17MOL   C235 6347   2.327   4.539   4.721 -0.0110 -0.1024 -0.0948
   17MOL   C236 6348   2.310   4.444   4.594  0.1112  0.5097  0.1009
   17MOL   C237 6349   2.212   4.513   4.826  0.3510 -0.1378 -0.0532
   17MOL   H238 6350   2.883   4.542   4.899 -1.1614  1.4486  2.3332
   17MOL   H239 6351   2.852   4.558   4.728  0.8331  1.8746  0.0215
   17MOL   H240 6352   2.646   4.517   4.932  2.2194  0.9016  0.6076
   17MOL   H241 6353   2.446   4.469   4.888 -0.2164 -2.1564 -1.0615
   17MOL   H242 6354   2.329   4.647   4.704 -1.0696  0.2565  1.8942
   17MOL   H243 6355   2.374   4.464   4.508 -0.7407  1.6475 -0.2841
   17MOL   H244 6356   2.333   4.341   4.620  0.2461  0.6513  0.5281
   17MOL   H245 6357   2.211   4.440   4.547  1.0479  1.2848 -1.9919
   17MOL   H246 6358   2.231   4.418   4.877  1.3536  0.8121  1.3678
   17MOL   H247 6359   2.110   4.512   4.787  0.2882  0.6983  0.0774
   17MOL   H248 6360   2.199   4.573   4.916 -1.6795  1.3887 -1.3198
   17MOL   C249 6361   2.737   4.348   4.827  1.0434 -0.3722 -0.2803
   17MOL   C250 6362   2.660   4.222   4.882  0.3341  0.2563  0.0045
   17MOL   C251 6363   2.602   4.244   5.019 -0.3758  0.3652 -0.9222
   17MOL   O252 6364   2.675   4.286   5.112  0.3290 -0.6240 -0.3669
   17MOL   N253 6365   2.478   4.197   5.036  0.2443 -0.4966 -0.3593
   17MOL   C254 6366   2.403   4.198   5.168  0.0282 -0.0654  0.4216
   17MOL   C255 6367   2.261   4.258   5.147 -0.5721  0.2075  0.4203
   17MOL   C256 6368   2.390   4.062   5.215  0.0356 -0.1158  0.1644
   17MOL   H257 6369   2.818   4.343   4.899  0.3037  3.4808  0.9109
   17MOL   H258 6370   2.794   4.330   4.735  0.7347 -1.9262 -0.1917
   17MOL   H259 6371   2.578   4.209   4.811 -1.6414  1.3351  2.0426
   17MOL   H260 6372   2.429   4.173   4.951  0.9366  1.3487 -1.3110
   17MOL   H261 6373   2.447   4.272   5.235  0.6070  0.1902 -0.2462
   17MOL   H262 6374   2.268   4.363   5.119  0.1641  0.3431  1.1032
   17MOL   H263 6375   2.210   4.207   5.065  0.5274 -0.7677  0.3412
   17MOL   H264 6376   2.218   4.252   5.247 -0.8198  2.3515  0.4847
   17MOL   H265 6377   2.330   4.000   5.149  0.9595 -1.7520  0.8375
   17MOL   H266 6378   2.488   4.016   5.226  1.6817  2.6377 -2.4773
   17MOL   H267 6379   2.344   4.052   5.314  3.0343 -0.7526  1.5527
   17MOL   C268 6380   2.755   4.097   4.878  0.5535  0.2253 -0.0343
   17MOL   C269 6381   2.691   3.957   4.910 -0.8963  0.7550 -0.1101
   17MOL   C270 6382   2.585   3.926   4.807 -0.3044  0.0856 -0.1370
   17MOL   O271 6383   2.614   3.940   4.686  0.6206 -0.1231 -0.3104
   17MOL   N272 6384   2.468   3.890   4.858  0.0643  0.1989 -0.1197
   17MOL   C273 6385   2.351   3.872   4.771 -0.7548 -0.2721 -0.5545
   17MOL   C274 6386   2.344   3.731   4.722 -0.6134 -0.5140  0.3018
   17MOL   C275 6387   2.215   3.903   4.841  0.5026 -0.4312 -0.1591
   17MOL   H276 6388   2.802   4.094   4.781  0.8261 -1.2887  0.1345
   17MOL   H277 6389   2.835   4.110   4.951 -0.4736 -0.5787  1.2617
   17MOL   H278 6390   2.638   3.966   5.005 -2.1186  0.8787 -0.7844
   17MOL   H279 6391   2.460   3.883   4.958  1.8056 -4.0462 -0.1556
   17MOL   H280 6392   2.360   3.939   4.685 -0.1023  0.6064  0.1862
   17MOL   H281 6393   2.441   3.699   4.686 -1.1973  0.4932 -2.3341
   17MOL   H282 6394   2.313   3.660   4.799 -0.5437  1.5087  2.2420
   17MOL   H283 6395   2.269   3.725   4.643 -1.6651  1.4207  1.1029
   17MOL   H284 6396   2.199   3.851   4.935 -3.0170  2.5440  1.0273
   17MOL   H285 6397   2.192   4.009   4.854 -2.0218 -0.9118 -0.4875
   17MOL   H286 6398   2.131   3.864   4.784  1.9362 -0.9850 -1.9296
   17MOL   C287 6399   2.800   3.852   4.923  0.7327  0.2149 -0.6375
   17MOL   C288 6400   2.769   3.694   4.934 -0.2785  0.1972  0.2294
   17MOL   C289 6401   2.673   3.660   5.051  0.3037 -0.3214  0.0436
   17MOL   O290 6402   2.691   3.689   5.171  0.4171 -0.7250 -0.2051
   17MOL   N291 6403   2.573   3.586   5.014 -0.6972  0.3086  0.6778
   17MOL   C292 6404   2.480   3.516   5.098  0.0657  0.2425  0.2792
   17MOL   C293 6405   2.365   3.600   5.139 -0.3222 -0.1380 -0.4969
   17MOL   C294 6406   2.441   3.387   5.022 -0.2888 -0.5253 -0.4441
   17MOL   H295 6407   2.855   3.854   4.829 -1.9202  1.5632 -2.2125
   17MOL   H296 6408   2.860   3.882   5.009 -0.7708 -0.5423  0.7019
   17MOL   H297 6409   2.720   3.674   4.839  1.7243  1.2434 -1.0409
   17MOL   H298 6410   2.578   3.555   4.918  2.2102  1.1506  0.4987
   17MOL   H299 6411   2.521   3.482   5.194  1.0762 -0.1271 -0.2784
   17MOL   H300 6412   2.395   3.688   5.195 -0.4206  0.6021 -1.5981
   17MOL   H301 6413   2.304   3.630   5.054 -0.4297  0.3441 -0.2539
   17MOL   H302 6414   2.298   3.541   5.202 -0.5398  0.2073 -0.4038
   17MOL   H303 6415   2.416   3.309   5.094  1.5119 -2.0665 -1.4345
   17MOL   H304 6416   2.361   3.411   4.952 -1.0947 -1.9235 -0.0226
   17MOL   H305 6417   2.522   3.341   4.965  0.0530 -0.3654 -0.0889
   17MOL   C306 6418   2.892   3.607   4.934  0.2199  0.3581  0.9055
   17MOL   C307 6419   2.906   3.517   4.807  0.6644 -0.6354 -0.1134
   17MOL   C308 6420   2.803   3.400   4.797  0.5869 -0.1118  0.0627
   17MOL   O309 6421   2.791   3.309   4.882  0.1248 -0.0261  0.8066
   17MOL   N310 6422   2.723   3.416   4.685 -0.2969  0.5442 -0.0772
   17MOL   C311 6423   2.630   3.322   4.629  0.6627  0.1542 -0.1375
   17MOL   C312 6424   2.492   3.394   4.645 -0.3137  1.0896  0.5483
   17MOL   C313 6425   2.677   3.297   4.486 -0.9334  0.0295  0.3101
   17MOL   H314 6426   2.972   3.673   4.968 -1.3093  2.4867  0.5293
   17MOL   H315 6427   2.883   3.544   5.022 -1.1464 -1.6104 -0.5919
   17MOL   H316 6428   2.903   3.575   4.715 -1.1529 -0.5744 -0.0343
   17MOL   H317 6429   2.760   3.495   4.633  0.4635  0.7295  0.7205
   17MOL   H318 6430   2.615   3.229   4.683 -0.1423 -1.3673 -2.9444
   17MOL   H319 6431   2.432   3.336   4.575 -0.4602 -0.9759  2.3400
   17MOL   H320 6432   2.497   3.495   4.604 -0.1474  0.8026 -0.1543
   17MOL   H321 6433   2.446   3.402   4.744  1.9730 -0.8382  1.8155
   17MOL   H322 6434   2.713   3.391   4.443  0.1872 -0.5460 -0.0132
   17MOL   H323 6435   2.597   3.282   4.414  0.8348  1.8116 -2.1107
   17MOL   H324 6436   2.760   3.227   4.484  0.3198  1.5015 -0.5588
   17MOL   C325 6437   3.050   3.449   4.808 -0.6825  0.3087  0.1915
   17MOL   C326 6438   3.125   3.455   4.670 -0.5979  0.9010  0.6188
   17MOL   C327 6439   3.054   3.387   4.554 -0.1240  0.3298 -0.3620
   17MOL   O328 6440   2.963   3.450   4.500 -0.1489  0.0499  0.2316
   17MOL   N329 6441   3.095   3.264   4.516  0.5859  0.2150  0.4490
   17MOL   C330 6442   3.052   3.184   4.405  0.0635  0.1919  0.3715
   17MOL   C331 6443   3.050   3.041   4.435  0.8511  0.8731 -0.4061
   17MOL   C332 6444   3.154   3.209   4.288  0.4033  0.4410 -0.4070
   17MOL   H333 6445   3.055   3.345   4.840  0.8761  0.6068  0.9564
   17MOL   H334 6446   3.106   3.506   4.882 -2.1516  2.5229 -0.3573
   17MOL   H335 6447   3.222   3.415   4.699 -0.9061 -0.3636 -0.0943
   17MOL   H336 6448   3.159   3.220   4.581 -0.6779 -2.1396  0.1465
   17MOL   H337 6449   2.952   3.213   4.371  0.7222  2.5680  0.4148
   17MOL   H338 6450   3.139   2.990   4.471  0.8793  1.2523  0.0731
   17MOL   H339 6451   2.973   3.028   4.512  0.7913 -0.0052 -0.6122
   17MOL   H340 6452   3.006   2.980   4.356 -0.0878  0.9132  0.0805
   17MOL   H341 6453   3.177   3.315   4.274  2.1808  0.7450  3.8666
   17MOL   H342 6454   3.112   3.155   4.203  2.0041 -1.1874 -0.1885
   17MOL   H343 6455   3.248   3.160   4.312 -0.1882 -0.2071  0.6756
   17MOL   C344 6456   3.169   3.599   4.631  0.3769 -0.0034 -0.0710
   17MOL   C345 6457   3.278   3.674   4.720  0.1297 -0.4705  0.2698
   17MOL   C346 6458   3.424   3.621   4.698 -0.2472 -0.4389  0.7963
   17MOL   O347 6459   3.460   3.631   4.580  0.7909  0.1391 -0.5259
   17MOL   N348 6460   3.490   3.560   4.794  0.0703  0.1515  0.3530
   17MOL   C349 6461   3.634   3.530   4.796 -1.2062 -0.0139 -0.4762
   17MOL   C350 6462   3.690   3.501   4.941 -0.8592 -0.3238 -0.3612
   17MOL   C351 6463   3.658   3.409   4.706 -0.0377  0.0641 -0.4961
   17MOL   H352 6464   3.085   3.667   4.624 -0.2016 -0.9027 -2.6013
   17MOL   H353 6465   3.210   3.581   4.531 -0.1216 -0.3873 -0.2133
   17MOL   H354 6466   3.249   3.672   4.825 -1.6212  1.9409 -0.1178
   17MOL   H355 6467   3.438   3.559   4.881  0.3813  0.6006  0.5490
   17MOL   H356 6468   3.679   3.627   4.775 -1.8081 -0.0688 -2.1145
   17MOL   H357 6469   3.656   3.572   5.016 -0.2049  0.0831 -0.4474
   17MOL   H358 6470   3.648   3.406   4.974  1.7500 -1.4718 -0.2139
   17MOL   H359 6471   3.798   3.493   4.955 -1.1332  1.2648  3.0604
   17MOL   H360 6472   3.604   3.411   4.612 -0.2038 -0.1752 -0.4061
   17MOL   H361 6473   3.764   3.398   4.683 -0.3885  2.5395 -3.5359
   17MOL   H362 6474   3.625   3.316   4.752  1.1433  0.5097  1.3190
   17MOL   C363 6475   3.273   3.824   4.675 -0.4044  0.3128 -0.0902
   17MOL   C364 6476   3.337   3.925   4.778 -0.3418 -0.2749 -0.1860
   17MOL   C365 6477   3.236   3.954   4.887  0.1304 -0.0400  0.2127
   17MOL   O366 6478   3.126   3.900   4.895  0.0830  0.5025  0.6650
   17MOL   N367 6479   3.273   4.058   4.968  0.2274  0.3560 -0.4397
   17MOL   C368 6480   3.183   4.119   5.066  0.0660 -0.3039  0.3180
   17MOL   C369 6481   3.265   4.165   5.187 -0.0018 -0.0441  0.4585
   17MOL   C370 6482   3.139   4.244   4.997 -0.1052  0.3495  0.7630
   17MOL   H371 6483   3.170   3.853   4.653 -0.6918 -2.1920 -2.2687
   17MOL   H372 6484   3.328   3.848   4.584 -0.7831  1.5597 -0.0114
   17MOL   H373 6485   3.355   4.015   4.718  0.6409  0.8028  1.6829
   17MOL   H374 6486   3.356   4.112   4.948  0.5677  0.7484  1.9493
   17MOL   H375 6487   3.101   4.059   5.106 -0.7189 -0.1008 -0.9339
   17MOL   H376 6488   3.198   4.201   5.265 -2.1816 -0.7966 -1.0119
   17MOL   H377 6489   3.331   4.084   5.220  1.0544 -1.1168 -3.9841
   17MOL   H378 6490   3.328   4.251   5.165 -1.1408  0.5504 -0.5164
   17MOL   H379 6491   3.218   4.317   4.976 -0.0299  0.5611  1.7773
   17MOL   H380 6492   3.076   4.225   4.910 -1.2320  0.9494  1.4389
   17MOL   H381 6493   3.072   4.292   5.068  1.9775  1.5798  1.9426
   17MOL   H382 6494   3.431   3.887   4.817 -0.8625 -0.6306  0.7303
   18MOL     C1 6495   6.169   6.779   4.708 -0.0818 -0.2859 -0.0881
   18MOL     C2 6496   6.235   6.889   4.784 -0.2160  0.5175  0.1358
   18MOL     C3 6497   6.296   6.995   4.696  0.0767 -0.5355  0.3900
   18MOL     O4 6498   6.233   7.054   4.609  0.4300 -0.1185  0.5324
   18MOL     N5 6499   6.425   7.029   4.721 -0.9239  0.7225 -0.2547
   18MOL     C6 6500   6.500   7.128   4.646  0.2644 -0.1259 -0.8541
   18MOL     C7 6501   6.493   7.261   4.723 -0.4113  0.9797  0.0164
   18MOL     C8 6502   6.643   7.078   4.624  0.1644  0.2059 -0.1588
   18MOL     H9 6503   6.175   6.796   4.601 -1.5434 -1.0413 -0.3004
   18MOL    H10 6504   6.063   6.762   4.724 -0.3122  1.1296 -0.0822
   18MOL    H11 6505   6.320   6.849   4.840 -0.6210  1.1630  1.2077
   18MOL    H12 6506   6.478   6.985   4.795  2.9353 -0.3744 -3.4791
   18MOL    H13 6507   6.453   7.150   4.550  1.0238  2.8255 -0.5992
   18MOL    H14 6508   6.531   7.261   4.826 -0.3255  0.7068 -0.0159
   18MOL    H15 6509   6.388   7.290   4.730 -0.3419  0.6302  4.0967
   18MOL    H16 6510   6.548   7.333   4.662  0.4489  2.4164  2.3748
   18MOL    H17 6511   6.694   7.140   4.550  0.9310 -1.1933 -0.8198
   18MOL    H18 6512   6.699   7.079   4.717  1.7485  1.4403 -1.1033
   18MOL    H19 6513   6.656   6.981   4.576  2.2084  1.0962 -1.4612
   18MOL    H20 6514   6.215   6.682   4.729 -0.3076 -0.1282  1.2396
   18MOL    C21 6515   6.128   6.943   4.884 -0.3169  0.0631  0.2205
   18MOL    C22 6516   6.182   7.045   4.984 -0.1885  0.0906  0.0739
   18MOL    C23 6517   6.239   6.976   5.111  0.2206 -0.3004 -0.3209
   18MOL    O24 6518   6.191   6.870   5.154 -0.5492 -1.1475 -0.1896
   18MOL    N25 6519   6.351   7.029   5.156 -0.1267  0.1686 -0.0864
   18MOL    C26 6520   6.425   6.982   5.271  0.2509 -0.5183  0.2057
   18MOL    C27 6521   6.443   7.110   5.361  0.0910  0.4092 -0.5945
   18MOL    C28 6522   6.552   6.917   5.208  0.6388 -0.3311 -0.2031
   18MOL    H29 6523   6.084   6.858   4.936 -0.8672 -0.7173 -1.4974
   18MOL    H30 6524   6.055   6.986   4.815 -1.0692  0.9741  1.5532
   18MOL    H31 6525   6.262   7.103   4.937  0.2041  0.0429  0.6815
   18MOL    H32 6526   6.394   7.113   5.122  0.3200 -0.1293 -0.2578
   18MOL    H33 6527   6.364   6.912   5.327 -1.4492  0.1119 -0.8117
   18MOL    H34 6528   6.499   7.075   5.448  0.2451  0.0688 -0.8301
   18MOL    H35 6529   6.345   7.145   5.393 -1.1209 -2.5377 -0.9243
   18MOL    H36 6530   6.500   7.190   5.314  0.0690  1.0188  0.3865
   18MOL    H37 6531   6.600   6.988   5.142 -1.4644  0.8037 -0.5574
   18MOL    H38 6532   6.623   6.894   5.288 -0.0322 -0.8879  0.2426
   18MOL    H39 6533   6.539   6.815   5.171  0.1754  0.4894 -2.3895
   18MOL    C40 6534   6.071   7.157   5.001  0.2281  0.1587  0.3563
   18MOL    C41 6535   6.090   7.282   5.087  1.0634 -0.6091 -0.0904
   18MOL    C42 6536   6.222   7.351   5.053  0.6249 -0.1589  0.4894
   18MOL    O43 6537   6.328   7.314   5.099  0.1485  0.4458 -0.4290
   18MOL    N44 6538   6.204   7.459   4.973  0.3394 -0.3186 -0.3439
   18MOL    C45 6539   6.306   7.564   4.950 -0.1298  0.4312 -0.1404
   18MOL    C46 6540   6.269   7.661   4.831 -0.0565  0.4812 -0.1392
   18MOL    C47 6541   6.340   7.648   5.077 -0.1972 -0.6214 -0.0079
   18MOL    H48 6542   5.974   7.112   5.023  0.0059 -1.0500 -2.8023
   18MOL    H49 6543   6.061   7.193   4.898 -1.0535  1.4810  0.9218
   18MOL    H50 6544   6.009   7.351   5.060  0.0914 -2.2972 -1.6209
   18MOL    H51 6545   6.108   7.479   4.950 -0.4572 -2.7059  0.7814
   18MOL    H52 6546   6.393   7.502   4.927 -0.7056 -0.1698 -0.7074
   18MOL    H53 6547   6.340   7.743   4.821  0.1577 -0.1282 -4.3664
   18MOL    H54 6548   6.162   7.681   4.827 -0.4801 -0.9400  2.6220
   18MOL    H55 6549   6.277   7.601   4.741 -0.8966  1.4409 -0.8605
   18MOL    H56 6550   6.253   7.704   5.108  1.1804  0.9198  1.1613
   18MOL    H57 6551   6.414   7.726   5.059 -0.6679 -0.2959 -0.5661
   18MOL    H58 6552   6.373   7.586   5.160  0.6019 -1.8039 -1.1822
   18MOL    C59 6553   6.057   7.255   5.238 -0.3558  0.4312 -0.0408
   18MOL    C60 6554   6.062   7.378   5.335  0.2353  0.7929  0.1003
   18MOL    C61 6555   6.025   7.340   5.479  0.1288  0.4726  0.6471
   18MOL    O62 6556   6.096   7.371   5.569 -0.0645 -0.3027  0.5825
   18MOL    N63 6557   5.916   7.254   5.489 -0.8768 -0.7859  0.1798
   18MOL    C64 6558   5.850   7.205   5.613  0.1343  0.1101  0.2005
   18MOL    C65 6559   5.699   7.206   5.597  0.2872 -0.0826 -0.1696
   18MOL    C66 6560   5.896   7.060   5.643  0.2277 -0.6234 -0.0393
   18MOL    H67 6561   5.972   7.189   5.256 -1.5165  1.8039 -0.4161
   18MOL    H68 6562   6.140   7.193   5.274 -1.5256 -0.3755  1.3064
   18MOL    H69 6563   6.165   7.410   5.353  0.4916 -0.7695  1.5943
   18MOL    H70 6564   5.861   7.231   5.408  1.0830  1.4142 -1.8646
   18MOL    H71 6565   5.883   7.269   5.695 -1.4292 -1.9543  2.5318
   18MOL    H72 6566   5.676   7.309   5.572  0.0670 -0.2786 -0.7726
   18MOL    H73 6567   5.653   7.137   5.526 -2.4434  0.8198  0.6689
   18MOL    H74 6568   5.660   7.183   5.696  0.1835  1.8401  0.2514
   18MOL    H75 6569   6.001   7.064   5.669  0.1741 -0.0324  0.1125
   18MOL    H76 6570   5.834   7.018   5.723 -0.6667  0.7037 -0.0109
   18MOL    H77 6571   5.883   6.996   5.556 -2.8910 -0.2624  0.0816
   18MOL    C78 6572   5.983   7.501   5.277  0.0106  0.6610 -0.0983
   18MOL    C79 6573   5.970   7.622   5.377 -0.2303 -0.1383 -0.2263
   18MOL    C80 6574   6.102   7.695   5.420  0.5558 -0.7520 -0.5090
   18MOL    O81 6575   6.118   7.811   5.389  0.0435 -0.4045  0.3239
   18MOL    N82 6576   6.194   7.636   5.496 -0.0411  0.5950  0.5248
   18MOL    C83 6577   6.333   7.682   5.514 -0.4131  0.1783 -0.5788
   18MOL    C84 6578   6.359   7.776   5.631 -0.0893 -1.4585 -0.9073
   18MOL    C85 6579   6.431   7.557   5.517  0.0243 -0.4694  0.2284
   18MOL    H86 6580   5.881   7.467   5.258  0.8973 -1.1829 -1.8255
   18MOL    H87 6581   6.026   7.537   5.184  0.1967  0.2851 -0.1582
   18MOL    H88 6582   5.926   7.589   5.471 -0.2470 -1.0182 -0.5346
   18MOL    H89 6583   6.167   7.545   5.530 -0.6030 -0.0223 -1.4896
   18MOL    H90 6584   6.365   7.725   5.420 -1.4736  0.1456 -0.9611
   18MOL    H91 6585   6.430   0.019   5.609  0.8627 -1.9854  0.2153
   18MOL    H92 6586   6.271   7.818   5.679  0.2179 -2.0550  0.2076
   18MOL    H93 6587   6.417   7.725   5.708  0.1511  1.0394  0.6063
   18MOL    H94 6588   6.428   7.494   5.606 -0.9724 -0.9731 -0.1599
   18MOL    H95 6589   6.534   7.591   5.510 -0.0343  0.1268  1.9438
   18MOL    H96 6590   6.404   7.494   5.433  2.0319  0.4634 -1.1363
   18MOL    C97 6591   5.874   7.722   5.316 -0.4280  0.5106  0.3148
   18MOL    C98 6592   5.785   7.817   5.405  0.1998 -0.0898  0.2068
   18MOL    C99 6593   5.692   7.736   5.497 -0.0288  1.0116  0.8442
   18MOL   O100 6594   5.625   7.647   5.446  0.2895 -0.1592 -0.1655
   18MOL   N101 6595   5.702   7.759   5.626 -0.0663  0.0305 -0.0017
   18MOL   C102 6596   5.655   7.664   5.734  0.8926 -0.5076  0.2597
   18MOL   C103 6597   5.758   7.548   5.757  0.9018 -0.6767 -0.1983
   18MOL   C104 6598   5.611   7.740   5.863 -0.0510  0.3710  0.4871
   18MOL   H105 6599   5.802   7.671   5.253  0.3732  1.2189 -1.1984
   18MOL   H106 6600   5.920   7.787   5.242  0.0244  1.2695  1.2519
   18MOL   H107 6601   5.854   0.016   5.481  0.8636  1.4303 -1.0807
   18MOL   H108 6602   5.742   0.011   5.653  1.0894 -0.6355  0.5324
   18MOL   H109 6603   5.565   7.624   5.687 -0.1957 -0.2964  2.0870
   18MOL   H110 6604   5.762   7.483   5.669 -1.3132 -1.8055  0.5037
   18MOL   H111 6605   5.864   7.568   5.776  0.5958  0.6881  0.1834
   18MOL   H112 6606   5.725   7.479   5.834  0.5019  0.8539  1.0169
   18MOL   H113 6607   5.578   7.660   5.930 -3.1594  0.4626 -0.8367
   18MOL   H114 6608   5.534   7.816   5.851  0.3289  1.0310  2.0963
   18MOL   H115 6609   5.684   7.794   5.923 -0.8739  4.7884 -2.2825
   18MOL   C116 6610   5.699   0.091   5.331 -0.2778  0.1277  0.1055
   18MOL   C117 6611   5.777   0.226   5.303  0.3188  0.2839 -0.3009
   18MOL   C118 6612   5.836   0.294   5.432 -0.1300  0.0809  0.3853
   18MOL   O119 6613   5.767   0.358   5.514 -0.0683 -0.2439  0.3547
   18MOL   N120 6614   5.968   0.280   5.450 -0.3236  0.8924 -0.0820
   18MOL   C121 6615   6.049   0.334   5.558 -0.2574 -0.0420 -0.0290
   18MOL   C122 6616   6.055   0.232   5.674 -0.4920 -0.5080 -0.5425
   18MOL   C123 6617   6.191   0.360   5.502  0.1060  0.5612 -0.6822
   18MOL   H124 6618   5.609   0.115   5.388 -1.4879 -2.5239 -0.6013
   18MOL   H125 6619   5.663   0.055   5.235  4.1969 -0.5034 -1.4707
   18MOL   H126 6620   5.859   0.204   5.235 -0.2806  1.9036 -1.5969
   18MOL   H127 6621   6.013   0.214   5.388  0.3211  1.8964 -0.7190
   18MOL   H128 6622   6.006   0.426   5.596  0.3642 -0.2210  1.1460
   18MOL   H129 6623   6.061   0.136   5.623  1.7783  0.7179 -2.7367
   18MOL   H130 6624   5.977   0.237   5.750 -0.3278  2.9006 -0.5163
   18MOL   H131 6625   6.148   0.258   5.724 -0.3300 -0.0737 -1.0623
   18MOL   H132 6626   6.180   0.427   5.417  1.5807 -0.5289 -1.7543
   18MOL   H133 6627   6.246   0.424   5.571  0.7312 -0.9489  0.2420
   18MOL   H134 6628   6.242   0.269   5.470  1.4352 -0.3017  3.4826
   18MOL   C135 6629   5.680   0.320   5.226  0.5319  0.4102  0.1795
   18MOL   C136 6630   5.730   0.459   5.177  1.0560 -0.1149 -0.8081
   18MOL   C137 6631   5.860   0.442   5.098  0.3840 -0.3460 -0.4127
   18MOL   O138 6632   5.966   0.489   5.147  0.2010 -0.5649 -0.1351
   18MOL   N139 6633   5.862   0.359   4.991  0.0328 -0.1496 -0.2543
   18MOL   C140 6634   5.980   0.287   4.941 -0.2689  0.6824  0.3590
   18MOL   C141 6635   5.967   0.300   4.787  0.7489  0.7519 -0.1382
   18MOL   C142 6636   5.992   0.149   4.998  0.0809  0.0990 -0.2262
   18MOL   H143 6637   5.596   0.347   5.290  0.6409  2.7722 -0.6193
   18MOL   H144 6638   5.642   0.270   5.137  0.9474  1.3085 -0.5154
   18MOL   H145 6639   5.749   0.512   5.270  0.2403 -2.7936  0.9463
   18MOL   H146 6640   5.776   0.317   4.958 -0.2923 -0.4863  1.0133
   18MOL   H147 6641   6.076   0.336   4.959  0.4469 -0.9231  1.0223
   18MOL   H148 6642   5.870   0.269   4.750  2.3695 -2.0252 -2.2339
   18MOL   H149 6643   5.992   0.397   4.745 -1.0078  1.0521 -0.5055
   18MOL   H150 6644   6.035   0.228   4.741 -1.2545 -2.0583  1.1255
   18MOL   H151 6645   5.894   0.102   5.011  0.2031  0.8337  4.2396
   18MOL   H152 6646   6.041   0.155   5.095  0.0555  0.9358 -0.2593
   18MOL   H153 6647   6.052   0.080   4.940 -1.2523 -0.8715 -0.4762
   18MOL   C154 6648   5.625   0.533   5.097  0.3548 -0.3959 -0.1455
   18MOL   C155 6649   5.646   0.691   5.089 -0.4947  0.2098 -0.5448
   18MOL   C156 6650   5.703   0.764   5.216  0.4413  0.4031 -0.7252
   18MOL   O157 6651   5.620   0.808   5.295 -0.1447  0.2627  0.8496
   18MOL   N158 6652   5.837   0.765   5.224 -0.5180 -0.3476  0.3841
   18MOL   C159 6653   5.913   0.811   5.341 -0.4876 -0.3214  0.1713
   18MOL   C160 6654   5.908   0.705   5.449 -0.2566  0.1701  0.0230
   18MOL   C161 6655   5.880   0.956   5.389 -0.1127  0.4549 -0.0224
   18MOL   H162 6656   5.529   0.524   5.148  0.1921  0.3071 -0.3146
   18MOL   H163 6657   5.624   0.495   4.995 -2.6879  0.1646 -0.3751
   18MOL   H164 6658   5.726   0.702   5.016 -0.1348 -0.9531 -0.3342
   18MOL   H165 6659   5.886   0.722   5.147  0.9519 -1.7810  2.0873
   18MOL   H166 6660   6.014   0.813   5.300  0.3689 -1.8932  2.1375
   18MOL   H167 6661   5.981   0.713   5.529  0.0722 -2.4054  0.0206
   18MOL   H168 6662   5.812   0.699   5.500  0.4386  0.6091  1.4087
   18MOL   H169 6663   5.921   0.606   5.406 -1.2665  0.7810 -1.7575
   18MOL   H170 6664   5.935   0.999   5.473  0.9337 -0.2687 -0.3339
   18MOL   H171 6665   5.783   0.953   5.439 -0.4982 -0.9252 -0.8455
   18MOL   H172 6666   5.888   1.028   5.308 -0.5432  1.0264  0.4349
   18MOL   C173 6667   5.517   0.758   5.036  0.0503  0.6108 -0.1888
   18MOL   C174 6668   5.519   0.912   5.015 -0.0532  0.0394 -0.1764
   18MOL   C175 6669   5.648   0.955   4.944  0.0158 -0.3085  0.0964
   18MOL   O176 6670   5.677   0.911   4.834  0.2617 -0.8218 -0.0969
   18MOL   N177 6671   5.729   1.032   5.019 -0.2592 -0.1153 -0.2556
   18MOL   C178 6672   5.836   1.117   4.966  0.8525 -0.3321  0.4024
   18MOL   C179 6673   5.977   1.067   5.005  0.8837 -0.0066 -0.2823
   18MOL   C180 6674   5.821   1.262   5.019 -0.2472  0.2125 -0.0360
   18MOL   H181 6675   5.429   0.730   5.093 -0.0468 -1.7720 -1.4322
   18MOL   H182 6676   5.500   0.721   4.935  1.0819  5.2537 -2.1807
   18MOL   H183 6677   5.509   0.970   5.107  0.3009  1.3106 -0.9241
   18MOL   H184 6678   5.704   1.052   5.114  1.4585  1.7518 -0.1589
   18MOL   H185 6679   5.835   1.124   4.858 -1.1836  0.2597  0.4343
   18MOL   H186 6680   6.062   1.134   4.989  1.2262 -0.7907 -1.8208
   18MOL   H187 6681   5.996   0.980   4.943 -1.2325 -1.2618  0.7831
   18MOL   H188 6682   5.986   1.024   5.105 -0.3795  0.3860  0.0067
   18MOL   H189 6683   5.732   1.301   4.971  1.3775  1.2077 -2.3286
   18MOL   H190 6684   5.910   1.325   5.013 -0.3167  0.2068 -1.1985
   18MOL   H191 6685   5.799   1.262   5.126 -1.7210  1.6092 -0.3268
   18MOL   C192 6686   5.394   0.966   4.941  0.3856  0.2078  0.2131
   18MOL   C193 6687   5.398   1.120   4.917  0.2903  0.0020 -0.2314
   18MOL   C194 6688   5.366   1.199   5.047  0.6395  0.2091 -0.4618
   18MOL   O195 6689   5.268   1.160   5.115 -0.4470  0.0086 -0.8881
   18MOL   N196 6690   5.442   1.308   5.061  0.3110 -0.6276  0.6055
   18MOL   C197 6691   5.436   1.400   5.177 -0.8202 -0.0718 -0.0956
   18MOL   C198 6692   5.550   1.499   5.181  0.0772  0.0927  0.1341
   18MOL   C199 6693   5.305   1.478   5.185 -0.2243 -0.2181 -0.0271
   18MOL   H200 6694   5.301   0.935   4.987  1.1444  0.0260  1.6498
   18MOL   H201 6695   5.392   0.916   4.844 -1.9119  1.2619 -0.3040
   18MOL   H202 6696   5.499   1.145   4.884  0.0698 -0.4731 -1.3136
   18MOL   H203 6697   5.513   1.331   4.993 -0.6676  1.0210  0.1038
   18MOL   H204 6698   5.442   1.336   5.265  0.0541 -0.0065 -0.1022
   18MOL   H205 6699   5.550   1.560   5.272  1.5550  2.6154 -1.5008
   18MOL   H206 6700   5.546   1.574   5.102 -2.7819 -1.4044 -1.1925
   18MOL   H207 6701   5.647   1.453   5.164  0.9087  1.5767  0.7251
   18MOL   H208 6702   5.225   1.406   5.198  1.2079 -1.7627  0.4111
   18MOL   H209 6703   5.294   1.523   5.086  1.3019  0.8428  0.2566
   18MOL   H210 6704   5.292   1.547   5.268  0.6882  2.1888 -1.8098
   18MOL   C211 6705   5.314   1.176   4.803 -0.2423 -0.3971 -0.2821
   18MOL   C212 6706   5.364   1.127   4.658  0.4511  0.6396 -0.1058
   18MOL   C213 6707   5.255   1.060   4.574  0.3511 -0.0138  0.2357
   18MOL   O214 6708   5.160   1.128   4.533  0.2067  0.0198  0.0095
   18MOL   N215 6709   5.256   0.924   4.553  0.5903 -0.8360  0.4734
   18MOL   C216 6710   5.155   0.851   4.481  0.3747  0.5984 -0.1017
   18MOL   C217 6711   5.044   0.805   4.576  0.7657  0.5776  0.0009
   18MOL   C218 6712   5.217   0.728   4.413  0.3926  0.3423 -0.0873
   18MOL   H219 6713   5.329   1.284   4.801  0.0607 -0.4257  0.5142
   18MOL   H220 6714   5.210   1.154   4.824  0.5129 -1.5318  2.4038
   18MOL   H221 6715   5.439   1.052   4.682  0.6779  0.3038 -1.8033
   18MOL   H222 6716   5.340   0.886   4.596  0.4914 -2.9548 -1.1526
   18MOL   H223 6717   5.113   0.912   4.401  0.1593  1.0625  0.3639
   18MOL   H224 6718   5.012   0.885   4.642  0.8777  1.1631 -0.6433
   18MOL   H225 6719   4.946   0.785   4.533  0.6267  1.4481 -0.0812
   18MOL   H226 6720   5.071   0.712   4.626  0.9586 -0.1391 -1.3948
   18MOL   H227 6721   5.281   0.759   4.330 -1.1082  0.0896 -1.3529
   18MOL   H228 6722   5.141   0.666   4.367  0.1000  1.1589 -0.7093
   18MOL   H229 6723   5.282   0.668   4.477  0.8460  0.5036 -0.3970
   18MOL   C230 6724   5.435   1.234   4.569  0.8971  0.6748  0.7854
   18MOL   C231 6725   5.581   1.277   4.588 -0.3897  0.6083 -0.3832
   18MOL   C232 6726   5.610   1.387   4.696 -0.1186 -0.1214  0.4976
   18MOL   O233 6727   5.550   1.375   4.803  0.1450  0.5875 -0.4190
   18MOL   N234 6728   5.696   1.486   4.671 -0.2338  0.0570 -0.2290
   18MOL   C235 6729   5.731   1.592   4.764  0.1412 -0.3244  0.2158
   18MOL   C236 6730   5.882   1.612   4.751  0.0841 -0.7390 -1.1363
   18MOL   C237 6731   5.646   1.718   4.723 -0.1448 -0.4195 -0.0713
   18MOL   H238 6732   5.374   1.324   4.570  1.7158  1.2292  1.0340
   18MOL   H239 6733   5.438   1.198   4.465  1.2980 -0.5970  1.2214
   18MOL   H240 6734   5.585   1.336   4.496  0.6761  1.3452  0.1269
   18MOL   H241 6735   5.749   1.466   4.588  2.2704  1.5837  0.9577
   18MOL   H242 6736   5.701   1.570   4.866  1.9780  1.2781  1.1323
   18MOL   H243 6737   5.909   1.657   4.656  1.1100 -0.3363 -0.6639
   18MOL   H244 6738   5.908   1.666   4.842 -1.2765 -1.2711 -0.4167
   18MOL   H245 6739   5.943   1.521   4.750 -0.9981 -1.5065 -0.2628
   18MOL   H246 6740   5.653   1.733   4.615 -0.6902 -1.2955 -0.2373
   18MOL   H247 6741   5.663   1.811   4.778 -1.5180  0.8220 -1.7009
   18MOL   H248 6742   5.543   1.694   4.747  0.2465 -1.1985  0.8451
   18MOL   C249 6743   5.685   1.158   4.581 -0.5427  0.0532 -0.0661
   18MOL   C250 6744   5.831   1.197   4.552 -0.0184 -0.2316  0.2461
   18MOL   C251 6745   5.838   1.251   4.414 -0.2448 -0.5531  0.1572
   18MOL   O252 6746   5.823   1.368   4.402 -0.0995  0.1706  0.5032
   18MOL   N253 6747   5.853   1.176   4.305  0.5194 -0.3943 -0.0813
   18MOL   C254 6748   5.878   1.218   4.170 -0.0835 -0.7070 -0.4049
   18MOL   C255 6749   6.012   1.153   4.131  0.0936 -0.0754 -0.0159
   18MOL   C256 6750   5.770   1.184   4.074  0.5268  0.0528  0.6269
   18MOL   H257 6751   5.653   1.078   4.515  1.0592 -1.7800  1.3126
   18MOL   H258 6752   5.673   1.117   4.681  0.4254 -2.4540 -0.9411
   18MOL   H259 6753   5.861   1.275   4.622 -1.9069  0.7769 -0.0378
   18MOL   H260 6754   5.851   1.077   4.321  0.1773 -0.0498  2.2810
   18MOL   H261 6755   5.886   1.326   4.154 -0.5680 -0.7695 -1.0630
   18MOL   H262 6756   6.050   1.199   4.039  0.8656 -0.7793 -0.0574
   18MOL   H263 6757   6.091   1.179   4.202 -1.3819  1.2578  1.1657
   18MOL   H264 6758   6.010   1.046   4.112  1.8734  0.3816 -3.0347
   18MOL   H265 6759   5.670   1.226   4.085 -0.4387 -1.5222 -1.5979
   18MOL   H266 6760   5.801   1.213   3.973 -0.1606  0.9386  0.6650
   18MOL   H267 6761   5.755   1.077   4.064  1.0516  0.0130  0.2338
   18MOL   C268 6762   5.938   1.087   4.571 -0.7790  0.1483 -0.1166
   18MOL   C269 6763   6.086   1.129   4.554 -0.3215 -0.1343  0.9618
   18MOL   C270 6764   6.126   1.250   4.634 -0.3188 -0.2683  0.1673
   18MOL   O271 6765   6.089   1.251   4.753 -0.2022 -0.4586  0.1236
   18MOL   N272 6766   6.200   1.354   4.580 -0.1664  0.3338 -0.1546
   18MOL   C273 6767   6.224   1.479   4.640 -0.3281 -0.3264 -0.0503
   18MOL   C274 6768   6.374   1.480   4.676  0.2439  0.7470 -0.3368
   18MOL   C275 6769   6.185   1.583   4.530  0.2435 -0.2586  0.3329
   18MOL   H276 6770   5.931   1.048   4.673 -0.6685  0.8801  0.1768
   18MOL   H277 6771   5.911   1.002   4.509  1.8048  0.8391 -2.2710
   18MOL   H278 6772   6.115   1.148   4.451  0.8384  1.8954  1.6265
   18MOL   H279 6773   6.227   1.331   4.486  3.0717  0.0438  0.7866
   18MOL   H280 6774   6.162   1.503   4.727 -0.1387 -0.5040  0.1330
   18MOL   H281 6775   6.386   1.413   4.761  2.3888  0.0600 -1.1407
   18MOL   H282 6776   6.441   1.468   4.591  1.1991  2.4583  0.1505
   18MOL   H283 6777   6.406   1.567   4.733 -1.0342 -0.7237  2.6981
   18MOL   H284 6778   6.187   1.685   4.568 -0.0913 -0.6830  1.5258
   18MOL   H285 6779   6.245   1.584   4.440  1.8655 -0.1090  1.4046
   18MOL   H286 6780   6.080   1.578   4.500 -0.0059  0.4774  1.0546
   18MOL   C287 6781   6.175   1.012   4.590 -0.4155  0.0897 -0.5828
   18MOL   C288 6782   6.267   0.948   4.479  0.1097 -0.4770  0.2917
   18MOL   C289 6783   6.383   1.035   4.444  0.2884 -0.8171  0.1439
   18MOL   O290 6784   6.369   1.150   4.403 -0.0161 -0.2537 -0.6168
   18MOL   N291 6785   6.505   0.986   4.453 -0.5670 -0.0343 -0.0289
   18MOL   C292 6786   6.627   1.055   4.412 -0.3348  0.0106  0.1131
   18MOL   C293 6787   6.694   1.155   4.509  0.1502  0.0876  1.2652
   18MOL   C294 6788   6.725   0.942   4.382  0.4614  0.5598  0.3584
   18MOL   H295 6789   6.244   1.049   4.665 -1.0992  0.8123 -0.3056
   18MOL   H296 6790   6.118   0.933   4.640 -2.2423  1.2759 -0.7504
   18MOL   H297 6791   6.318   0.866   4.528  0.4525 -0.5718 -0.2204
   18MOL   H298 6792   6.515   0.888   4.476 -0.8834 -0.3030 -1.0394
   18MOL   H299 6793   6.610   1.111   4.321  0.6721 -0.2922 -0.2727
   18MOL   H300 6794   6.769   1.221   4.465 -2.2184  2.1034  0.1120
   18MOL   H301 6795   6.620   1.219   4.556  1.8784  2.9341  0.2288
   18MOL   H302 6796   6.744   1.101   4.589 -0.2078 -0.1664  1.3164
   18MOL   H303 6797   6.681   0.872   4.310  0.6073  0.5272  0.2990
   18MOL   H304 6798   6.826   0.971   4.349  0.6564 -1.5538 -1.0213
   18MOL   H305 6799   6.737   0.891   4.477 -1.6974 -0.1447  0.2730
   18MOL   C306 6800   6.197   0.904   4.347 -0.1533 -0.2226  0.0262
   18MOL   C307 6801   6.107   0.777   4.363  0.6467  0.0975  0.0390
   18MOL   C308 6802   6.179   0.646   4.392  0.0610 -0.3736 -0.2427
   18MOL   O309 6803   6.131   0.558   4.467  0.0614  0.7007  0.4297
   18MOL   N310 6804   6.294   0.637   4.321 -0.0106  0.6414 -0.8672
   18MOL   C311 6805   6.395   0.531   4.311 -0.2236  0.0546 -0.4129
   18MOL   C312 6806   6.454   0.535   4.163 -0.2972 -0.1375 -0.4763
   18MOL   C313 6807   6.503   0.546   4.417 -0.5641 -0.1028 -0.0392
   18MOL   H314 6808   6.136   0.988   4.313  1.2399  0.1294 -1.7022
   18MOL   H315 6809   6.270   0.896   4.267  0.2894 -0.4983  0.4585
   18MOL   H316 6810   6.043   0.798   4.449  1.2351  0.2712  0.4337
   18MOL   H317 6811   6.306   0.712   4.254 -0.4133  1.8506  0.3951
   18MOL   H318 6812   6.346   0.435   4.327  1.0316 -0.3081  1.3533
   18MOL   H319 6813   6.527   0.455   4.153  1.0134  1.0290 -0.3592
   18MOL   H320 6814   6.513   0.622   4.134  0.2719  0.5571  2.5984
   18MOL   H321 6815   6.386   0.502   4.085 -1.3777 -0.2875  0.5119
   18MOL   H322 6816   6.573   0.462   4.421 -1.3758 -0.7893 -0.2636
   18MOL   H323 6817   6.473   0.540   4.521 -1.5159 -1.3645 -0.3778
   18MOL   H324 6818   6.565   0.635   4.403 -0.1976 -0.4257 -0.4921
   18MOL   C325 6819   6.024   0.756   4.233  0.0799  0.0587 -0.0712
   18MOL   C326 6820   5.911   0.657   4.257  0.6446 -0.3697 -0.2694
   18MOL   C327 6821   5.810   0.707   4.359 -0.0173 -0.0874 -0.1920
   18MOL   O328 6822   5.756   0.817   4.350 -0.1570  0.3103  0.1586
   18MOL   N329 6823   5.805   0.646   4.479  0.1940  0.3244 -0.1083
   18MOL   C330 6824   5.737   0.694   4.598 -0.7123 -0.5597 -0.3363
   18MOL   C331 6825   5.779   0.622   4.729 -0.5933 -0.2892  0.1439
   18MOL   C332 6826   5.584   0.679   4.591  0.2262  0.8385  0.3075
   18MOL   H333 6827   6.081   0.721   4.148 -0.8949  0.3277 -0.8422
   18MOL   H334 6828   5.976   0.850   4.208 -0.0648 -0.1533 -0.5894
   18MOL   H335 6829   5.945   0.567   4.307 -1.6143 -0.3959  1.2872
   18MOL   H336 6830   5.875   0.574   4.492 -0.3682 -0.1672  0.1757
   18MOL   H337 6831   5.745   0.803   4.604 -2.3893 -0.2946 -2.2892
   18MOL   H338 6832   5.864   0.673   4.773 -0.8102 -0.3566  0.6456
   18MOL   H339 6833   5.697   0.614   4.800 -0.8964 -0.3253 -0.2042
   18MOL   H340 6834   5.817   0.520   4.719  5.9788  1.9196  0.6939
   18MOL   H341 6835   5.547   0.716   4.687  2.3029 -1.5281  2.0777
   18MOL   H342 6836   5.539   0.580   4.582  0.6444  0.8251 -1.8354
   18MOL   H343 6837   5.540   0.744   4.515 -0.9021 -0.2835 -0.0238
   18MOL   C344 6838   5.854   0.615   4.120  0.0397 -0.0888  0.7695
   18MOL   C345 6839   5.766   0.490   4.102 -0.2110  0.1191 -0.2664
   18MOL   C346 6840   5.856   0.369   4.127 -0.1953  0.0524  0.9629
   18MOL   O347 6841   5.853   0.308   4.234 -0.0023  0.1045 -0.1185
   18MOL   N348 6842   5.950   0.343   4.034 -0.2230 -0.2521 -0.1015
   18MOL   C349 6843   6.052   0.234   4.042  0.7427 -0.5437 -0.3479
   18MOL   C350 6844   6.113   0.207   3.912 -0.1364  0.5851  0.9122
   18MOL   C351 6845   6.158   0.275   4.145  0.2318 -0.1053 -0.3250
   18MOL   H352 6846   5.928   0.609   4.040 -0.3985 -0.6315  0.4044
   18MOL   H353 6847   5.782   0.694   4.098  0.2447 -0.0690  0.1662
   18MOL   H354 6848   5.730   0.484   3.999  0.2534  0.3520 -0.4461
   18MOL   H355 6849   5.959   0.413   3.961 -0.1201  0.2398  0.3766
   18MOL   H356 6850   6.007   0.135   4.054  2.5296 -1.2977  0.3097
   18MOL   H357 6851   6.162   0.295   3.870  0.0899  0.4510  0.8964
   18MOL   H358 6852   6.188   0.128   3.910  0.2848  0.9941 -0.1755
   18MOL   H359 6853   6.031   0.184   3.843  0.8939 -2.3768  0.6209
   18MOL   H360 6854   6.212   0.355   4.096  0.2723 -0.4982 -0.9288
   18MOL   H361 6855   6.133   0.308   4.246 -0.6087 -2.1627  0.1672
   18MOL   H362 6856   6.221   0.186   4.155  1.1760  0.7105  1.1550
   18MOL   C363 6857   5.639   0.490   4.188 -0.6754 -0.4103  0.7665
   18MOL   C364 6858   5.530   0.390   4.153  0.2910  0.2561 -0.2236
   18MOL   C365 6859   5.472   0.392   4.014 -0.4879 -0.2950 -0.0693
   18MOL   O366 6860   5.491   0.488   3.940  0.0340 -0.7627 -0.1665
   18MOL   N367 6861   5.402   0.282   3.971 -0.2174 -0.7297 -0.0568
   18MOL   C368 6862   5.330   0.274   3.844 -0.7379 -0.0644  0.5644
   18MOL   C369 6863   5.424   0.275   3.721  0.1122  0.1099 -0.3586
   18MOL   C370 6864   5.244   0.144   3.829  0.1939  0.4267 -0.8118
   18MOL   H371 6865   5.608   0.594   4.174  0.8163 -0.0710 -0.1696
   18MOL   H372 6866   5.668   0.486   4.293  0.1583  2.7520  0.7047
   18MOL   H373 6867   5.449   0.398   4.225  2.3973  3.4531  1.9454
   18MOL   H374 6868   5.400   0.203   4.033 -1.8159 -0.2731  0.5174
   18MOL   H375 6869   5.268   0.364   3.839 -1.4608 -0.5279  1.0700
   18MOL   H376 6870   5.370   0.269   3.626 -0.4154  2.8050 -0.2583
   18MOL   H377 6871   5.484   0.364   3.700 -3.0294  1.8306 -2.5299
   18MOL   H378 6872   5.489   0.188   3.724  1.0582  0.8489  1.3895
   18MOL   H379 6873   5.179   0.128   3.915  0.7390  2.2565 -0.0455
   18MOL   H380 6874   5.181   0.132   3.740  2.4628 -0.3198 -2.3771
   18MOL   H381 6875   5.300   0.051   3.823 -0.2353  0.1385 -0.3929
   18MOL   H382 6876   5.580   0.294   4.166  1.8649  1.1398  0.4615
   19MOL     C1 6877   7.038   0.192   6.906  0.9616 -0.5858 -0.4963
   19MOL     C2 6878   7.040   0.043   6.936  0.5586 -0.0490 -0.4145
   19MOL     C3 6879   6.926   7.800   6.864  0.4333 -0.0244 -0.4468
   19MOL     O4 6880   6.888   0.006   6.758  0.2138  0.0821 -0.2914
   19MOL     N5 6881   6.880   7.693   6.930  1.0546 -0.5905 -0.0067
   19MOL     C6 6882   6.752   7.637   6.894 -0.0881  0.5648 -0.0579
   19MOL     C7 6883   6.769   7.489   6.859  0.2895  0.7195 -0.5148
   19MOL     C8 6884   6.654   7.662   7.010  0.1342 -0.0272 -0.0736
   19MOL     H9 6885   7.081   0.215   6.809 -0.2082  1.4789 -0.5480
   19MOL    H10 6886   7.101   0.242   6.979 -0.1576 -1.4337  1.0870
   19MOL    H11 6887   7.011   0.046   7.041 -0.2271 -0.9009 -0.6020
   19MOL    H12 6888   6.922   7.639   7.004  1.2460  0.6684  0.8178
   19MOL    H13 6889   6.720   7.689   6.803  0.0622  4.0968  1.8148
   19MOL    H14 6890   6.673   7.440   6.847  0.5126  0.1048  0.1908
   19MOL    H15 6891   6.819   7.449   6.947  1.9654  2.1162 -0.7983
   19MOL    H16 6892   6.830   7.477   6.770 -1.2624 -0.4281 -1.4419
   19MOL    H17 6893   6.633   7.769   7.007  0.1287 -0.0542 -1.3644
   19MOL    H18 6894   6.555   7.619   7.000 -0.3918  0.9404  0.8287
   19MOL    H19 6895   6.689   7.627   7.107 -0.9904  0.1153  0.3924
   19MOL    H20 6896   6.939   0.238   6.918  0.9958 -0.9687  1.4755
   19MOL    C21 6897   7.180   7.820   6.924 -0.3571  0.3033 -0.0256
   19MOL    C22 6898   7.199   7.678   6.973  0.0243  1.4041 -0.7291
   19MOL    C23 6899   7.144   7.657   7.117 -0.3164  0.0982 -0.1362
   19MOL    O24 6900   7.043   7.591   7.142  0.0092 -0.4286  0.3455
   19MOL    N25 6901   7.199   7.731   7.211 -0.1280  0.0621 -0.0463
   19MOL    C26 6902   7.171   7.715   7.351 -0.0997 -0.4512 -0.3878
   19MOL    C27 6903   7.070   7.825   7.392 -0.2215  0.5219 -0.5144
   19MOL    C28 6904   7.304   7.748   7.412 -0.5213  0.2207 -0.2023
   19MOL    H29 6905   7.257   0.048   6.966  0.2476 -1.1207  1.0996
   19MOL    H30 6906   7.208   7.826   6.819  0.2872 -2.4417 -0.0585
   19MOL    H31 6907   7.134   7.611   6.917  0.9668 -0.1185 -0.0490
   19MOL    H32 6908   7.276   7.790   7.184 -0.4022  0.0381 -0.9209
   19MOL    H33 6909   7.134   7.616   7.378 -3.2443  0.4190 -1.3368
   19MOL    H34 6910   6.981   7.815   7.330 -0.7729 -1.1808  0.5277
   19MOL    H35 6911   7.103   0.092   7.376 -0.4286  0.8470  1.1038
   19MOL    H36 6912   7.038   7.806   7.494 -1.2839  1.7517 -0.6035
   19MOL    H37 6913   7.301   7.753   7.521  1.4443 -1.1782 -0.0622
   19MOL    H38 6914   7.376   7.667   7.396 -0.5306 -0.1971  1.7451
   19MOL    H39 6915   7.344   0.008   7.381  0.9673 -0.0066  0.9818
   19MOL    C40 6916   7.346   7.629   6.949 -0.3076  0.5532 -0.4621
   19MOL    C41 6917   7.406   7.628   6.808 -0.3727  0.1251  0.3702
   19MOL    C42 6918   7.331   7.532   6.713 -0.4507  0.5459  0.1945
   19MOL    O43 6919   7.310   7.411   6.743  0.5977  0.2197  0.3330
   19MOL    N44 6920   7.275   7.582   6.604  0.4276  0.2010  0.2987
   19MOL    C45 6921   7.203   7.523   6.496  0.0252  0.4212 -0.0229
   19MOL    C46 6922   7.073   7.602   6.481 -0.0796  0.5889 -0.0194
   19MOL    C47 6923   7.279   7.539   6.365  0.0844 -0.0378 -0.2308
   19MOL    H48 6924   7.341   7.522   6.968  0.9661  0.4984 -0.4537
   19MOL    H49 6925   7.397   7.687   7.026 -3.3764  0.2497  1.9023
   19MOL    H50 6926   7.406   7.729   6.768 -0.6796 -0.4294 -1.0594
   19MOL    H51 6927   7.287   7.682   6.591 -2.1475  0.1766 -2.6508
   19MOL    H52 6928   7.158   7.426   6.515  0.4488  0.2393  0.0372
   19MOL    H53 6929   7.015   7.577   6.392  0.0163  3.4548 -0.9464
   19MOL    H54 6930   7.088   7.710   6.471  2.4369  0.0843 -2.3171
   19MOL    H55 6931   6.995   7.585   6.555  0.5182  1.2634  0.7787
   19MOL    H56 6932   7.221   7.496   6.284 -0.5940  0.9398 -0.2826
   19MOL    H57 6933   7.368   7.476   6.366 -0.6206 -1.0381 -0.5397
   19MOL    H58 6934   7.311   7.641   6.341  0.0432  0.0192 -0.0411
   19MOL    C59 6935   7.555   7.579   6.813 -0.2159 -0.2576  0.0410
   19MOL    C60 6936   7.626   7.584   6.672  0.7624 -0.3661 -0.2406
   19MOL    C61 6937   7.664   7.443   6.611  0.4954  0.6236  0.1061
   19MOL    O62 6938   7.743   7.372   6.669 -0.5344 -0.0555 -0.2569
   19MOL    N63 6939   7.601   7.415   6.491 -0.5245  0.0302 -0.3754
   19MOL    C64 6940   7.599   7.274   6.445  0.2246 -0.2686 -0.3755
   19MOL    C65 6941   7.455   7.217   6.450 -0.7106 -0.0728 -0.0285
   19MOL    C66 6942   7.654   7.266   6.302 -0.6912  0.4901 -0.0747
   19MOL    H67 6943   7.594   7.655   6.880 -0.7247  0.2956 -0.2858
   19MOL    H68 6944   7.561   7.481   6.859 -2.2605 -1.5308 -2.2645
   19MOL    H69 6945   7.565   7.630   6.594  2.6097  0.3604 -1.3053
   19MOL    H70 6946   7.541   7.486   6.452 -1.6108 -1.5712 -1.6972
   19MOL    H71 6947   7.666   7.211   6.504  0.0711  0.6838  0.8433
   19MOL    H72 6948   7.387   7.261   6.377 -0.4516 -0.2204 -0.3560
   19MOL    H73 6949   7.457   7.109   6.431  2.2900 -0.2657  1.2100
   19MOL    H74 6950   7.393   7.228   6.539 -0.8447 -1.9682  0.1346
   19MOL    H75 6951   7.659   7.161   6.274 -1.2413  0.8978 -1.7705
   19MOL    H76 6952   7.586   7.319   6.235 -1.6798  0.5436  0.9402
   19MOL    H77 6953   7.757   7.298   6.287 -0.1022 -0.4658  1.8546
   19MOL    C78 6954   7.768   7.659   6.683  0.4479 -0.2505 -0.9857
   19MOL    C79 6955   7.780   7.790   6.604  0.2523 -0.8208  0.3068
   19MOL    C80 6956   7.789   7.757   6.451  0.2739 -0.4077  0.0010
   19MOL    O81 6957   7.696   7.707   6.390  0.4348  0.0206 -0.3975
   19MOL    N82 6958   0.068   7.794   6.384 -0.1354 -0.0269  0.0064
   19MOL    C83 6959   0.075   7.786   6.241 -0.7120 -0.1564 -0.3196
   19MOL    C84 6960   0.182   0.041   6.198 -0.6630  0.1040 -0.2126
   19MOL    C85 6961   0.104   7.640   6.198  0.5095 -0.4073 -0.5378
   19MOL    H86 6962   0.013   7.606   6.633  0.7952 -1.8863  1.2447
   19MOL    H87 6963   7.797   7.674   6.786 -1.1283 -0.4955 -0.4897
   19MOL    H88 6964   0.035   0.010   6.626 -0.5304  0.2363  0.9244
   19MOL    H89 6965   0.129   0.013   6.443 -0.3828 -0.9481  1.1216
   19MOL    H90 6966   7.820   7.806   6.186 -0.2674 -1.0941 -1.4275
   19MOL    H91 6967   0.214   0.031   6.095 -1.6858 -1.1158 -0.4221
   19MOL    H92 6968   0.142   0.142   6.213  1.6774  1.2763 -1.5990
   19MOL    H93 6969   0.273   0.027   6.256 -0.9678  0.6653  0.4065
   19MOL    H94 6970   0.203   7.611   6.232  1.6414  2.1360 -1.5401
   19MOL    H95 6971   0.112   7.625   6.090 -1.0708 -2.7603 -0.3757
   19MOL    H96 6972   0.022   7.573   6.224 -0.4727  1.1221  0.4080
   19MOL    C97 6973   7.667   0.054   6.642 -0.4340  0.1357 -0.0499
   19MOL    C98 6974   7.688   0.197   6.581 -0.4510 -0.0304 -0.3988
   19MOL    C99 6975   7.804   0.273   6.649 -0.2050 -0.2237  0.3550
   19MOL   O100 6976   7.817   0.276   6.775 -0.1142  0.3559  0.1963
   19MOL   N101 6977   0.048   0.341   6.568 -0.7956 -0.6406  0.0190
   19MOL   C102 6978   0.178   0.400   6.590 -0.4462 -0.1446  0.0623
   19MOL   C103 6979   0.277   0.297   6.631  0.3063  0.1112 -0.6162
   19MOL   C104 6980   0.226   0.488   6.475  0.1369  0.7123  0.4251
   19MOL   H105 6981   7.654   0.050   6.750  0.3096  2.7840  0.1784
   19MOL   H106 6982   7.571   0.017   6.604 -0.7947  0.5451  0.4524
   19MOL   H107 6983   7.733   0.184   6.483  0.7034 -1.2252  0.2745
   19MOL   H108 6984   0.013   0.338   6.474 -2.9666 -1.1203  0.7958
   19MOL   H109 6985   0.162   0.469   6.673  0.8069 -0.3767  0.5155
   19MOL   H110 6986   0.240   0.227   6.706  1.8154  1.3407  1.3227
   19MOL   H111 6987   0.310   0.238   6.545 -0.8771 -0.7113 -0.5163
   19MOL   H112 6988   0.370   0.351   6.650 -0.1107  0.2219  1.1426
   19MOL   H113 6989   0.305   0.559   6.500 -0.5878  0.5620  3.2741
   19MOL   H114 6990   0.144   0.544   6.430 -0.5288 -0.5698  0.0020
   19MOL   H115 6991   0.251   0.433   6.384  2.3887  0.0209  1.4207
   19MOL   C116 6992   7.563   0.290   6.569 -0.4783 -0.3407  0.6647
   19MOL   C117 6993   7.464   0.269   6.451  0.0801 -0.0642 -0.0979
   19MOL   C118 6994   7.338   0.188   6.485 -0.2722  0.2519  0.0589
   19MOL   O119 6995   7.332   0.078   6.538 -0.0990  0.0921 -0.1210
   19MOL   N120 6996   7.224   0.244   6.437  0.2825  0.0854  0.5558
   19MOL   C121 6997   7.096   0.173   6.430 -0.2816  0.1493  0.4797
   19MOL   C122 6998   6.982   0.269   6.471 -0.7453 -0.0107 -0.5406
   19MOL   C123 6999   7.069   0.110   6.293  0.1483 -0.0766 -0.6634
   19MOL   H124 7000   7.598   0.393   6.559 -1.9936  0.0853 -0.3543
   19MOL   H125 7001   7.515   0.296   6.666  0.0809  0.4991  0.9005
   19MOL   H126 7002   7.424   0.370   6.442 -0.2867  0.1369  3.0625
   19MOL   H127 7003   7.226   0.323   6.374  0.2009 -0.0558  0.3758
   19MOL   H128 7004   7.090   0.097   6.508  1.4758 -0.0447  0.4588
   19MOL   H129 7005   6.979   0.357   6.407  2.5014  0.2605 -0.4147
   19MOL   H130 7006   6.986   0.306   6.573  0.6580 -1.8454  0.0928
   19MOL   H131 7007   6.896   0.203   6.460 -0.3460 -0.3785 -1.5512
   19MOL   H132 7008   6.984   0.042   6.289  0.3542 -0.3342 -0.6613
   19MOL   H133 7009   7.029   0.188   6.228  1.9242 -0.9032 -2.8162
   19MOL   H134 7010   7.147   0.045   6.255  1.5230  1.3687 -0.3845
   19MOL   C135 7011   7.523   0.227   6.307 -0.4145 -0.1537  0.4698
   19MOL   C136 7012   7.571   0.337   6.207 -0.3365 -0.3413  0.3639
   19MOL   C137 7013   7.666   0.442   6.271 -0.4550  0.0378 -0.2798
   19MOL   O138 7014   7.763   0.391   6.328  0.3126 -0.6547 -0.3991
   19MOL   N139 7015   7.640   0.574   6.264 -0.2616 -0.1102 -0.6948
   19MOL   C140 7016   7.728   0.667   6.318  0.0488 -0.2597 -0.3888
   19MOL   C141 7017   7.698   0.697   6.469  0.6207  0.2128  0.2594
   19MOL   C142 7018   7.702   0.794   6.234 -0.6639 -0.2285  0.4913
   19MOL   H143 7019   7.441   0.173   6.259  1.3574 -1.7358 -0.8284
   19MOL   H144 7020   7.601   0.151   6.311 -0.9291 -0.6093  2.5265
   19MOL   H145 7021   7.488   0.398   6.172 -0.3562 -1.2665 -1.2599
   19MOL   H146 7022   7.568   0.604   6.199 -0.4204  0.4307 -0.2746
   19MOL   H147 7023   7.832   0.646   6.297 -0.4135 -0.0459 -2.9914
   19MOL   H148 7024   7.606   0.756   6.473  0.7435  0.3570  1.0954
   19MOL   H149 7025   7.694   0.601   6.521 -0.6259 -0.2027 -0.5789
   19MOL   H150 7026   7.778   0.748   6.523  0.3975  3.3093 -2.2256
   19MOL   H151 7027   7.756   0.870   6.291  1.1113  0.7868 -2.3989
   19MOL   H152 7028   7.598   0.824   6.240 -0.0221  2.1209  0.4230
   19MOL   H153 7029   7.744   0.786   6.133  1.1371 -0.6990  1.2536
   19MOL   C154 7030   7.634   0.283   6.084 -0.7829 -0.3375 -0.1526
   19MOL   C155 7031   7.537   0.214   5.988 -0.0345  0.3190  0.1005
   19MOL   C156 7032   7.608   0.116   5.905 -0.0905  0.3182 -0.0603
   19MOL   O157 7033   7.704   0.154   5.839  0.5401  0.1226 -0.7128
   19MOL   N158 7034   7.581   7.824   5.917  0.7084  0.0673 -0.3464
   19MOL   C159 7035   7.679   7.715   5.898 -0.4955  0.5914  0.0454
   19MOL   C160 7036   7.663   7.659   5.757  0.3688  0.1304  0.4275
   19MOL   C161 7037   7.641   7.613   6.005  0.1189  0.4746  0.2873
   19MOL   H162 7038   7.698   0.204   6.123 -2.9145 -2.0207  0.0798
   19MOL   H163 7039   7.679   0.358   6.020  0.8381 -1.8134 -0.7811
   19MOL   H164 7040   7.464   0.164   6.051 -2.0800  0.0727 -2.3909
   19MOL   H165 7041   7.513   7.804   5.989  0.4186 -1.8860 -1.1004
   19MOL   H166 7042   7.784   7.741   5.908 -0.3503 -0.2622  0.8150
   19MOL   H167 7043   7.695   7.739   5.690  0.6993  1.5321  2.2228
   19MOL   H168 7044   7.730   7.573   5.752 -0.6595 -0.5686 -2.9970
   19MOL   H169 7045   7.573   7.610   5.720  0.7752 -1.2741  1.2387
   19MOL   H170 7046   7.614   7.640   6.107 -0.5153 -0.3013  0.3252
   19MOL   H171 7047   7.725   7.544   6.015 -0.0186  0.1451 -0.7920
   19MOL   H172 7048   7.566   7.541   5.973  1.2703 -1.0997  1.0827
   19MOL   C173 7049   7.467   0.316   5.903  0.0974 -0.7424  0.7113
   19MOL   C174 7050   7.318   0.298   5.888 -0.2376  0.6306 -0.5867
   19MOL   C175 7051   7.246   0.352   6.018 -0.7609  0.6516  0.2884
   19MOL   O176 7052   7.219   0.266   6.101 -0.5634 -0.8627 -0.1226
   19MOL   N177 7053   7.240   0.480   6.045  0.5768 -0.6008 -0.1565
   19MOL   C178 7054   7.168   0.538   6.160  0.3091 -0.2738  0.0028
   19MOL   C179 7055   7.064   0.635   6.107  0.1822 -0.1231  0.4365
   19MOL   C180 7056   7.255   0.604   6.262 -0.8446  0.5954  0.9506
   19MOL   H181 7057   7.515   0.326   5.805 -0.1087  0.6465  0.7404
   19MOL   H182 7058   7.485   0.416   5.941  0.4603 -0.1598 -0.9355
   19MOL   H183 7059   7.295   0.192   5.881  1.1206  0.3258 -0.3892
   19MOL   H184 7060   7.279   0.543   5.976 -2.0418  2.2684  0.8769
   19MOL   H185 7061   7.113   0.460   6.213 -0.1682 -0.4355 -0.7292
   19MOL   H186 7062   7.109   0.723   6.060  2.7091  1.0094  4.6964
   19MOL   H187 7063   7.004   0.674   6.189  0.1762 -1.9407  1.3053
   19MOL   H188 7064   6.994   0.582   6.041  0.0940  0.5260 -0.0005
   19MOL   H189 7065   7.192   0.663   6.329 -0.6909  1.2883  0.4919
   19MOL   H190 7066   7.341   0.657   6.220 -0.6794  1.4682  2.3422
   19MOL   H191 7067   7.306   0.529   6.321 -0.5408 -1.7548 -2.1819
   19MOL   C192 7068   7.262   0.372   5.770  0.0183 -0.5846 -0.4881
   19MOL   C193 7069   7.112   0.370   5.738 -0.4122  0.2128 -0.1597
   19MOL   C194 7070   7.068   0.234   5.698 -0.4092  0.5132 -0.0602
   19MOL   O195 7071   7.114   0.177   5.600 -0.1161 -0.0048  0.2312
   19MOL   N196 7072   6.972   0.182   5.782 -0.1442  0.0544  0.2913
   19MOL   C197 7073   6.922   0.045   5.776  0.3637  0.2883  0.0371
   19MOL   C198 7074   6.821   0.014   5.892  0.9235 -0.1328  0.1186
   19MOL   C199 7075   6.864   7.832   5.642 -0.4163  0.2141 -0.4233
   19MOL   H200 7076   7.317   0.341   5.681  1.5728  0.8242 -0.0380
   19MOL   H201 7077   7.289   0.477   5.774 -1.3102 -0.2319 -0.7703
   19MOL   H202 7078   7.063   0.395   5.832  0.4687 -1.3862  0.7448
   19MOL   H203 7079   6.940   0.247   5.852  0.6197  1.1258 -0.3412
   19MOL   H204 7080   7.015   7.827   5.794 -1.0924 -1.4292  2.7574
   19MOL   H205 7081   6.799   7.743   5.890  1.3064 -0.2255  0.8642
   19MOL   H206 7082   6.726   0.062   5.869  1.3360  0.4761 -0.3408
   19MOL   H207 7083   6.871   0.042   5.984  0.3897  0.1798  0.3100
   19MOL   H208 7084   6.792   0.070   5.610 -0.5457  0.2069 -0.1505
   19MOL   H209 7085   6.820   7.734   5.659  2.8533 -1.5762 -1.8693
   19MOL   H210 7086   6.941   7.830   5.565  0.5622  0.8164  0.5269
   19MOL   C211 7087   7.071   0.481   5.641 -0.7013 -0.3272 -0.4098
   19MOL   C212 7088   6.928   0.477   5.588  1.0446  0.3499  0.8590
   19MOL   C213 7089   6.819   0.468   5.697 -0.0142 -0.4999 -0.2394
   19MOL   O214 7090   6.852   0.498   5.815 -0.5298  0.2318  0.3884
   19MOL   N215 7091   6.695   0.425   5.668  0.3052  0.3216  0.1117
   19MOL   C216 7092   6.580   0.397   5.757  0.5377  0.6717  0.0914
   19MOL   C217 7093   6.507   0.271   5.703 -0.4436 -0.7040 -0.8723
   19MOL   C218 7094   6.493   0.523   5.760  0.1942 -0.4268  0.0606
   19MOL   H219 7095   7.144   0.485   5.560 -1.6744  1.4075 -1.2244
   19MOL   H220 7096   7.097   0.575   5.690 -0.0735 -0.8347  0.2464
   19MOL   H221 7097   6.913   0.387   5.528 -1.5913  0.0005  2.0141
   19MOL   H222 7098   6.677   0.404   5.571 -3.4610  0.7759  0.6453
   19MOL   H223 7099   6.611   0.377   5.860 -0.8700  2.1431  0.8215
   19MOL   H224 7100   6.451   0.301   5.615 -0.7736  2.1423  0.2342
   19MOL   H225 7101   6.582   0.200   5.667 -0.7199 -0.8226 -1.2114
   19MOL   H226 7102   6.437   0.225   5.772 -0.6748 -1.6771 -1.7527
   19MOL   H227 7103   6.535   0.606   5.817  0.1955  1.1036 -2.1096
   19MOL   H228 7104   6.392   0.502   5.795  1.7981 -1.4300  4.4422
   19MOL   H229 7105   6.478   0.555   5.656  0.0407 -0.5408  0.0472
   19MOL   C230 7106   6.911   0.606   5.507  0.4663  0.5024 -0.3631
   19MOL   C231 7107   6.888   0.596   5.360  0.2836  0.8067 -0.3920
   19MOL   C232 7108   7.020   0.567   5.288  0.7470 -0.1006 -0.3788
   19MOL   O233 7109   7.089   0.654   5.231  0.1932  0.1942  0.1793
   19MOL   N234 7110   7.046   0.440   5.278  0.8962  0.3148 -0.8886
   19MOL   C235 7111   7.160   0.375   5.216  0.0912  0.1604 -0.2435
   19MOL   C236 7112   7.254   0.293   5.312  0.0553  0.3431  0.5434
   19MOL   C237 7113   7.111   0.279   5.104  0.7135 -0.5782  0.3022
   19MOL   H238 7114   6.987   0.678   5.536 -0.1190  1.1029 -0.3143
   19MOL   H239 7115   6.820   0.652   5.545  0.8278  0.7652  0.1867
   19MOL   H240 7116   6.863   0.700   5.339  0.7207  0.4871 -2.6275
   19MOL   H241 7117   6.973   0.384   5.318 -0.9161  3.4271  0.3431
   19MOL   H242 7118   7.216   0.451   5.162  1.0071 -0.2146  0.1615
   19MOL   H243 7119   7.345   0.272   5.255 -0.8919 -0.4838 -0.6710
   19MOL   H244 7120   7.302   0.341   5.397  0.3930 -0.3182  0.7346
   19MOL   H245 7121   7.210   0.200   5.350  2.6605 -0.9731  0.4953
   19MOL   H246 7122   7.077   0.331   5.015  2.3692  1.3646  0.7657
   19MOL   H247 7123   7.039   0.208   5.145  2.6581 -1.0644  2.9800
   19MOL   H248 7124   7.203   0.226   5.078 -0.5810 -1.9497 -1.5701
   19MOL   C249 7125   6.761   0.507   5.323 -0.1864  0.0696 -0.7919
   19MOL   C250 7126   6.704   0.526   5.185 -0.6064 -0.5127 -0.2396
   19MOL   C251 7127   6.565   0.476   5.183 -0.0064  0.0243 -0.3770
   19MOL   O252 7128   6.533   0.383   5.257 -0.5478 -0.0877  0.3303
   19MOL   N253 7129   6.482   0.548   5.108 -0.9600  0.2066  0.2810
   19MOL   C254 7130   6.339   0.545   5.112 -0.3376  0.2272 -0.2943
   19MOL   C255 7131   6.279   0.650   5.208 -0.1979  1.2276 -0.2581
   19MOL   C256 7132   6.299   0.585   4.969  0.2311  0.4009  0.2490
   19MOL   H257 7133   6.683   0.536   5.394  1.0936 -0.2546  0.7769
   19MOL   H258 7134   6.776   0.402   5.346  1.3037  0.5160  0.4148
   19MOL   H259 7135   6.709   0.634   5.167 -0.3191 -0.2456  1.3858
   19MOL   H260 7136   6.514   0.626   5.052  0.2601 -1.6779 -1.7243
   19MOL   H261 7137   6.298   0.451   5.149  0.6148 -0.4172 -0.8492
   19MOL   H262 7138   6.277   0.757   5.189  1.0778  1.5447  1.3264
   19MOL   H263 7139   6.178   0.614   5.228  0.8277 -1.5775  0.0826
   19MOL   H264 7140   6.326   0.638   5.305  0.6528 -0.6398 -0.8771
   19MOL   H265 7141   6.343   0.510   4.903  0.7077  0.5582  0.3863
   19MOL   H266 7142   6.192   0.573   4.957  0.3675  0.9797 -1.7257
   19MOL   H267 7143   6.309   0.688   4.936  0.4031  0.2663 -0.1183
   19MOL   C268 7144   6.795   0.454   5.078 -0.3102  0.2366 -0.2662
   19MOL   C269 7145   6.747   0.455   4.931 -0.2210 -0.0201 -0.1066
   19MOL   C270 7146   6.752   0.594   4.864 -0.2426 -0.3259  0.2171
   19MOL   O271 7147   6.650   0.641   4.813 -0.2170 -0.2658  0.4521
   19MOL   N272 7148   6.867   0.659   4.875 -0.2102 -0.5099 -0.0089
   19MOL   C273 7149   6.891   0.802   4.840 -0.4361  0.4621  0.0386
   19MOL   C274 7150   7.011   0.857   4.913  0.1814 -0.8186  0.8573
   19MOL   C275 7151   6.897   0.808   4.682 -0.4905 -0.5841  0.3914
   19MOL   H276 7152   6.895   0.496   5.068 -0.7918  0.9791 -2.0945
   19MOL   H277 7153   6.809   0.351   5.112 -2.2408 -0.6116 -1.9430
   19MOL   H278 7154   6.648   0.410   4.926  0.1913 -0.8372 -0.9933
   19MOL   H279 7155   6.938   0.607   4.926 -1.1395 -1.7044  0.0918
   19MOL   H280 7156   6.806   0.849   4.891  0.3672  1.3063  0.6149
   19MOL   H281 7157   7.014   0.965   4.901 -1.1003 -0.9653 -0.9072
   19MOL   H282 7158   7.000   0.844   5.021 -0.0543 -1.9524  0.7018
   19MOL   H283 7159   7.100   0.815   4.867 -1.4002 -2.1712 -1.0393
   19MOL   H284 7160   6.988   0.768   4.638 -0.4744  0.2776 -0.3874
   19MOL   H285 7161   6.812   0.757   4.638 -1.0592 -0.1567  0.9926
   19MOL   H286 7162   6.884   0.914   4.658  0.6324 -0.7199 -0.8296
   19MOL   C287 7163   6.832   0.345   4.858 -0.6175 -0.1177  0.3088
   19MOL   C288 7164   6.769   0.283   4.726  0.1692  0.7020 -0.1110
   19MOL   C289 7165   6.647   0.202   4.761  0.3811  0.3749  0.7414
   19MOL   O290 7166   6.669   0.093   4.814 -0.3341 -0.5041  0.2388
   19MOL   N291 7167   6.533   0.250   4.714  0.6564 -0.3548 -0.3878
   19MOL   C292 7168   6.403   0.184   4.713 -0.0492 -0.2926  0.0829
   19MOL   C293 7169   6.332   0.190   4.848  0.0171 -0.7106  0.3233
   19MOL   C294 7170   6.312   0.254   4.610 -0.6512  0.5749 -0.3589
   19MOL   H295 7171   6.927   0.394   4.839 -0.6060 -0.9763 -1.9402
   19MOL   H296 7172   6.848   0.266   4.931 -0.7828 -0.4070  0.0304
   19MOL   H297 7173   6.731   0.371   4.673  0.6882  1.8936  1.4727
   19MOL   H298 7174   6.532   0.336   4.660 -2.1075  0.5547  1.0178
   19MOL   H299 7175   6.421   0.080   4.685  2.8846  0.4160 -0.8320
   19MOL   H300 7176   6.390   0.163   4.936  1.6806 -0.0006 -0.5341
   19MOL   H301 7177   6.285   0.287   4.864  0.8633 -0.2363 -0.0255
   19MOL   H302 7178   6.251   0.117   4.844 -1.5825  1.1086 -1.9342
   19MOL   H303 7179   6.358   0.259   4.512  1.0021 -0.2214  0.3539
   19MOL   H304 7180   6.226   0.193   4.582 -0.6727  0.0751  0.7393
   19MOL   H305 7181   6.280   0.356   4.632  0.5052  0.8421  0.1282
   19MOL   C306 7182   6.876   0.191   4.649  0.4495 -0.1140  0.2692
   19MOL   C307 7183   6.957   0.278   4.548 -0.4512  0.5274 -0.2295
   19MOL   C308 7184   6.869   0.327   4.431 -0.8045  0.2137  0.5325
   19MOL   O309 7185   6.854   0.448   4.409 -0.0137  0.1596 -0.1358
   19MOL   N310 7186   6.821   0.231   4.358  0.2371  0.2968 -0.3439
   19MOL   C311 7187   6.739   0.249   4.240 -0.7576  0.0691 -0.3529
   19MOL   C312 7188   6.814   0.211   4.112 -0.0356  0.1325 -0.0028
   19MOL   C313 7189   6.617   0.164   4.269 -0.9086  0.0439  0.4662
   19MOL   H314 7190   6.943   0.156   4.727 -0.0825 -0.2554  0.6692
   19MOL   H315 7191   6.835   0.101   4.603 -1.5156  2.4336 -3.3125
   19MOL   H316 7192   6.985   0.368   4.603  1.0670  0.6577 -1.1934
   19MOL   H317 7193   6.861   0.141   4.383  2.2671  0.4027 -2.9094
   19MOL   H318 7194   6.710   0.354   4.230  0.7480  0.7463  1.9642
   19MOL   H319 7195   6.878   0.292   4.076 -0.8809  0.5806 -0.5226
   19MOL   H320 7196   6.747   0.185   4.030 -0.6974 -0.7738  0.8232
   19MOL   H321 7197   6.879   0.124   4.122  1.1919  0.9407 -0.7146
   19MOL   H322 7198   6.532   0.185   4.204 -0.3971  0.0140 -0.2090
   19MOL   H323 7199   6.588   0.162   4.374 -2.1351 -0.8049  0.1142
   19MOL   H324 7200   6.646   0.061   4.248 -0.2768 -0.0124  1.5933
   19MOL   C325 7201   7.092   0.206   4.509 -0.5213 -0.4667  0.4929
   19MOL   C326 7202   7.205   0.308   4.467  0.0363  0.2945 -0.5932
   19MOL   C327 7203   7.318   0.321   4.568  0.5027 -0.7663  0.3057
   19MOL   O328 7204   7.436   0.287   4.540  0.0108  0.3007 -0.0743
   19MOL   N329 7205   7.290   0.401   4.673 -0.0515  0.7033 -0.5379
   19MOL   C330 7206   7.397   0.462   4.759 -0.0414 -0.9115 -0.8732
   19MOL   C331 7207   7.339   0.538   4.879  0.5445  0.6518  0.5859
   19MOL   C332 7208   7.484   0.545   4.671  0.5851 -0.9151 -0.5703
   19MOL   H333 7209   7.069   0.126   4.439 -1.6944  0.2552  0.0419
   19MOL   H334 7210   7.128   0.146   4.592 -0.2494 -0.2775  0.5142
   19MOL   H335 7211   7.161   0.408   4.465  1.3582  0.9027  0.2261
   19MOL   H336 7212   7.205   0.456   4.675 -0.0205  0.7942 -1.3123
   19MOL   H337 7213   7.459   0.382   4.801 -0.0581 -0.3083  0.3225
   19MOL   H338 7214   7.422   0.559   4.947  1.3783 -2.6914  0.6593
   19MOL   H339 7215   7.299   0.634   4.846 -0.1325 -0.4505 -1.9282
   19MOL   H340 7216   7.261   0.478   4.925  0.7658  0.6107  0.9131
   19MOL   H341 7217   7.429   0.611   4.605 -0.2953 -2.1972 -1.1332
   19MOL   H342 7218   7.541   0.488   4.597  2.0378 -0.6430  0.3268
   19MOL   H343 7219   7.558   0.607   4.721  0.6963 -1.7579  0.3176
   19MOL   C344 7220   7.264   0.263   4.329  0.3751  0.2718  0.9374
   19MOL   C345 7221   7.168   0.287   4.211 -0.3593 -0.5142 -0.7602
   19MOL   C346 7222   7.164   0.437   4.193 -0.1471 -0.4046 -0.4991
   19MOL   O347 7223   7.263   0.498   4.147  0.7755 -0.7274  0.2395
   19MOL   N348 7224   7.048   0.502   4.213 -1.0314  0.0344 -0.0556
   19MOL   C349 7225   7.011   0.638   4.188 -0.4581 -0.0377  0.0006
   19MOL   C350 7226   6.858   0.646   4.153 -0.4346 -1.2650 -0.5423
   19MOL   C351 7227   7.041   0.727   4.309 -0.1917 -0.1868 -0.2593
   19MOL   H352 7228   7.287   0.157   4.341 -0.0498  0.1868  1.0154
   19MOL   H353 7229   7.357   0.316   4.308  1.5390 -2.1025 -0.0905
   19MOL   H354 7230   7.069   0.248   4.237  0.1502 -0.6492  1.0919
   19MOL   H355 7231   6.981   0.445   4.265 -0.4174  0.0184  0.7317
   19MOL   H356 7232   7.081   0.673   4.113 -0.7735  1.5394  0.4130
   19MOL   H357 7233   6.786   0.632   4.233  1.1412 -2.1476  0.7363
   19MOL   H358 7234   6.828   0.744   4.118  1.1495 -1.1723 -1.7016
   19MOL   H359 7235   6.840   0.575   4.071 -0.5522 -0.7837 -0.9357
   19MOL   H360 7236   7.146   0.723   4.338 -0.1631  0.2254 -0.2999
   19MOL   H361 7237   7.018   0.831   4.284  1.7957  0.2840 -0.1920
   19MOL   H362 7238   6.979   0.718   4.398  0.1277 -0.7093 -0.0897
   19MOL   C363 7239   7.201   0.218   4.080 -0.0067  0.2454 -0.0983
   19MOL   C364 7240   7.209   0.063   4.095  0.4193 -0.3731 -0.4667
   19MOL   C365 7241   7.243   0.002   3.960 -0.2896 -0.2373  0.2174
   19MOL   O366 7242   7.157   7.817   3.878  0.5513  0.0735  0.4770
   19MOL   N367 7243   7.374   7.833   3.930 -0.0923 -0.1337  0.4204
   19MOL   C368 7244   7.431   7.786   3.805  0.2082  0.1063  0.3196
   19MOL   C369 7245   7.582   7.814   3.788  0.2589 -0.0400 -0.5174
   19MOL   C370 7246   7.407   7.640   3.790 -0.2737  0.2268 -0.1197
   19MOL   H371 7247   7.300   0.257   4.055  0.0941 -0.1909 -0.3911
   19MOL   H372 7248   7.126   0.254   4.010 -0.9126 -0.2553  0.6037
   19MOL   H373 7249   7.116   0.016   4.125  0.4366 -2.1979 -3.0321
   19MOL   H374 7250   7.445   0.041   3.986 -1.1932  1.3554  0.6738
   19MOL   H375 7251   7.378   0.006   3.728  1.3170  2.6966  1.3989
   19MOL   H376 7252   7.591   0.085   3.801  0.5993  0.1627 -2.2497
   19MOL   H377 7253   7.637   7.767   3.870 -0.2253 -0.1063 -0.2345
   19MOL   H378 7254   7.618   7.777   3.691  1.5365 -0.7279  0.1989
   19MOL   H379 7255   7.307   7.616   3.756  0.1508 -0.7305 -0.7223
   19MOL   H380 7256   7.465   7.592   3.711 -1.0409  1.2758 -1.3288
   19MOL   H381 7257   7.412   7.584   3.884  0.2001 -0.9180 -0.8226
   19MOL   H382 7258   7.290   0.034   4.162 -0.8914 -0.0630  1.2864
   20MOL     C1 7259   2.281   4.815   1.180 -0.0976 -0.1823 -0.4526
   20MOL     C2 7260   2.235   4.891   1.312  0.4188  0.1393 -0.3211
   20MOL     C3 7261   2.262   4.786   1.423 -0.0706  0.2450  0.5797
   20MOL     O4 7262   2.385   4.767   1.455 -0.1053  0.0104  0.6234
   20MOL     N5 7263   2.166   4.720   1.483  0.0097 -0.2672  0.3152
   20MOL     C6 7264   2.182   4.636   1.599 -0.0751 -0.3199 -0.6057
   20MOL     C7 7265   2.050   4.572   1.639 -0.0245 -0.5425  0.2547
   20MOL     C8 7266   2.291   4.528   1.601 -0.2513 -1.0444  0.3952
   20MOL     H9 7267   2.355   4.738   1.202 -1.3859 -1.2849  0.1843
   20MOL    H10 7268   2.322   4.876   1.100 -0.6206  1.6411  0.6398
   20MOL    H11 7269   2.129   4.916   1.312  0.9653  2.5774  0.5872
   20MOL    H12 7270   2.073   4.742   1.450  0.4922  0.8667 -0.3279
   20MOL    H13 7271   2.213   4.707   1.676 -0.3816 -1.5693  0.6728
   20MOL    H14 7272   2.052   4.510   1.730  2.9409  0.1804  0.7403
   20MOL    H15 7273   2.031   4.489   1.571  3.2508 -0.3115 -1.0625
   20MOL    H16 7274   1.973   4.649   1.641 -0.2612 -0.7839  0.8326
   20MOL    H17 7275   2.263   4.452   1.527  0.9461  1.5117 -2.8250
   20MOL    H18 7276   2.385   4.567   1.563 -0.9565 -0.2891 -0.6245
   20MOL    H19 7277   2.310   4.503   1.705 -0.8076  0.5469  0.8866
   20MOL    H20 7278   2.188   4.781   1.132  0.6194 -0.5695 -1.5930
   20MOL    C21 7279   2.321   5.018   1.317 -0.0106  0.0077  0.6867
   20MOL    C22 7280   2.320   5.103   1.445  0.2789  0.0436  0.5362
   20MOL    C23 7281   2.187   5.137   1.502 -0.2767 -0.7218  0.2578
   20MOL    O24 7282   2.114   5.223   1.448  0.4843  0.7177 -0.0994
   20MOL    N25 7283   2.150   5.089   1.620  0.3315  0.6204  0.0584
   20MOL    C26 7284   2.015   5.101   1.673 -0.1996  0.0168 -0.0055
   20MOL    C27 7285   1.990   5.236   1.727  0.5273  0.2820 -0.0445
   20MOL    C28 7286   1.982   4.988   1.775  1.0085  0.4755 -1.0432
   20MOL    H29 7287   2.283   5.084   1.239 -1.1748  0.7742  1.8746
   20MOL    H30 7288   2.424   4.993   1.294 -0.3323  0.0480 -0.8890
   20MOL    H31 7289   2.362   5.037   1.521 -0.2916 -1.7388 -0.6656
   20MOL    H32 7290   2.217   5.026   1.662 -1.9918 -1.5888  0.5434
   20MOL    H33 7291   1.943   5.085   1.593  0.3325 -1.6223 -0.1848
   20MOL    H34 7292   1.978   5.301   1.640  1.8367 -1.4500 -1.5771
   20MOL    H35 7293   2.068   5.276   1.790  0.3866 -1.7560  1.4885
   20MOL    H36 7294   1.898   5.242   1.785  0.4695 -0.6685 -0.0238
   20MOL    H37 7295   1.959   4.890   1.735  0.3347 -0.7926  2.2762
   20MOL    H38 7296   2.047   4.966   1.859  0.2080  0.9828 -0.2747
   20MOL    H39 7297   1.889   5.014   1.827  1.9890 -1.3011  1.6858
   20MOL    C40 7298   2.412   5.228   1.433 -0.0457 -0.1209 -0.0241
   20MOL    C41 7299   2.392   5.322   1.310 -0.5914  0.2204  0.5193
   20MOL    C42 7300   2.487   5.290   1.197 -0.0992  0.5619 -0.4000
   20MOL    O43 7301   2.607   5.302   1.205 -0.1382 -0.0367  0.1788
   20MOL    N44 7302   2.434   5.257   1.080 -0.0826 -0.4695 -0.2591
   20MOL    C45 7303   2.491   5.232   0.951 -0.5350 -0.4143  0.7152
   20MOL    C46 7304   2.590   5.331   0.895  0.5687 -0.3823  0.3149
   20MOL    C47 7305   2.524   5.090   0.930  0.1268 -0.3435 -0.4223
   20MOL    H48 7306   2.518   5.203   1.436  0.4033  1.6811 -0.2072
   20MOL    H49 7307   2.411   5.281   1.528  2.3749 -0.5441  0.2833
   20MOL    H50 7308   2.291   5.293   1.282 -1.1440 -0.3408  3.0598
   20MOL    H51 7309   2.339   5.292   1.078 -0.0983 -0.5738 -2.0012
   20MOL    H52 7310   2.406   5.244   0.884 -1.4514 -2.5724  1.4541
   20MOL    H53 7311   2.543   5.429   0.903  0.0628 -0.4841 -1.0973
   20MOL    H54 7312   2.606   5.311   0.789 -0.5121  0.6837 -0.0598
   20MOL    H55 7313   2.690   5.329   0.938  0.9355  0.6420 -0.4636
   20MOL    H56 7314   2.541   5.071   0.824  0.1693 -0.8591 -0.3253
   20MOL    H57 7315   2.443   5.025   0.963 -0.9161  1.6350  1.0126
   20MOL    H58 7316   2.605   5.068   1.000 -0.4034 -1.3040 -0.0990
   20MOL    C59 7317   2.393   5.474   1.337  0.1083 -0.1523  0.3858
   20MOL    C60 7318   2.333   5.577   1.235 -0.4418 -0.6825 -0.1435
   20MOL    C61 7319   2.200   5.520   1.186  0.5911  0.1176  0.3395
   20MOL    O62 7320   2.204   5.433   1.095 -0.4829 -0.3960 -0.0738
   20MOL    N63 7321   2.087   5.558   1.250 -0.0918 -0.0919  0.1448
   20MOL    C64 7322   1.958   5.502   1.214  0.1506  1.0396 -0.0802
   20MOL    C65 7323   1.876   5.472   1.336 -0.5737  0.0463  0.0748
   20MOL    C66 7324   1.890   5.574   1.090 -0.0265  0.1256 -0.0293
   20MOL    H67 7325   2.342   5.492   1.432  2.0997 -1.0134  1.6437
   20MOL    H68 7326   2.498   5.500   1.351  0.1281  0.3505 -0.6461
   20MOL    H69 7327   2.315   5.662   1.300 -0.5277 -0.3245 -0.6270
   20MOL    H70 7328   2.086   5.631   1.320 -0.7795  0.7178 -0.6959
   20MOL    H71 7329   1.966   5.402   1.171 -0.4552  0.2062  1.6925
   20MOL    H72 7330   1.786   5.413   1.317 -1.4021  1.1866  0.3842
   20MOL    H73 7331   1.947   5.446   1.415  0.3959  0.6459 -0.5808
   20MOL    H74 7332   1.839   5.566   1.377  0.6817  0.2304  0.8263
   20MOL    H75 7333   1.797   5.527   1.057  0.4665 -1.7582  1.1783
   20MOL    H76 7334   1.858   5.676   1.113  1.9550  1.3600 -2.5403
   20MOL    H77 7335   1.964   5.584   1.011 -0.2436  0.6204 -0.1719
   20MOL    C78 7336   2.425   5.623   1.119  0.8371 -0.8812  0.2169
   20MOL    C79 7337   2.574   5.662   1.146 -0.1101  0.3599 -0.5519
   20MOL    C80 7338   2.633   5.723   1.026 -0.3855  0.1337 -0.7359
   20MOL    O81 7339   2.602   5.832   0.979  0.4819  0.3021  0.4586
   20MOL    N82 7340   2.736   5.657   0.975 -0.5208 -0.0691  0.0763
   20MOL    C83 7341   2.814   5.698   0.857  0.4734  0.0606  0.0183
   20MOL    C84 7342   2.946   5.760   0.899 -0.6145 -0.1724  0.1188
   20MOL    C85 7343   2.837   5.589   0.748  0.4263  0.1238  0.0769
   20MOL    H86 7344   2.375   5.709   1.076  0.0080 -1.4149  0.1124
   20MOL    H87 7345   2.434   5.554   1.035 -0.0104  1.5716 -1.9569
   20MOL    H88 7346   2.624   5.570   1.177  1.3765  1.7380  1.2497
   20MOL    H89 7347   2.768   5.577   1.029 -2.1129 -1.1498 -0.5334
   20MOL    H90 7348   2.757   5.780   0.813  2.0717  1.1699  0.0187
   20MOL    H91 7349   3.008   5.806   0.822  0.9777 -3.3988 -0.6619
   20MOL    H92 7350   2.926   5.842   0.968 -0.0438 -0.4968  0.6765
   20MOL    H93 7351   3.012   5.692   0.955  1.5410  1.1420 -0.7705
   20MOL    H94 7352   2.864   5.496   0.799  0.9987  0.5291  0.5124
   20MOL    H95 7353   2.912   5.619   0.675  1.4951 -1.1475  0.6360
   20MOL    H96 7354   2.744   5.565   0.696  0.0552  1.8753 -0.0883
   20MOL    C97 7355   2.590   5.768   1.265  0.4624 -0.3563  0.5154
   20MOL    C98 7356   2.728   5.822   1.293 -0.1341  0.0691  0.0587
   20MOL    C99 7357   2.819   5.710   1.339  0.6461  0.2388  0.9220
   20MOL   O100 7358   2.801   5.669   1.455 -0.3366 -0.2593 -0.2472
   20MOL   N101 7359   2.915   5.666   1.261 -0.1259  0.2132  0.4869
   20MOL   C102 7360   3.012   5.558   1.291 -0.3588 -0.2581  0.2044
   20MOL   C103 7361   2.953   5.420   1.245 -0.4774  0.2812  0.1416
   20MOL   C104 7362   3.160   5.592   1.258  0.7335 -0.2513 -0.4733
   20MOL   H105 7363   2.551   5.722   1.356  2.2236 -0.0202  1.4605
   20MOL   H106 7364   2.522   5.848   1.236  0.6793 -1.3267 -2.8751
   20MOL   H107 7365   2.771   5.865   1.203 -1.1535  2.2050  0.5645
   20MOL   H108 7366   2.920   5.699   1.166 -1.0401  0.4815  0.5247
   20MOL   H109 7367   3.022   5.537   1.397 -0.2039 -0.3611  0.1695
   20MOL   H110 7368   3.019   5.340   1.278 -0.9800 -0.3153 -0.2882
   20MOL   H111 7369   2.853   5.400   1.283 -1.0571  1.1364 -0.9061
   20MOL   H112 7370   2.950   5.422   1.136 -1.5889  0.6752  0.1750
   20MOL   H113 7371   3.234   5.528   1.307  0.9304  1.0265  0.9533
   20MOL   H114 7372   3.193   5.685   1.306  1.9216 -1.0030  0.1896
   20MOL   H115 7373   3.180   5.603   1.151 -1.8756  0.7016 -0.9036
   20MOL   C116 7374   2.713   5.938   1.394  0.3162 -0.1394 -0.8424
   20MOL   C117 7375   2.834   6.028   1.425 -0.1955 -1.1592 -0.5465
   20MOL   C118 7376   2.894   6.104   1.307  0.2575  0.2975 -0.8344
   20MOL   O119 7377   2.922   6.051   1.202  0.2409 -0.8501  0.1342
   20MOL   N120 7378   2.928   6.230   1.334 -0.4859  0.6048 -0.1836
   20MOL   C121 7379   2.999   6.316   1.239 -0.4937  1.3227  0.4667
   20MOL   C122 7380   2.921   6.439   1.203  0.0302  0.0036 -0.0091
   20MOL   C123 7381   3.134   6.366   1.303 -0.6498  0.1037 -0.7923
   20MOL   H124 7382   2.658   5.896   1.478  0.8682 -3.6673 -2.1703
   20MOL   H125 7383   2.642   6.002   1.343 -0.4692  0.4162  0.9248
   20MOL   H126 7384   2.790   6.107   1.487 -2.0990 -0.7722 -2.3102
   20MOL   H127 7385   2.911   6.262   1.428  1.8947 -1.2036  0.9154
   20MOL   H128 7386   3.042   6.259   1.157 -0.4249 -0.1118  1.4737
   20MOL   H129 7387   2.985   6.486   1.129 -0.6818 -2.7921 -2.5281
   20MOL   H130 7388   2.915   6.509   1.286  0.9831  0.7659 -0.5861
   20MOL   H131 7389   2.823   6.431   1.157  1.5786  1.3511 -3.7162
   20MOL   H132 7390   3.200   6.285   1.334 -3.9028 -2.3381  0.1010
   20MOL   H133 7391   3.197   6.428   1.239  0.4379 -2.1576 -1.9630
   20MOL   H134 7392   3.112   6.420   1.395 -1.1048  0.0656 -0.8791
   20MOL   C135 7393   2.940   5.960   1.514  0.6951  0.3859  0.3902
   20MOL   C136 7394   2.973   6.023   1.652 -0.3137 -0.0167 -0.0325
   20MOL   C137 7395   3.050   6.151   1.637 -0.3641  0.9006 -0.0648
   20MOL   O138 7396   3.000   6.257   1.597  0.0755  0.7611 -0.0038
   20MOL   N139 7397   3.175   6.154   1.676 -0.7104  0.4017 -0.4100
   20MOL   C140 7398   3.270   6.269   1.671 -0.5887  0.5353  0.7208
   20MOL   C141 7399   3.407   6.203   1.661  0.3595  0.3845  0.0283
   20MOL   C142 7400   3.252   6.376   1.775 -0.2659 -0.7673  0.1466
   20MOL   H143 7401   3.032   5.955   1.455 -0.6199 -0.3668 -1.6517
   20MOL   H144 7402   2.917   5.857   1.539  1.9811  0.0918  0.3932
   20MOL   H145 7403   3.029   5.947   1.705 -3.2355 -0.8496  2.0019
   20MOL   H146 7404   3.215   6.066   1.705 -2.9116 -1.5373 -2.9750
   20MOL   H147 7405   3.249   6.328   1.582  0.6878 -1.1675 -0.7374
   20MOL   H148 7406   3.429   6.150   1.754 -3.0095  1.1491  1.3232
   20MOL   H149 7407   3.405   6.144   1.570 -0.8078 -0.5313  0.6361
   20MOL   H150 7408   3.486   6.275   1.638 -0.0445  0.7707 -0.1679
   20MOL   H151 7409   3.160   6.435   1.779 -1.5592 -2.8588  3.8175
   20MOL   H152 7410   3.338   6.442   1.787 -1.3897  0.7441 -0.0233
   20MOL   H153 7411   3.245   6.318   1.867 -0.4639 -0.8322  0.0908
   20MOL   C154 7412   2.851   6.039   1.741  0.0242 -0.0378  0.0653
   20MOL   C155 7413   2.859   5.964   1.873 -0.0362 -0.2733  0.0476
   20MOL   C156 7414   2.723   5.971   1.942 -0.4070 -0.3302 -0.0342
   20MOL   O157 7415   2.679   6.075   1.988 -0.3581  0.1845 -0.1479
   20MOL   N158 7416   2.653   5.857   1.930 -0.0995  0.0741 -0.4488
   20MOL   C159 7417   2.513   5.851   1.951 -0.6472  0.6931  0.6719
   20MOL   C160 7418   2.484   5.718   2.019  0.5360 -0.0662  0.2022
   20MOL   C161 7419   2.451   5.857   1.810  0.0573 -0.2024 -0.3577
   20MOL   H162 7420   2.767   5.998   1.685  1.7648 -2.6656 -0.6911
   20MOL   H163 7421   2.830   6.145   1.758  1.9137  0.0707  1.9333
   20MOL   H164 7422   2.892   5.863   1.846  0.0790  0.4314 -2.6135
   20MOL   H165 7423   2.688   5.764   1.915  0.7390  0.3971 -0.4987
   20MOL   H166 7424   2.476   5.923   2.023  0.8637  1.2035  0.9678
   20MOL   H167 7425   2.376   5.714   2.034  0.6617  3.3650  2.5454
   20MOL   H168 7426   2.513   5.631   1.961 -1.3252 -0.6913  0.1665
   20MOL   H169 7427   2.532   5.706   2.116  0.1940  0.1765  0.4005
   20MOL   H170 7428   2.479   5.769   1.753 -2.6938 -1.9486  0.8772
   20MOL   H171 7429   2.480   5.942   1.748  0.4953 -1.1467 -1.4587
   20MOL   H172 7430   2.344   5.863   1.831  0.1786 -1.0022  0.5412
   20MOL   C173 7431   2.965   6.032   1.958 -0.2092  0.4507 -0.5352
   20MOL   C174 7432   2.977   5.994   2.110 -0.2761  0.4605  0.8078
   20MOL   C175 7433   2.997   5.843   2.125 -0.5603  0.1440 -0.0600
   20MOL   O176 7434   3.075   5.779   2.056 -0.0552 -0.0070  0.1084
   20MOL   N177 7435   2.917   5.783   2.216  0.0393  0.2186  0.7798
   20MOL   C178 7436   2.937   5.646   2.262 -0.9620  0.1223 -0.0612
   20MOL   C179 7437   2.803   5.569   2.243 -0.6343 -0.6595  0.4941
   20MOL   C180 7438   2.980   5.645   2.407 -0.2478  0.3605 -0.3165
   20MOL   H181 7439   2.958   6.141   1.955 -1.8225  0.4192  1.2211
   20MOL   H182 7440   3.065   6.022   1.915  0.0400  0.8591 -0.0634
   20MOL   H183 7441   2.883   6.012   2.160 -1.6018  1.1741 -1.8494
   20MOL   H184 7442   2.853   5.840   2.270  1.1125  0.4352  1.8371
   20MOL   H185 7443   3.000   5.587   2.196  0.5138  0.5055  1.0023
   20MOL   H186 7444   2.800   5.468   2.282  1.3983 -0.8464  0.2362
   20MOL   H187 7445   2.778   5.561   2.137  1.4317  3.6326 -0.4374
   20MOL   H188 7446   2.725   5.635   2.282 -1.2738 -1.2425  0.2014
   20MOL   H189 7447   2.908   5.695   2.471 -0.2633  0.9092 -0.7538
   20MOL   H190 7448   3.083   5.681   2.415 -0.7658  2.0797 -1.2459
   20MOL   H191 7449   2.976   5.547   2.455 -0.8357  0.1196 -0.8488
   20MOL   C192 7450   3.095   6.074   2.173 -0.2304 -0.4224  1.6086
   20MOL   C193 7451   3.088   6.088   2.327 -0.0442  0.5156 -0.5838
   20MOL   C194 7452   2.966   6.163   2.361  0.1931 -0.2914  0.3689
   20MOL   O195 7453   2.875   6.097   2.417  0.1134 -0.0988  0.8539
   20MOL   N196 7454   2.959   6.290   2.329  0.1863  0.7573 -0.6555
   20MOL   C197 7455   2.830   6.363   2.337  0.0951 -0.1758 -0.7687
   20MOL   C198 7456   2.866   6.508   2.386 -0.0653  0.3092 -0.0166
   20MOL   C199 7457   2.757   6.361   2.203  0.1381 -0.3590  0.0756
   20MOL   H200 7458   3.100   6.176   2.135  0.1669 -1.1743 -0.4491
   20MOL   H201 7459   3.191   6.034   2.139 -1.3105 -2.1953  0.5507
   20MOL   H202 7460   3.086   5.985   2.364 -2.6590  0.8849  0.4076
   20MOL   H203 7461   3.041   6.336   2.291 -0.0791  0.3623 -1.7211
   20MOL   H204 7462   2.767   6.321   2.416 -1.0158 -0.1487 -1.6267
   20MOL   H205 7463   2.775   6.566   2.371 -0.7643 -0.7187  0.1700
   20MOL   H206 7464   2.941   6.548   2.317 -1.8000 -2.5311 -3.7733
   20MOL   H207 7465   2.901   6.522   2.488 -1.6740 -1.2734  0.7861
   20MOL   H208 7466   2.804   6.417   2.123 -0.1589 -0.8740 -0.4617
   20MOL   H209 7467   2.663   6.413   2.221  1.4538  1.7708  1.0759
   20MOL   H210 7468   2.739   6.259   2.172  1.1481 -0.2533 -0.8726
   20MOL   C211 7469   3.213   6.155   2.387  0.7735  0.1362  0.1864
   20MOL   C212 7470   3.214   6.146   2.540 -0.1863  1.0802  0.3621
   20MOL   C213 7471   3.214   6.007   2.594 -0.4361  0.3099 -0.2736
   20MOL   O214 7472   3.304   5.929   2.566  1.0291 -0.4021 -0.3092
   20MOL   N215 7473   3.119   5.967   2.685 -0.4953  0.1957  0.3082
   20MOL   C216 7474   3.121   5.857   2.780 -0.7105  0.0702 -0.2050
   20MOL   C217 7475   3.001   5.751   2.762  0.5626 -0.3088  0.2463
   20MOL   C218 7476   3.114   5.913   2.932 -0.0810  0.3708 -0.1249
   20MOL   H219 7477   3.222   6.261   2.366  1.4827 -0.0594 -0.5151
   20MOL   H220 7478   3.297   6.105   2.339 -0.1598 -1.6685  0.3754
   20MOL   H221 7479   3.129   6.200   2.583  0.2314  0.7109  1.6650
   20MOL   H222 7480   3.036   6.023   2.698  1.1518  2.3818  1.8289
   20MOL   H223 7481   3.211   5.795   2.774 -0.6885  0.0045  0.7277
   20MOL   H224 7482   2.905   5.798   2.781 -0.4351 -2.2534  0.1022
   20MOL   H225 7483   2.997   5.702   2.665 -0.7175  1.7921 -0.7902
   20MOL   H226 7484   3.012   5.670   2.834 -0.0166  1.1138  1.9666
   20MOL   H227 7485   3.035   5.985   2.950 -0.3885 -0.6241  2.7185
   20MOL   H228 7486   3.205   5.970   2.953 -0.6948  0.7070  1.6410
   20MOL   H229 7487   3.118   5.837   3.010  0.8560  0.9777  0.4317
   20MOL   C230 7488   3.336   6.211   2.596  0.1298  0.2940 -0.1711
   20MOL   C231 7489   3.309   6.336   2.679  0.0727  0.4681  0.5002
   20MOL   C232 7490   3.258   6.311   2.824 -0.4903 -0.5028 -0.0375
   20MOL   O233 7491   3.295   6.222   2.899 -0.3990  0.2527  0.0764
   20MOL   N234 7492   3.154   6.385   2.863 -0.1447  0.2425  0.3929
   20MOL   C235 7493   3.101   6.386   2.999 -0.3841 -0.1594 -0.2515
   20MOL   C236 7494   3.199   6.449   3.103  0.0364  0.6330  1.2168
   20MOL   C237 7495   2.959   6.451   2.997  0.3635 -0.2454  0.2130
   20MOL   H238 7496   3.408   6.227   2.516  1.3570  0.2299  0.8954
   20MOL   H239 7497   3.394   6.142   2.658  0.1349  0.1288 -0.3599
   20MOL   H240 7498   3.228   6.390   2.629  0.9662 -0.3854 -1.9173
   20MOL   H241 7499   3.115   6.455   2.801  1.4262  0.3283 -0.5278
   20MOL   H242 7500   3.091   6.284   3.036  0.3595 -0.1747 -0.0987
   20MOL   H243 7501   3.215   6.549   3.064 -2.5719  0.5974 -0.1158
   20MOL   H244 7502   3.155   6.457   3.202 -1.9095  1.5814  0.3128
   20MOL   H245 7503   3.298   6.403   3.103 -0.0119  0.4628 -0.7454
   20MOL   H246 7504   2.921   6.430   3.097 -0.0580  2.3498  0.6201
   20MOL   H247 7505   2.897   6.390   2.931  1.8900 -1.2338 -0.3440
   20MOL   H248 7506   2.963   6.557   2.973 -0.7743 -0.3264 -0.3563
   20MOL   C249 7507   3.445   6.422   2.685  0.2882  0.6065  0.0540
   20MOL   C250 7508   3.443   6.554   2.773  0.2699  0.1741  0.7448
   20MOL   C251 7509   3.323   6.645   2.750 -0.1346 -0.1695 -0.3035
   20MOL   O252 7510   3.261   6.695   2.841  0.1426 -0.0930 -0.5016
   20MOL   N253 7511   3.294   6.669   2.625 -0.0582 -0.0219 -0.1288
   20MOL   C254 7512   3.171   6.728   2.585  0.4990  0.7084  0.0645
   20MOL   C255 7513   3.176   6.879   2.609 -0.0322 -0.4328 -0.1031
   20MOL   C256 7514   3.154   6.702   2.435 -0.8642  0.4217 -0.7164
   20MOL   H257 7515   3.463   6.450   2.582  0.3849  0.7294  0.1036
   20MOL   H258 7516   3.525   6.362   2.728  0.1553 -0.2317 -0.8666
   20MOL   H259 7517   3.442   6.521   2.877 -1.9821 -3.9186 -0.4330
   20MOL   H260 7518   3.356   6.635   2.552  0.9846 -1.8848  1.5822
   20MOL   H261 7519   3.091   6.683   2.645  0.6461  0.2719 -0.0633
   20MOL   H262 7520   3.261   6.933   2.569 -0.5928  1.0058  0.6164
   20MOL   H263 7521   3.089   6.924   2.561  0.6009  1.6209  0.6363
   20MOL   H264 7522   3.166   6.912   2.712  1.6160  1.2446 -0.4779
   20MOL   H265 7523   3.232   6.760   2.387  0.6324  0.7375  2.0188
   20MOL   H266 7524   3.173   6.598   2.411  1.3293  0.8620 -0.9419
   20MOL   H267 7525   3.059   6.724   2.385 -2.0907  0.1806  1.4517
   20MOL   C268 7526   3.575   6.628   2.759  0.0307 -0.6020 -0.1796
   20MOL   C269 7527   3.606   6.702   2.885 -0.7440  0.3768 -0.6777
   20MOL   C270 7528   3.677   6.610   2.990 -0.7864 -0.0400 -0.3493
   20MOL   O271 7529   3.770   6.532   2.954  0.0139 -0.3111  0.0649
   20MOL   N272 7530   3.651   6.616   3.120 -0.4415  0.1950  0.0164
   20MOL   C273 7531   3.711   6.553   3.239  0.5205  0.3057  0.1117
   20MOL   C274 7532   3.806   6.642   3.311 -0.0289  0.1692  0.1287
   20MOL   C275 7533   3.595   6.509   3.334 -0.4713  0.1495 -0.3445
   20MOL   H276 7534   3.651   6.555   2.728 -0.7922 -1.2099 -0.7890
   20MOL   H277 7535   3.570   6.694   2.673  0.8914  1.1046  1.0495
   20MOL   H278 7536   3.511   6.730   2.930 -0.4117 -0.3055  0.4517
   20MOL   H279 7537   3.569   6.671   3.144 -0.1543  0.2414  0.9207
   20MOL   H280 7538   3.764   6.468   3.196 -0.3285  0.4358 -1.2198
   20MOL   H281 7539   3.767   6.743   3.319  2.5696  1.3183 -0.9400
   20MOL   H282 7540   3.825   6.616   3.415 -1.2695  1.6171  0.7318
   20MOL   H283 7541   3.906   6.647   3.267  1.2562 -1.0699  2.7638
   20MOL   H284 7542   3.557   6.598   3.383  1.5554 -0.0202  1.6255
   20MOL   H285 7543   3.525   6.456   3.270 -0.0016 -0.4868 -0.3380
   20MOL   H286 7544   3.631   6.453   3.420 -1.2351  0.3889  0.1390
   20MOL   C287 7545   3.691   6.830   2.854  0.2733 -0.5017 -0.5039
   20MOL   C288 7546   3.620   6.961   2.874 -0.4480  0.4035  0.6271
   20MOL   C289 7547   3.564   6.971   3.017  0.5737 -0.3408 -0.7934
   20MOL   O290 7548   3.637   6.994   3.111 -0.1412  0.0546 -0.5338
   20MOL   N291 7549   3.429   6.962   3.029 -0.4232  0.7733  0.2099
   20MOL   C292 7550   3.351   6.947   3.153  0.0350 -0.3090  0.1088
   20MOL   C293 7551   3.195   6.982   3.124 -0.8005 -0.6957 -0.2551
   20MOL   C294 7552   3.365   6.796   3.204 -0.2275  0.4678  0.3401
   20MOL   H295 7553   3.772   6.849   2.924  1.8577  0.6341 -2.6111
   20MOL   H296 7554   3.739   6.824   2.756 -0.8750 -0.2397 -1.0947
   20MOL   H297 7555   3.695   7.039   2.863  1.0103 -0.6220  2.7883
   20MOL   H298 7556   3.374   6.949   2.946 -0.2089  1.4303 -0.0386
   20MOL   H299 7557   3.384   7.013   3.233 -0.9084 -0.7318  0.8661
   20MOL   H300 7558   3.143   6.894   3.088  0.3960 -1.6602  0.3493
   20MOL   H301 7559   3.149   6.995   3.222  1.4867 -2.3862  1.0863
   20MOL   H302 7560   3.174   7.070   3.063  0.4871  0.7398  1.3325
   20MOL   H303 7561   3.311   6.767   3.294 -0.2379 -1.5162 -0.2642
   20MOL   H304 7562   3.339   6.730   3.120  3.5908  0.0977 -0.6607
   20MOL   H305 7563   3.469   6.769   3.224 -0.4776  0.1236  1.2136
   20MOL   C306 7564   3.510   6.984   2.765 -0.8383 -0.2935 -0.1844
   20MOL   C307 7565   3.480   7.136   2.759  0.1809 -0.5972 -0.4303
   20MOL   C308 7566   3.355   7.169   2.681 -0.6045  0.1576 -1.2053
   20MOL   O309 7567   3.359   7.156   2.561  0.3642 -0.8147  0.0998
   20MOL   N310 7568   3.255   7.220   2.752  0.1783 -0.2623 -0.3903
   20MOL   C311 7569   3.132   7.282   2.709  0.4827 -0.6789  0.3360
   20MOL   C312 7570   3.055   7.321   2.835 -0.0472  0.3569 -0.0365
   20MOL   C313 7571   3.169   7.418   2.630  0.7152 -0.2938  0.2088
   20MOL   H314 7572   3.558   6.958   2.670  0.3627 -0.2776  0.4173
   20MOL   H315 7573   3.417   6.926   2.767 -1.8711  1.3018 -0.3908
   20MOL   H316 7574   3.461   7.174   2.859 -0.0857 -1.4301 -0.1626
   20MOL   H317 7575   3.274   7.225   2.851 -0.6623  2.8094 -0.3410
   20MOL   H318 7576   3.076   7.216   2.643 -1.5732  1.6432 -0.2817
   20MOL   H319 7577   3.017   7.242   2.900  0.0877 -0.4058 -0.8603
   20MOL   H320 7578   2.966   7.377   2.806 -0.1881 -0.6716 -1.7047
   20MOL   H321 7579   3.115   7.393   2.888 -0.0522 -0.4137  1.0353
   20MOL   H322 7580   3.079   7.457   2.583 -0.0867 -0.5053  1.5330
   20MOL   H323 7581   3.242   7.400   2.552  0.4788 -1.6372  0.2730
   20MOL   H324 7582   3.200   7.498   2.697  0.8948 -1.7206  1.8699
   20MOL   C325 7583   3.594   7.229   2.701 -0.2848  0.4012 -0.6465
   20MOL   C326 7584   3.589   7.383   2.737  0.7467  0.1432  0.0003
   20MOL   C327 7585   3.571   7.411   2.887 -0.9147 -0.5727 -0.2086
   20MOL   O328 7586   3.662   7.381   2.966  0.4206 -0.7442 -0.4442
   20MOL   N329 7587   3.457   7.466   2.925  0.1380 -0.2617  0.0397
   20MOL   C330 7588   3.413   7.494   3.056 -0.4548  0.1321 -0.0587
   20MOL   C331 7589   3.353   7.357   3.122  0.2672 -0.8617 -0.7924
   20MOL   C332 7590   3.312   7.612   3.053 -0.2956 -0.1587 -0.3856
   20MOL   H333 7591   3.609   7.210   2.595 -0.3136  3.2560 -1.2021
   20MOL   H334 7592   3.688   7.193   2.742 -0.4186  0.0028 -0.6782
   20MOL   H335 7593   3.491   7.415   2.703  0.3432 -2.1714 -1.1485
   20MOL   H336 7594   3.395   7.505   2.856 -0.3914 -0.3305  0.4771
   20MOL   H337 7595   3.494   7.527   3.121 -1.5345  1.7055  0.4997
   20MOL   H338 7596   3.251   7.345   3.086 -0.2252  1.2696 -0.1678
   20MOL   H339 7597   3.416   7.273   3.094 -0.2546 -1.3732 -0.4314
   20MOL   H340 7598   3.353   7.377   3.229  3.4905  0.3076 -0.9546
   20MOL   H341 7599   3.367   7.705   3.037 -0.8501  0.3696  0.7319
   20MOL   H342 7600   3.251   7.611   3.143 -1.0742 -1.6791 -0.9172
   20MOL   H343 7601   3.239   7.605   2.972  0.4933  2.5483 -1.3889
   20MOL   C344 7602   3.695   7.462   2.661  0.1747  0.3497 -0.3878
   20MOL   C345 7603   3.843   7.475   2.709  0.4794  0.0601  0.5986
   20MOL   C346 7604   3.914   7.342   2.735  0.3291 -0.3821  0.5480
   20MOL   O347 7605   3.947   7.267   2.640 -0.0736 -0.2329 -0.6694
   20MOL   N348 7606   3.927   7.319   2.864 -0.0984 -0.6926 -0.9210
   20MOL   C349 7607   3.972   7.200   2.925 -0.3876  0.3921 -0.5378
   20MOL   C350 7608   4.124   7.191   2.948 -1.0764 -0.3519 -0.2079
   20MOL   C351 7609   3.898   7.176   3.054  0.3670  0.1707  0.4168
   20MOL   H352 7610   3.653   7.560   2.639  1.2514  1.2129  1.3088
   20MOL   H353 7611   3.709   7.420   2.561 -2.7648  1.0051 -1.1055
   20MOL   H354 7612   3.842   7.533   2.802 -0.2443 -0.2060  0.7640
   20MOL   H355 7613   3.888   7.394   2.920 -1.1537 -0.3478 -2.0987
   20MOL   H356 7614   3.938   7.117   2.862 -1.8975 -0.0928  0.8661
   20MOL   H357 7615   4.158   7.294   2.951  2.0974 -1.3902  1.0338
   20MOL   H358 7616   4.156   7.142   3.039 -2.5641 -0.0615  0.4904
   20MOL   H359 7617   4.159   7.149   2.853  1.5744  0.7110  0.2679
   20MOL   H360 7618   3.789   7.186   3.051  0.3007 -0.2860  1.1992
   20MOL   H361 7619   3.926   7.082   3.101 -0.6977 -0.4510 -0.1521
   20MOL   H362 7620   3.924   7.243   3.135 -0.6423  0.5002  0.4786
   20MOL   C363 7621   3.914   7.567   2.607 -0.3743 -0.3972 -0.3836
   20MOL   C364 7622   3.998   7.679   2.679 -0.5687 -0.5487 -0.0841
   20MOL   C365 7623   3.940   7.819   2.684  0.4508 -0.0131 -0.4331
   20MOL   O366 7624   3.822   0.004   2.661  0.6502 -0.1874 -0.5494
   20MOL   N367 7625   4.027   0.078   2.707  1.4002  0.2887  0.4049
   20MOL   C368 7626   3.997   0.219   2.698  0.3625 -0.2080 -0.2431
   20MOL   C369 7627   4.008   0.307   2.824  0.3709 -0.0015  0.3898
   20MOL   C370 7628   4.076   0.283   2.581  0.3491 -0.6228  0.5551
   20MOL   H371 7629   3.850   7.617   2.534  1.7722  0.2194 -1.9012
   20MOL   H372 7630   3.989   7.511   2.551 -0.6354 -1.2529  0.1150
   20MOL   H373 7631   4.089   7.685   2.618 -0.5310  0.8054  0.0910
   20MOL   H374 7632   4.124   0.052   2.724  1.2500 -1.0983 -0.6902
   20MOL   H375 7633   3.892   0.233   2.670 -0.3358 -1.4717  1.5808
   20MOL   H376 7634   4.110   0.302   2.862  0.8370 -1.4327 -1.0050
   20MOL   H377 7635   3.988   0.413   2.806 -3.5533 -0.9088 -1.2725
   20MOL   H378 7636   3.932   0.261   2.887  1.2832 -0.1929  1.3612
   20MOL   H379 7637   4.037   0.229   2.495 -1.0028  1.2819 -0.0762
   20MOL   H380 7638   4.063   0.391   2.569 -0.9714 -0.8781 -0.4255
   20MOL   H381 7639   4.181   0.278   2.607  1.1429  0.6408 -2.2017
   20MOL   H382 7640   4.020   7.647   2.781  1.3396  1.7459  0.2680
   21MOL     C1 7641   3.926   0.994   0.973  0.1139 -0.0497 -0.1020
   21MOL     C2 7642   3.895   0.871   0.887  0.4806  0.1178 -0.3414
   21MOL     C3 7643   4.024   0.824   0.827 -0.9382  0.2120 -0.1347
   21MOL     O4 7644   4.095   0.748   0.897 -0.2342 -0.0350 -0.0972
   21MOL     N5 7645   4.068   0.878   0.708  0.6023  0.0364 -0.4273
   21MOL     C6 7646   4.201   0.865   0.644  0.2695  0.2962 -0.1206
   21MOL     C7 7647   4.183   0.864   0.490 -0.3754  0.0363  0.0590
   21MOL     C8 7648   4.301   0.973   0.697  0.0312  0.3284 -0.2698
   21MOL     H9 7649   3.985   1.059   0.908 -1.2315 -0.0044 -1.3109
   21MOL    H10 7650   3.979   0.957   1.061 -0.5210 -0.0890  0.2704
   21MOL    H11 7651   3.830   0.916   0.811 -0.8589  1.4327  1.5381
   21MOL    H12 7652   4.003   0.944   0.668 -1.8384 -0.7066  2.1072
   21MOL    H13 7653   4.241   0.766   0.661 -1.1073 -0.8202 -3.0195
   21MOL    H14 7654   4.087   0.838   0.444  1.2365 -2.9302 -1.7476
   21MOL    H15 7655   4.255   0.798   0.443 -0.3291 -0.3170  0.6281
   21MOL    H16 7656   4.210   0.955   0.437  0.3597 -1.0601 -1.4964
   21MOL    H17 7657   4.407   0.955   0.676 -0.4758 -0.7057 -2.0491
   21MOL    H18 7658   4.265   1.071   0.666 -0.5224  0.4125  0.6473
   21MOL    H19 7659   4.300   0.982   0.805  3.9677  0.7531 -0.1725
   21MOL    H20 7660   3.834   1.043   1.004  0.0470 -0.6070  0.5928
   21MOL    C21 7661   3.828   0.762   0.969  0.7318  0.2003 -0.5332
   21MOL    C22 7662   3.768   0.631   0.893 -0.3073  0.2354  0.2517
   21MOL    C23 7663   3.626   0.663   0.842 -0.1896  0.2860 -0.9782
   21MOL    O24 7664   3.544   0.708   0.926 -0.3798 -0.1278 -0.4059
   21MOL    N25 7665   3.586   0.635   0.718 -0.4671 -0.3148  0.3730
   21MOL    C26 7666   3.452   0.617   0.677  0.1937 -0.2769 -0.1061
   21MOL    C27 7667   3.418   0.483   0.606  0.3477  0.7169  0.5303
   21MOL    C28 7668   3.419   0.740   0.596  0.1122  0.0833  0.3266
   21MOL    H29 7669   3.749   0.811   1.026  1.5589 -0.0746  0.8860
   21MOL    H30 7670   3.902   0.745   1.048  0.6216  4.9628  0.7800
   21MOL    H31 7671   3.837   0.623   0.810  0.0739  0.5854  0.5343
   21MOL    H32 7672   3.649   0.570   0.673  0.5963 -0.0538  1.4608
   21MOL    H33 7673   3.394   0.613   0.770 -1.5643  1.1805 -1.0822
   21MOL    H34 7674   3.464   0.489   0.508 -0.8009 -0.6728 -0.1105
   21MOL    H35 7675   3.309   0.485   0.600  0.3840  0.1916 -0.3154
   21MOL    H36 7676   3.463   0.396   0.653 -0.5257 -0.8553 -1.4762
   21MOL    H37 7677   3.442   0.834   0.646  0.8967  0.1989 -0.2341
   21MOL    H38 7678   3.485   0.732   0.510 -0.7581 -0.4462 -0.3062
   21MOL    H39 7679   3.316   0.743   0.561  0.3421  0.2017 -0.3577
   21MOL    C40 7680   3.775   0.509   0.986 -0.0701 -0.1460  0.5136
   21MOL    C41 7681   3.882   0.412   0.946  0.1858  0.6426  0.2158
   21MOL    C42 7682   3.857   0.350   0.806 -0.3853  0.5661 -0.2585
   21MOL    O43 7683   3.749   0.365   0.744  0.2413  0.0074  0.7205
   21MOL    N44 7684   3.958   0.280   0.761 -0.2122  0.0416 -0.1287
   21MOL    C45 7685   3.982   0.218   0.636  0.7998 -0.2790 -0.0903
   21MOL    C46 7686   4.124   0.236   0.584  1.1055  0.4133  0.4280
   21MOL    C47 7687   3.949   0.073   0.654  0.1679  0.4897  0.5200
   21MOL    H48 7688   3.683   0.452   0.976 -0.2403  0.5139 -2.0044
   21MOL    H49 7689   3.788   0.541   1.090  0.0389  1.4741  0.0113
   21MOL    H50 7690   3.975   0.468   0.931  1.2843 -1.0751  0.4777
   21MOL    H51 7691   4.034   0.266   0.826  1.3992  2.4461 -1.4369
   21MOL    H52 7692   3.913   0.273   0.572  0.5831  2.1973  2.2051
   21MOL    H53 7693   4.188   0.192   0.661  1.7807  0.2325 -0.2357
   21MOL    H54 7694   4.149   0.342   0.593  2.0775  0.2375 -0.1648
   21MOL    H55 7695   4.147   0.190   0.488 -2.1596 -0.1394 -0.1380
   21MOL    H56 7696   3.962   0.026   0.556  0.2309 -0.2759  0.8922
   21MOL    H57 7697   3.848   0.054   0.690  0.2899  0.4562  0.8510
   21MOL    H58 7698   4.021   0.023   0.718 -0.2380 -0.2281  0.4241
   21MOL    C59 7699   3.908   0.302   1.061 -0.3984 -1.0751 -0.3730
   21MOL    C60 7700   4.046   0.317   1.129 -0.5379 -0.1018  0.5012
   21MOL    C61 7701   4.168   0.304   1.039 -0.7186  0.0205  0.2726
   21MOL    O62 7702   4.171   0.211   0.961 -0.1544 -0.1434  0.0127
   21MOL    N63 7703   4.252   0.411   1.048 -0.4369 -0.2331 -0.2610
   21MOL    C64 7704   4.368   0.435   0.963  0.0324  0.3603 -0.1243
   21MOL    C65 7705   4.328   0.519   0.846  0.2326  0.7806  0.2158
   21MOL    C66 7706   4.483   0.492   1.047  0.2338  0.6297 -0.4413
   21MOL    H67 7707   3.825   0.320   1.129 -0.5240  0.3081 -0.8787
   21MOL    H68 7708   3.894   0.202   1.020  2.5815 -2.2972  1.3928
   21MOL    H69 7709   4.054   0.418   1.170 -2.1828 -0.0381  0.6936
   21MOL    H70 7710   4.240   0.473   1.127  0.0053  1.9591 -1.8385
   21MOL    H71 7711   4.410   0.341   0.926  0.4722  1.1799 -1.7165
   21MOL    H72 7712   4.269   0.604   0.881 -1.7018 -1.0580  1.5221
   21MOL    H73 7713   4.414   0.555   0.789  1.4117 -2.2887 -0.0582
   21MOL    H74 7714   4.259   0.468   0.778  1.1635  0.7020 -0.6864
   21MOL    H75 7715   4.571   0.522   0.991  0.3530 -1.0297 -1.1474
   21MOL    H76 7716   4.452   0.582   1.101  1.7917  0.4315  0.8180
   21MOL    H77 7717   4.517   0.424   1.125 -0.6137  0.4259 -0.2489
   21MOL    C78 7718   4.052   0.206   1.241 -0.0366 -0.3660 -0.2121
   21MOL    C79 7719   4.186   0.204   1.329 -0.0268 -0.0661  1.0922
   21MOL    C80 7720   4.213   0.336   1.403 -0.1743  0.4875  0.0541
   21MOL    O81 7721   4.127   0.427   1.425 -0.2777  0.2976 -0.4030
   21MOL    N82 7722   4.341   0.345   1.447  0.4994  0.2487 -0.1445
   21MOL    C83 7723   4.399   0.446   1.531  0.1008  0.3656  0.1280
   21MOL    C84 7724   4.441   0.391   1.666  0.0905 -0.4893 -0.4687
   21MOL    C85 7725   4.508   0.515   1.455  0.4389 -0.4273 -0.1238
   21MOL    H86 7726   4.039   0.111   1.189 -1.5977 -0.5614  0.4900
   21MOL    H87 7727   3.969   0.216   1.310  0.2926 -0.6159  0.2202
   21MOL    H88 7728   4.265   0.178   1.259 -0.8970 -2.7407  1.0335
   21MOL    H89 7729   4.397   0.266   1.418  0.0328 -0.1649  0.0544
   21MOL    H90 7730   4.330   0.528   1.550 -0.2216  0.4335 -1.2779
   21MOL    H91 7731   4.353   0.361   1.724  1.2931 -0.4967  1.3846
   21MOL    H92 7732   4.501   0.301   1.660 -2.6754 -2.6330  2.3501
   21MOL    H93 7733   4.498   0.462   1.726  0.2889 -1.1531  0.1265
   21MOL    H94 7734   4.451   0.573   1.382 -1.3492  3.0236  3.7905
   21MOL    H95 7735   4.572   0.443   1.404  1.1618  2.0357 -2.8361
   21MOL    H96 7736   4.576   0.585   1.504  1.0348 -0.7943 -0.4294
   21MOL    C97 7737   4.195   0.080   1.426  0.0750 -0.1908  0.2981
   21MOL    C98 7738   4.297   7.804   1.401  0.5467  0.1334 -0.5369
   21MOL    C99 7739   4.442   0.009   1.412 -0.9835 -0.3625 -0.0941
   21MOL   O100 7740   4.476   0.120   1.371 -0.0964  0.2990  0.4400
   21MOL   N101 7741   4.528   7.763   1.473  0.9002 -0.2424 -0.1335
   21MOL   C102 7742   4.673   7.769   1.456  0.7210  0.3021 -0.6943
   21MOL   C103 7743   4.733   0.001   1.576 -0.2513  0.0515  0.2845
   21MOL   C104 7744   4.741   7.635   1.439 -0.1023 -0.4946  0.0953
   21MOL   H105 7745   4.097   0.040   1.449  0.2401 -0.5632  0.3571
   21MOL   H106 7746   4.226   0.118   1.524  1.7043 -1.0291  0.1300
   21MOL   H107 7747   4.276   7.740   1.487 -1.0199  0.8253 -0.3902
   21MOL   H108 7748   4.496   7.670   1.495 -1.0887  0.7058  1.1342
   21MOL   H109 7749   4.713   7.819   1.367 -0.6852  0.9612 -0.9717
   21MOL   H110 7750   4.738   7.773   1.664  0.2675 -0.8864 -0.4204
   21MOL   H111 7751   4.836   0.015   1.542 -1.4414  1.6026 -2.8137
   21MOL   H112 7752   4.700   0.104   1.590  2.2541  1.1595 -1.6056
   21MOL   H113 7753   4.700   7.563   1.510  1.8795 -1.8630 -0.1008
   21MOL   H114 7754   4.849   7.637   1.428 -0.2525 -0.9819 -1.6723
   21MOL   H115 7755   4.710   7.598   1.341  0.0620  1.3455 -0.6619
   21MOL   C116 7756   4.274   7.730   1.262 -0.2824 -0.2282  0.1350
   21MOL   C117 7757   4.316   7.584   1.232  0.1271  0.2013 -0.0365
   21MOL   C118 7758   4.294   7.490   1.354 -0.1782 -0.8489 -0.4025
   21MOL   O119 7759   4.377   7.496   1.444  0.2071  0.0375  0.4811
   21MOL   N120 7760   4.190   7.410   1.355  0.4411  0.0847 -0.2423
   21MOL   C121 7761   4.165   7.321   1.470 -0.3072 -0.1349  0.4699
   21MOL   C122 7762   4.074   7.379   1.572  0.0426 -0.3388 -0.4219
   21MOL   C123 7763   4.117   7.189   1.394 -0.0910  0.3748 -0.4873
   21MOL   H124 7764   4.307   7.797   1.184  0.7664 -0.1253  0.6646
   21MOL   H125 7765   4.165   7.734   1.253 -0.2230  4.0586  0.4517
   21MOL   H126 7766   4.242   7.557   1.156 -1.0170  1.2921  0.6681
   21MOL   H127 7767   4.132   7.398   1.273  1.0598 -0.8925 -0.5510
   21MOL   H128 7768   4.259   7.289   1.514  0.5053 -1.2162 -1.9533
   21MOL   H129 7769   4.071   7.296   1.643  1.7900  0.0850  0.1723
   21MOL   H130 7770   3.978   7.419   1.540  0.1282  1.5154  1.5394
   21MOL   H131 7771   4.127   7.462   1.618 -1.7532  0.1269  0.8488
   21MOL   H132 7772   4.194   7.137   1.337 -0.5476 -0.4923 -0.3262
   21MOL   H133 7773   4.084   7.112   1.464 -1.7647  0.8732 -0.7117
   21MOL   H134 7774   4.037   7.212   1.323 -0.2760  1.2562 -0.0010
   21MOL   C135 7775   4.456   7.570   1.170  0.1647 -0.4613  0.9128
   21MOL   C136 7776   4.444   7.586   1.013  0.1151  0.1691 -0.0270
   21MOL   C137 7777   4.560   7.644   0.949  0.0262  0.2318  0.8414
   21MOL   O138 7778   4.675   7.599   0.964 -0.2122 -0.4190  0.1700
   21MOL   N139 7779   4.532   7.751   0.875  0.0120  0.4119  0.1223
   21MOL   C140 7780   4.629   0.002   0.815 -0.7702 -0.1162  0.3174
   21MOL   C141 7781   4.668   0.097   0.919 -0.8385  0.2572 -0.1437
   21MOL   C142 7782   4.584   0.065   0.690  0.0782  0.2714 -0.4420
   21MOL   H143 7783   4.519   7.484   1.193 -0.8270 -1.5139 -0.2469
   21MOL   H144 7784   4.515   7.652   1.211 -0.2650  0.4090 -0.1811
   21MOL   H145 7785   4.358   7.646   0.980 -0.9941 -1.6681 -0.5251
   21MOL   H146 7786   4.435   7.777   0.876 -0.3948 -1.0865  0.6023
   21MOL   H147 7787   4.718   7.782   0.788 -0.9486 -1.5702  2.6226
   21MOL   H148 7788   4.687   0.057   1.018  0.5977 -0.2190 -0.6056
   21MOL   H149 7789   4.758   0.149   0.887 -0.5191 -0.4941 -0.4583
   21MOL   H150 7790   4.596   0.177   0.939 -1.5604 -0.2453 -0.7165
   21MOL   H151 7791   4.652   0.141   0.651 -0.7609  0.8179 -0.8664
   21MOL   H152 7792   4.484   0.107   0.701 -0.5063 -0.5172 -2.5648
   21MOL   H153 7793   4.569   7.829   0.609 -0.0729  0.8324 -0.9258
   21MOL   C154 7794   4.425   7.443   0.954 -0.9462  0.3644 -0.0215
   21MOL   C155 7795   4.405   7.424   0.801  0.0091 -0.7002  0.2423
   21MOL   C156 7796   4.291   7.511   0.745 -0.9646 -0.1439 -0.4775
   21MOL   O157 7797   4.174   7.517   0.795  0.2933  0.4644 -0.1440
   21MOL   N158 7798   4.330   7.582   0.640 -1.0481 -0.1202  0.0155
   21MOL   C159 7799   4.233   7.652   0.551  0.7730  0.0614  1.3098
   21MOL   C160 7800   4.162   7.565   0.442  0.1706 -0.0012  0.7852
   21MOL   C161 7801   4.300   7.771   0.489 -0.2741 -0.0231  0.1102
   21MOL   H162 7802   4.333   7.396   0.989 -0.0437 -0.7630  0.8792
   21MOL   H163 7803   4.503   7.377   0.990 -1.6639  0.4978  1.8088
   21MOL   H164 7804   4.500   7.458   0.759 -0.0403  0.8897  1.3698
   21MOL   H165 7805   4.429   7.590   0.621 -1.4659  0.0050 -2.2297
   21MOL   H166 7806   4.143   7.689   0.599 -0.1542 -0.6596  0.1370
   21MOL   H167 7807   4.233   7.542   0.362 -1.7758 -0.6976 -0.7826
   21MOL   H168 7808   4.123   7.467   0.468 -0.1243  0.1264  0.8232
   21MOL   H169 7809   4.081   7.625   0.402  0.2232  0.6809  1.6999
   21MOL   H170 7810   4.302   0.015   0.562  1.1639  0.5022 -0.4899
   21MOL   H171 7811   4.236   7.807   0.409  0.8270 -0.7268 -1.1126
   21MOL   H172 7812   4.398   7.749   0.446 -0.7034 -0.0377 -0.8881
   21MOL   C173 7813   4.375   7.275   0.775 -0.2813  0.0838 -0.0132
   21MOL   C174 7814   4.343   7.236   0.630 -0.3961 -0.3516  0.2195
   21MOL   C175 7815   4.468   7.266   0.541  0.7837 -0.5997  0.0250
   21MOL   O176 7816   4.569   7.206   0.570 -0.2110 -0.5222  0.8463
   21MOL   N177 7817   4.459   7.365   0.444 -0.2604  0.0104  0.3885
   21MOL   C178 7818   4.575   7.414   0.363  0.2915 -0.6033 -0.3032
   21MOL   C179 7819   4.581   7.565   0.353  0.0365  0.9437  0.2164
   21MOL   C180 7820   4.579   7.343   0.228 -0.2252 -0.3737 -0.0029
   21MOL   H181 7821   4.296   7.248   0.845  0.6383 -3.5499 -0.3149
   21MOL   H182 7822   4.464   7.221   0.807 -0.1240 -0.0395 -0.6458
   21MOL   H183 7823   4.262   7.304   0.602  1.1275  0.5534 -2.1616
   21MOL   H184 7824   4.367   7.407   0.438  0.0014  0.1570 -3.5740
   21MOL   H185 7825   4.670   7.390   0.411 -1.3643 -3.6966  1.6152
   21MOL   H186 7826   4.539   7.615   0.440 -2.0378  0.1100 -0.2563
   21MOL   H187 7827   4.523   7.601   0.267  1.3337 -0.6279 -1.3433
   21MOL   H188 7828   4.681   7.604   0.337  0.7212 -1.6669 -2.1410
   21MOL   H189 7829   4.479   7.356   0.187 -0.4280 -1.1379  0.2431
   21MOL   H190 7830   4.597   7.238   0.250 -1.0556 -0.2659  1.1872
   21MOL   H191 7831   4.652   7.391   0.162  0.5167 -0.2183  0.9241
   21MOL   C192 7832   4.301   7.087   0.622  0.0316 -0.3718 -0.4274
   21MOL   C193 7833   4.241   7.034   0.483  0.0685  0.4550  0.1050
   21MOL   C194 7834   4.352   7.003   0.382 -0.5872  0.0761 -0.8398
   21MOL   O195 7835   4.367   7.085   0.293  0.5668 -0.0863  0.0604
   21MOL   N196 7836   4.424   6.885   0.404 -0.3461  0.3224 -0.4658
   21MOL   C197 7837   4.525   6.830   0.312  0.3995 -0.8723 -0.1477
   21MOL   C198 7838   4.665   6.854   0.374 -0.1761  0.0622  0.2084
   21MOL   C199 7839   4.492   6.681   0.285 -0.4259  0.0787 -0.1576
   21MOL   H200 7840   4.226   7.075   0.700 -1.5651 -0.1946 -1.9177
   21MOL   H201 7841   4.375   7.016   0.657 -0.5596 -1.2352 -0.9227
   21MOL   H202 7842   4.188   6.942   0.506 -1.4580  1.5864  1.1263
   21MOL   H203 7843   4.415   6.840   0.494 -1.7991  2.2313  0.3743
   21MOL   H204 7844   4.538   6.883   0.218 -2.3999 -0.0433 -0.1245
   21MOL   H205 7845   4.672   6.963   0.373 -0.1992  0.0606 -0.6227
   21MOL   H206 7846   4.744   6.802   0.320 -0.4047  0.4957 -0.5590
   21MOL   H207 7847   4.665   6.823   0.478  2.1776 -2.5410 -0.4924
   21MOL   H208 7848   4.560   6.644   0.209 -0.9909 -2.5184  0.5266
   21MOL   H209 7849   4.388   6.666   0.256 -0.4280 -0.0905 -0.0632
   21MOL   H210 7850   4.503   6.621   0.376  1.0744  1.3054  0.4949
   21MOL   C211 7851   4.138   7.134   0.423 -0.0636 -0.7381 -0.0534
   21MOL   C212 7852   4.049   7.083   0.305  0.1517  0.0653  0.0247
   21MOL   C213 7853   3.965   6.963   0.349  0.8148 -0.2230 -0.4965
   21MOL   O214 7854   3.910   6.968   0.457 -0.2643 -0.0500  0.1875
   21MOL   N215 7855   3.979   6.857   0.269 -0.6440 -0.2723  0.4846
   21MOL   C216 7856   3.940   6.726   0.311  0.3318  0.1638  0.2023
   21MOL   C217 7857   4.036   6.627   0.244  0.4555  0.3956  0.4646
   21MOL   C218 7858   3.797   6.693   0.252 -0.1195 -0.2662 -0.3327
   21MOL   H219 7859   4.184   7.231   0.403 -2.6556  0.4309 -0.4451
   21MOL   H220 7860   4.074   7.169   0.505 -1.2624  1.2553 -1.7803
   21MOL   H221 7861   4.122   7.056   0.229 -0.1940 -0.6501 -0.0532
   21MOL   H222 7862   4.001   6.865   0.171 -0.3001 -1.3950  0.4591
   21MOL   H223 7863   3.923   6.714   0.418 -1.8265  0.2529 -0.1119
   21MOL   H224 7864   4.021   6.531   0.293  1.6540  1.5194  3.1717
   21MOL   H225 7865   4.025   6.612   0.137 -1.9564 -0.1770  0.7520
   21MOL   H226 7866   4.141   6.649   0.263  0.6717 -0.9513  0.8917
   21MOL   H227 7867   3.763   6.590   0.262  1.1373 -0.5294  1.7445
   21MOL   H228 7868   3.783   6.725   0.149 -2.6740  2.5946  0.8414
   21MOL   H229 7869   3.720   6.741   0.313 -0.8817 -0.5161 -1.0961
   21MOL   C230 7870   3.978   7.206   0.245 -0.4421  0.2034 -0.8015
   21MOL   C231 7871   4.054   7.293   0.146 -0.8903  0.7433  0.0131
   21MOL   C232 7872   4.082   7.217   0.010 -0.3400 -0.4424 -0.6661
   21MOL   O233 7873   3.995   7.223   7.758 -0.2319  0.2136  0.2425
   21MOL   N234 7874   4.208   7.154   7.835  0.3355 -0.2034 -0.0939
   21MOL   C235 7875   4.235   7.059   7.728  0.4901  0.2168 -0.0730
   21MOL   C236 7876   4.387   7.040   7.733 -0.3043  0.6131  0.4386
   21MOL   C237 7877   4.159   6.920   7.763  0.5456 -0.6520  0.4790
   21MOL   H238 7878   3.933   7.270   0.321  0.4640  0.5980 -0.5912
   21MOL   H239 7879   3.893   7.165   0.191 -0.9013 -1.7649  1.3515
   21MOL   H240 7880   4.149   7.297   0.199 -0.9393 -0.1146  0.1620
   21MOL   H241 7881   4.279   7.162   0.071 -0.2732 -1.1312  0.6085
   21MOL   H242 7882   4.205   7.098   7.631 -1.7282 -1.6485 -0.1797
   21MOL   H243 7883   4.448   7.129   7.748 -0.9783  1.1390  0.0575
   21MOL   H244 7884   4.427   6.973   7.810  1.0311  1.0028  0.1081
   21MOL   H245 7885   4.411   7.007   7.632 -2.7248  2.0730 -0.6474
   21MOL   H246 7886   4.052   6.931   7.780  0.5923 -0.7178  0.8389
   21MOL   H247 7887   4.197   6.895   0.026  4.0118  2.9895  0.1980
   21MOL   H248 7888   4.175   6.832   7.701 -1.6659 -1.4371  0.9987
   21MOL   C249 7889   4.003   7.440   0.135 -0.6919 -0.5732 -0.1998
   21MOL   C250 7890   4.060   7.523   0.018  0.7888 -0.0042  0.2174
   21MOL   C251 7891   4.219   7.533   0.016  0.0817 -0.5105  0.2191
   21MOL   O252 7892   4.281   7.517   0.124  0.1187  1.0954  0.7446
   21MOL   N253 7893   4.284   7.545   7.738  0.5499  0.6910 -0.2890
   21MOL   C254 7894   4.432   7.568   7.727  1.2183  0.8419  0.1838
   21MOL   C255 7895   4.506   7.437   7.705  0.3230  0.0783 -1.0189
   21MOL   C256 7896   4.456   7.664   7.603 -0.0291 -0.2025 -0.3394
   21MOL   H257 7897   4.029   7.492   0.227 -1.0247  0.0767 -0.4684
   21MOL   H258 7898   3.894   7.441   0.128 -0.8557  0.2381  2.2022
   21MOL   H259 7899   4.031   7.471   7.763  0.0551  0.3892  0.2310
   21MOL   H260 7900   4.232   7.555   7.652 -0.0018 -0.4177 -0.0997
   21MOL   H261 7901   4.465   7.605   7.824  0.9162  0.9555  0.2431
   21MOL   H262 7902   4.468   7.386   7.617  3.1625  0.9359 -2.7763
   21MOL   H263 7903   4.610   7.468   7.698  0.4181  0.4175  1.2551
   21MOL   H264 7904   4.477   7.354   7.770  0.9535 -1.9901 -3.3433
   21MOL   H265 7905   4.413   7.760   7.629 -1.2466  0.1055 -3.2973
   21MOL   H266 7906   4.559   7.692   7.584  0.6587  0.3807  3.7224
   21MOL   H267 7907   4.418   7.613   7.514  2.1084 -2.2661 -0.1292
   21MOL   C268 7908   4.005   7.661   0.006  0.2300  0.1368 -0.7817
   21MOL   C269 7909   3.865   7.669   7.773 -0.0030 -0.6446  0.5666
   21MOL   C270 7910   3.784   7.792   7.821 -0.1783  0.1083  0.1478
   21MOL   O271 7911   3.769   0.051   7.749 -0.4001 -0.1676  0.1509
   21MOL   N272 7912   3.743   7.794   0.108  0.6158  0.1679  0.1231
   21MOL   C273 7913   3.692   0.072   0.182  0.7236  0.1493 -0.8953
   21MOL   C274 7914   3.540   0.065   0.178  0.1598  0.8488  0.1084
   21MOL   C275 7915   3.740   0.080   0.331 -0.2263  0.0750  0.4379
   21MOL   H276 7916   4.006   7.698   0.109  1.4569 -3.5090  0.6310
   21MOL   H277 7917   4.081   7.721   7.793  0.5631 -0.4626 -1.0034
   21MOL   H278 7918   3.804   7.588   7.814  1.4738 -1.4503  1.2171
   21MOL   H279 7919   3.769   7.716   0.168 -0.3027 -1.6144 -1.7302
   21MOL   H280 7920   3.731   0.164   0.139 -0.4176  1.6084  1.1427
   21MOL   H281 7921   3.491   7.825   0.239  2.1752 -0.2932  0.3349
   21MOL   H282 7922   3.496   0.160   0.208  1.6408  1.5385  0.1200
   21MOL   H283 7923   3.517   0.047   0.072  1.8649 -0.3396 -0.0752
   21MOL   H284 7924   3.714   7.827   0.387 -1.7062 -1.8416 -3.1936
   21MOL   H285 7925   3.848   0.097   0.338 -0.7179  4.1435 -0.7290
   21MOL   H286 7926   3.709   0.176   0.373  0.8071  0.2496  0.8180
   21MOL   C287 7927   3.874   7.660   7.614  0.3858 -1.1568 -0.7946
   21MOL   C288 7928   3.828   7.525   7.549 -0.2240 -0.7015 -0.2087
   21MOL   C289 7929   3.865   7.514   7.401  0.7902 -0.4188  0.2000
   21MOL   O290 7930   3.979   7.543   7.361  0.0704 -0.2719 -0.0805
   21MOL   N291 7931   3.775   7.472   7.309 -0.7253  0.5890  0.2529
   21MOL   C292 7932   3.804   7.450   7.170 -0.8461 -0.0111 -0.6121
   21MOL   C293 7933   3.879   7.318   7.146 -0.2361  0.3639  0.0694
   21MOL   C294 7934   3.687   7.469   7.079  0.8718 -0.5584 -0.2562
   21MOL   H295 7935   3.823   7.736   7.556  0.2239  0.8402  1.9022
   21MOL   H296 7936   3.978   7.668   7.584  0.3275 -0.1864 -0.7257
   21MOL   H297 7937   3.890   7.448   7.595 -1.5539  0.5969  3.9928
   21MOL   H298 7938   3.684   7.440   7.340 -1.5278  3.3818  0.9141
   21MOL   H299 7939   3.883   7.518   7.138 -1.1088  1.1290  1.1343
   21MOL   H300 7940   3.886   7.300   7.039 -4.8664 -3.2704  0.2090
   21MOL   H301 7941   3.978   7.316   7.192 -0.5378 -0.6312  0.6995
   21MOL   H302 7942   3.818   7.234   7.182  1.1878  0.3616  2.6494
   21MOL   H303 7943   3.630   7.377   7.084 -4.1528  2.3441 -0.3617
   21MOL   H304 7944   3.642   7.561   7.117 -0.3557 -0.7885 -1.1359
   21MOL   H305 7945   3.715   7.487   6.975 -0.1386  0.8747 -0.3068
   21MOL   C306 7946   3.676   7.492   7.580  0.2488 -0.0106  0.3201
   21MOL   C307 7947   3.651   7.347   7.630  0.3652  0.0585  0.4141
   21MOL   C308 7948   3.680   7.240   7.520 -0.1979  0.0109  1.0605
   21MOL   O309 7949   3.611   7.243   7.418 -0.2355  0.2432  0.2463
   21MOL   N310 7950   3.755   7.136   7.557 -0.9109 -0.3268  0.9457
   21MOL   C311 7951   3.797   7.020   7.480  0.0368  0.2255  0.6158
   21MOL   C312 7952   3.945   7.006   7.486  0.3649 -0.3000 -0.1998
   21MOL   C313 7953   3.729   6.894   7.530 -0.0412 -0.6583  0.2080
   21MOL   H314 7954   3.636   7.551   7.662  1.6951  1.5825 -0.0944
   21MOL   H315 7955   3.609   7.509   7.497 -0.9397  2.6070  1.7755
   21MOL   H316 7956   3.735   7.331   7.698  2.3703 -0.8972 -2.2096
   21MOL   H317 7957   3.790   7.130   7.651 -0.0846 -1.1287  0.5951
   21MOL   H318 7958   3.764   7.054   7.382  0.3832  2.1637  1.1611
   21MOL   H319 7959   3.987   7.011   7.586 -0.8748  1.2758  0.2631
   21MOL   H320 7960   3.997   7.081   7.426 -0.9574  0.5467 -0.3327
   21MOL   H321 7961   3.984   6.916   7.440  2.2420  0.7846 -0.7642
   21MOL   H322 7962   3.775   6.810   7.477  1.1023  0.0567  0.0570
   21MOL   H323 7963   3.623   6.895   7.504  0.2969 -1.8529 -1.3111
   21MOL   H324 7964   3.745   6.885   7.638 -0.5873 -0.9006  0.2732
   21MOL   C325 7965   3.516   7.318   7.699  0.8423  0.0239 -0.1609
   21MOL   C326 7966   3.526   7.301   0.015  0.2711  0.0352 -0.2616
   21MOL   C327 7967   3.590   7.162   0.049 -0.1651 -0.0641  0.0215
   21MOL   O328 7968   3.691   7.114   7.836  0.4849  0.0968  0.5400
   21MOL   N329 7969   3.513   7.094   0.128  0.2536 -0.1017 -0.3479
   21MOL   C330 7970   3.543   6.964   0.192  0.3898 -0.0538  0.9793
   21MOL   C331 7971   3.469   6.853   0.117  0.0706 -0.0005 -0.4531
   21MOL   C332 7972   3.499   6.955   0.340  0.1502 -0.0380 -0.1635
   21MOL   H333 7973   3.487   7.222   7.656 -2.9342  0.9194  0.2138
   21MOL   H334 7974   3.433   7.387   7.679  1.5321  0.4971 -1.4704
   21MOL   H335 7975   3.422   7.297   0.046 -0.2177  1.5755 -1.6555
   21MOL   H336 7976   3.432   7.142   0.165  0.4601 -0.7139  0.9221
   21MOL   H337 7977   3.651   6.947   0.195  0.4690  0.4059  0.8478
   21MOL   H338 7978   3.483   6.857   0.009 -2.6559 -4.3248 -1.0804
   21MOL   H339 7979   3.508   6.757   0.150 -0.2911  1.0172  3.0628
   21MOL   H340 7980   3.362   6.873   0.122  0.1061  0.0082  0.2528
   21MOL   H341 7981   3.496   6.849   0.366 -1.5456 -0.0606 -0.3752
   21MOL   H342 7982   3.402   6.991   0.373  0.1377  0.5696 -0.8486
   21MOL   H343 7983   3.573   7.006   0.401 -0.8350  0.9657  0.2143
   21MOL   C344 7984   3.596   7.418   0.093  0.3574  0.2812 -0.3628
   21MOL   C345 7985   3.563   7.418   0.249 -1.3125  0.6578 -0.0711
   21MOL   C346 7986   3.680   7.470   0.330  0.2170 -0.4021  0.6757
   21MOL   O347 7987   3.743   7.562   0.288  0.1548 -0.2069  0.3346
   21MOL   N348 7988   3.704   7.415   0.451 -0.4981  0.2509  0.3411
   21MOL   C349 7989   3.823   7.449   0.530  0.2631  0.8589  0.2126
   21MOL   C350 7990   3.794   7.580   0.604  0.1820 -0.1953  0.2796
   21MOL   C351 7991   3.852   7.342   0.629  0.4928  0.7049 -0.7609
   21MOL   H352 7992   3.567   7.512   0.044 -2.2070 -0.4214 -0.2668
   21MOL   H353 7993   3.699   7.410   0.059  0.4548  0.7760 -0.1969
   21MOL   H354 7994   3.564   7.315   0.285 -0.5921  0.1837 -1.4172
   21MOL   H355 7995   3.654   7.330   0.473 -0.3058  0.2030  0.6004
   21MOL   H356 7996   3.911   7.474   0.470 -2.1586  0.7631 -3.5027
   21MOL   H357 7997   3.731   7.565   0.692  0.6939 -0.7892  0.5486
   21MOL   H358 7998   3.886   7.632   0.630  0.3451 -0.1434 -0.3862
   21MOL   H359 7999   3.742   7.647   0.535 -0.3403 -1.9909 -1.1169
   21MOL   H360 8000   3.915   7.388   0.705 -0.2882 -0.5168  0.6501
   21MOL   H361 8001   3.760   7.305   0.673 -0.0180  0.1332 -2.2652
   21MOL   H362 8002   3.911   7.258   0.592 -2.6031 -2.2529  0.8036
   21MOL   C363 8003   3.430   7.506   0.281  0.9677  0.1476 -0.2521
   21MOL   C364 8004   3.326   7.461   0.380  1.0494 -0.8197  0.2487
   21MOL   C365 8005   3.247   7.343   0.327  0.7932  0.0076  0.2326
   21MOL   O366 8006   3.308   7.242   0.302  0.8902 -0.3114 -0.1685
   21MOL   N367 8007   3.111   7.361   0.300 -0.0739  0.3370  0.2911
   21MOL   C368 8008   3.023   7.250   0.254  0.0383  0.4898  0.6455
   21MOL   C369 8009   2.916   7.245   0.359  0.0480  0.2022 -0.2012
   21MOL   C370 8010   2.971   7.276   0.118  0.1151  0.0122  0.2555
   21MOL   H371 8011   3.381   7.514   0.184 -0.5326  0.7217  0.5337
   21MOL   H372 8012   3.460   7.606   0.313 -0.1329  1.0602 -1.9935
   21MOL   H373 8013   3.251   7.537   0.401  0.8495 -0.8485 -0.3474
   21MOL   H374 8014   3.061   7.441   0.336 -1.7268  0.4638 -2.1869
   21MOL   H375 8015   3.079   7.157   0.249 -0.0724  0.5574 -2.3666
   21MOL   H376 8016   2.876   7.342   0.388  1.7024  0.7313  0.3983
   21MOL   H377 8017   2.833   7.181   0.329  0.6058 -1.9099  2.5323
   21MOL   H378 8018   2.951   7.181   0.440  2.8967  1.6808 -0.1868
   21MOL   H379 8019   2.911   7.366   0.106 -0.1142 -0.0001  1.2734
   21MOL   H380 8020   3.051   7.286   0.045  0.6033 -0.6170  0.7001
   21MOL   H381 8021   2.910   7.190   0.093 -1.5685  1.9077 -2.3962
   21MOL   H382 8022   3.367   7.439   0.479  0.6956 -1.3025  0.2871
   22MOL     C1 8023   3.769   4.777   0.890  0.2165  0.6089  0.5843
   22MOL     C2 8024   3.897   4.870   0.901  0.7089 -0.3282 -0.4979
   22MOL     C3 8025   4.018   4.819   0.822  0.2525  0.7618 -0.1094
   22MOL     O4 8026   4.116   4.893   0.804 -0.5741  0.7193 -0.0765
   22MOL     N5 8027   4.018   4.688   0.781 -0.4781 -0.0278 -0.3781
   22MOL     C6 8028   4.141   4.607   0.764  0.1921 -0.1060 -0.1093
   22MOL     C7 8029   4.111   4.464   0.812 -0.3966  0.4282  0.2688
   22MOL     C8 8030   4.197   4.620   0.622 -0.0669 -0.1341  0.1465
   22MOL     H9 8031   3.691   4.805   0.961 -1.7519  0.1005 -1.3042
   22MOL    H10 8032   3.780   4.669   0.897 -1.4213  0.0359 -3.7941
   22MOL    H11 8033   3.927   4.865   1.006  1.8486  0.3119 -0.7931
   22MOL    H12 8034   3.940   4.636   0.818 -0.8296  1.2836  0.7259
   22MOL    H13 8035   4.216   4.658   0.825 -1.1769  0.3150  1.2427
   22MOL    H14 8036   4.091   4.466   0.919 -0.4693 -1.0412  0.2990
   22MOL    H15 8037   4.188   4.390   0.790 -1.1544  0.0521 -1.2216
   22MOL    H16 8038   4.014   4.436   0.771 -0.2182  1.0679 -0.5974
   22MOL    H17 8039   4.200   4.724   0.588  0.2992 -0.6718 -1.5421
   22MOL    H18 8040   4.297   4.578   0.617  0.5167  1.2677 -0.3512
   22MOL    H19 8041   4.154   4.559   0.542  3.3002 -0.5081 -1.4964
   22MOL    H20 8042   3.730   4.793   0.789 -0.7345 -0.9449  0.6931
   22MOL    C21 8043   3.846   5.013   0.865  0.0498  0.3589 -0.3449
   22MOL    C22 8044   3.930   5.141   0.897  0.0755  0.5851 -0.4296
   22MOL    C23 8045   3.988   5.123   1.037 -0.4378 -0.0168  0.0181
   22MOL    O24 8046   3.922   5.157   1.137 -0.2966  0.0572 -0.8266
   22MOL    N25 8047   4.119   5.092   1.046 -0.9597 -0.3353  0.6383
   22MOL    C26 8048   4.207   5.087   1.159  0.3313 -0.1289  0.0513
   22MOL    C27 8049   4.299   5.213   1.162  0.5820  0.2917 -0.2112
   22MOL    C28 8050   4.293   4.964   1.164 -0.0859 -0.0593 -0.4752
   22MOL    H29 8051   3.745   5.026   0.903  0.4514 -0.0220  0.8552
   22MOL    H30 8052   3.835   5.024   0.757  1.8637 -1.7745 -0.7792
   22MOL    H31 8053   4.009   5.138   0.822  0.8939 -1.6801  0.4948
   22MOL    H32 8054   4.161   5.072   0.956  2.2339  3.2071  1.1905
   22MOL    H33 8055   4.141   5.104   1.244  0.5328  0.0832  0.1656
   22MOL    H34 8056   4.254   5.311   1.145 -0.5886 -0.2865 -0.5594
   22MOL    H35 8057   4.381   5.200   1.092  0.7152 -0.4485  0.0798
   22MOL    H36 8058   4.345   5.224   1.260 -0.8907  0.6574  0.4595
   22MOL    H37 8059   4.233   4.878   1.194 -0.7107  0.6490  0.3508
   22MOL    H38 8060   4.343   4.939   1.070 -0.0546 -0.5203 -0.3338
   22MOL    H39 8061   4.355   4.987   1.250  1.3673  0.0365 -1.5315
   22MOL    C40 8062   3.869   5.282   0.866  0.0002  0.6137 -0.6495
   22MOL    C41 8063   3.968   5.392   0.848  0.5638 -0.4241 -0.1067
   22MOL    C42 8064   3.931   5.513   0.935 -0.2502 -0.4184  0.0926
   22MOL    O43 8065   3.846   5.595   0.896  0.5033  0.3300  0.6030
   22MOL    N44 8066   3.991   5.540   1.044  0.0353  0.2813  0.3097
   22MOL    C45 8067   3.940   5.602   1.162 -0.5981 -0.6505 -0.5635
   22MOL    C46 8068   4.007   5.538   1.284 -0.9879 -0.1859 -0.1664
   22MOL    C47 8069   3.964   5.757   1.176 -0.0397 -0.2359  0.3258
   22MOL    H48 8070   3.804   5.308   0.949  0.4815 -1.8849  0.5592
   22MOL    H49 8071   3.808   5.279   0.776  0.0967  2.1702 -0.7730
   22MOL    H50 8072   4.066   5.363   0.886  0.3674 -0.2273  0.5643
   22MOL    H51 8073   4.078   5.490   1.058 -1.2077 -1.5599  1.9038
   22MOL    H52 8074   3.831   5.591   1.169 -0.5698  0.6069  2.7003
   22MOL    H53 8075   3.958   5.442   1.299 -0.7706 -0.2392  0.2213
   22MOL    H54 8076   3.994   5.593   1.377  1.6762  1.1455 -0.5485
   22MOL    H55 8077   4.112   5.512   1.271 -1.0498 -0.0219 -1.0448
   22MOL    H56 8078   4.064   5.783   1.212 -0.6817 -0.1755  2.1307
   22MOL    H57 8079   3.893   5.798   1.248  0.4129  0.0735  0.5954
   22MOL    H58 8080   3.965   5.824   1.090  1.8979 -1.0025 -0.2708
   22MOL    C59 8081   3.982   5.437   0.697 -0.3531  0.3614 -0.4626
   22MOL    C60 8082   4.041   5.334   0.591  0.0604  0.6381 -0.3014
   22MOL    C61 8083   4.189   5.310   0.626 -1.0060 -0.0036 -0.6356
   22MOL    O62 8084   4.277   5.390   0.612  0.4547 -0.0157  0.2388
   22MOL    N63 8085   4.215   5.186   0.669  0.1611 -0.7258 -0.7082
   22MOL    C64 8086   4.344   5.127   0.671  0.7762 -0.3656  0.0196
   22MOL    C65 8087   4.388   5.102   0.806 -0.7079  0.2496  0.4999
   22MOL    C66 8088   4.348   5.004   0.580  0.3905  0.2951 -0.6850
   22MOL    H67 8089   3.897   5.483   0.647  0.9345  0.8848 -2.2101
   22MOL    H68 8090   4.050   5.522   0.691 -1.3169  1.0611 -1.6653
   22MOL    H69 8091   3.985   5.243   0.612 -0.7513  1.4729  1.3037
   22MOL    H70 8092   4.133   5.127   0.677  0.5087 -1.3848 -1.9024
   22MOL    H71 8093   4.416   5.201   0.635  0.8504  0.7230  2.2499
   22MOL    H72 8094   4.494   5.076   0.795 -1.1275 -1.9284  1.3376
   22MOL    H73 8095   4.384   5.184   0.877  2.4872  1.9925 -1.1995
   22MOL    H74 8096   4.338   5.012   0.843 -0.9227 -0.7358 -2.0342
   22MOL    H75 8097   4.311   5.020   0.479  0.9694 -2.2464 -1.3440
   22MOL    H76 8098   4.452   4.978   0.558  0.8136  0.7843  0.6567
   22MOL    H77 8099   4.318   4.911   0.629 -0.7012  1.7053  1.3774
   22MOL    C78 8100   4.012   5.376   0.448 -0.2891 -0.9318 -0.0938
   22MOL    C79 8101   4.043   5.281   0.333  0.2876 -0.5202  0.6608
   22MOL    C80 8102   3.968   5.149   0.334 -0.7728  0.3999 -0.0349
   22MOL    O81 8103   3.845   5.155   0.319  0.0313 -0.1350  0.2825
   22MOL    N82 8104   4.045   5.040   0.341  0.1877 -0.3818  0.4038
   22MOL    C83 8105   3.985   4.911   0.330  0.8052  0.8221  0.3898
   22MOL    C84 8106   4.089   4.817   0.275 -0.5528  0.1908 -0.1212
   22MOL    C85 8107   3.943   4.864   0.472  0.0797  0.2588 -0.6126
   22MOL    H86 8108   4.065   5.470   0.433 -0.3318 -0.8236  0.4343
   22MOL    H87 8109   3.910   5.413   0.438  0.4822  0.6660 -2.5646
   22MOL    H88 8110   4.147   5.251   0.347 -0.0276 -2.5064 -0.9440
   22MOL    H89 8111   4.144   5.045   0.323  0.3351  0.2175  1.3068
   22MOL    H90 8112   3.892   4.907   0.274  1.0711  2.8683 -0.2413
   22MOL    H91 8113   4.186   4.839   0.319  0.5289 -2.1552 -1.2355
   22MOL    H92 8114   4.061   4.713   0.294  0.4762 -0.6208 -2.7819
   22MOL    H93 8115   4.092   4.828   0.166 -0.7216 -2.2911 -0.4132
   22MOL    H94 8116   4.025   4.876   0.543  1.3791 -0.6792 -1.9219
   22MOL    H95 8117   3.932   4.756   0.471 -0.2087  0.2739  0.4717
   22MOL    H96 8118   3.859   4.917   0.516  3.2636  3.4641  1.9769
   22MOL    C97 8119   4.030   5.361   0.197  0.2343 -0.9397  0.4219
   22MOL    C98 8120   4.047   5.278   0.066  0.0257 -0.0581 -0.3945
   22MOL    C99 8121   4.189   5.223   0.059 -0.7181 -0.5112  0.2125
   22MOL   O100 8122   4.285   5.293   0.086 -0.2240 -0.6045  0.0343
   22MOL   N101 8123   4.204   5.096   0.027 -0.1906  1.0499  0.3205
   22MOL   C102 8124   4.328   5.016   0.004  0.1577 -0.0737  0.6504
   22MOL   C103 8125   4.370   4.919   0.113  0.1870  0.2530  0.8546
   22MOL   C104 8126   4.333   4.961   7.697 -0.0341  0.6979  0.3509
   22MOL   H105 8127   4.105   5.439   0.184 -0.1036 -0.8934 -1.4177
   22MOL   H106 8128   3.933   5.410   0.189  1.1146  0.4481 -2.3591
   22MOL   H107 8129   3.985   5.190   0.083  1.5507 -0.9268  0.7219
   22MOL   H108 8130   4.121   5.046   0.001 -0.7069  1.9577  0.1931
   22MOL   H109 8131   4.413   5.084   0.012 -0.3340  0.8836 -1.8373
   22MOL   H110 8132   4.373   4.971   0.209 -2.2796  2.6133 -0.3232
   22MOL   H111 8133   4.309   4.829   0.106 -0.8096  1.0970 -1.6527
   22MOL   H112 8134   4.476   4.896   0.105 -0.0106 -0.2398 -0.4418
   22MOL   H113 8135   4.354   5.036   7.620  0.0368 -0.0829 -0.4060
   22MOL   H114 8136   4.240   4.905   7.684  0.5395 -0.1614 -0.1583
   22MOL   H115 8137   4.420   4.898   7.673 -0.0198  0.4587  1.0240
   22MOL   C116 8138   4.006   5.353   7.771 -0.2621 -0.2662  0.6701
   22MOL   C117 8139   3.891   5.296   7.678  0.2375 -0.0932 -0.1973
   22MOL   C118 8140   3.894   5.144   7.662 -0.4826  0.1005  0.1403
   22MOL   O119 8141   3.992   5.092   7.616  0.2665  0.1594  0.6539
   22MOL   N120 8142   3.783   5.073   7.690 -0.1182  0.6407 -0.1137
   22MOL   C121 8143   3.777   4.923   7.708  0.3824 -0.2372  0.6097
   22MOL   C122 8144   3.709   4.884   0.001  0.2323  0.6222  0.1264
   22MOL   C123 8145   3.729   4.854   7.586  0.5817  0.2030  0.9344
   22MOL   H124 8146   4.100   5.363   7.716 -0.4103 -1.6487  0.1383
   22MOL   H125 8147   3.986   5.455   7.801  0.1800 -0.0322  0.1634
   22MOL   H126 8148   3.791   5.323   7.712  1.1816  1.4458  1.4383
   22MOL   H127 8149   3.710   5.135   7.722 -0.9594 -1.0400  1.3072
   22MOL   H128 8150   3.878   4.884   7.721  0.0799 -1.1135  0.3998
   22MOL   H129 8151   3.751   4.938   0.085  0.3206 -0.8254  1.0344
   22MOL   H130 8152   3.733   4.783   0.034  0.9751  0.8331  0.2330
   22MOL   H131 8153   3.600   4.892   0.000  0.2592  1.1128  1.3891
   22MOL   H132 8154   3.710   4.747   7.583  0.7183  0.2022  0.0018
   22MOL   H133 8155   3.632   4.899   7.563  0.8161 -0.8312 -2.2898
   22MOL   H134 8156   3.793   4.871   7.500 -1.8573  2.4480 -0.5438
   22MOL   C135 8157   3.899   5.368   7.543  0.4282  0.2569 -0.8275
   22MOL   C136 8158   3.794   5.356   7.427 -0.1584  0.1352 -0.3497
   22MOL   C137 8159   3.646   5.352   7.471  0.5550  0.3716 -0.4370
   22MOL   O138 8160   3.595   5.443   7.534 -0.2344  0.2738 -0.1772
   22MOL   N139 8161   3.576   5.242   7.454  0.8067  0.2181  0.1731
   22MOL   C140 8162   3.446   5.211   7.508  0.1424  0.3278  0.3988
   22MOL   C141 8163   3.434   5.065   7.562  0.0155 -0.2001 -0.1166
   22MOL   C142 8164   3.328   5.256   7.411  0.4740  0.6467 -0.1432
   22MOL   H143 8165   3.991   5.333   7.497  1.7175  0.8633  1.2248
   22MOL   H144 8166   3.919   5.468   7.580  0.9735 -0.1861  0.0979
   22MOL   H145 8167   3.799   5.258   7.380 -1.4239 -1.9185  3.6044
   22MOL   H146 8168   3.633   5.169   7.414 -0.5005 -0.6421 -0.1684
   22MOL   H147 8169   3.429   5.284   7.587 -0.3944 -0.7090  1.2506
   22MOL   H148 8170   3.481   5.015   7.478  1.3726  0.8854 -0.0301
   22MOL   H149 8171   3.494   5.050   7.652 -1.3268  0.0124  0.8406
   22MOL   H150 8172   3.331   5.036   7.584 -0.6493 -1.0844 -4.0315
   22MOL   H151 8173   3.313   5.175   7.339 -1.9342  1.4086 -0.5433
   22MOL   H152 8174   3.355   5.339   7.345  0.7682 -1.0162 -2.1918
   22MOL   H153 8175   3.231   5.270   7.459  0.2528 -0.0061 -0.3911
   22MOL   C154 8176   3.817   5.470   7.327  0.3105 -0.1026 -0.1352
   22MOL   C155 8177   3.721   5.508   7.212 -0.1644 -0.0011  0.1124
   22MOL   C156 8178   3.686   5.384   7.128 -0.0945 -0.2697 -0.1530
   22MOL   O157 8179   3.775   5.334   7.064  0.3446 -0.4859  0.2995
   22MOL   N158 8180   3.558   5.339   7.134 -0.1314  0.6187  0.0576
   22MOL   C159 8181   3.501   5.228   7.057  0.6014  1.0387  0.0468
   22MOL   C160 8182   3.351   5.248   7.031  0.1392 -0.1147 -0.1498
   22MOL   C161 8183   3.528   5.106   7.141  0.2212  0.5485  0.1891
   22MOL   H162 8184   3.917   5.454   7.286  1.1044  1.2049  1.2537
   22MOL   H163 8185   3.822   5.561   7.387  0.6228 -1.1367  1.4177
   22MOL   H164 8186   3.630   5.555   7.251  0.2855  2.2031 -1.4173
   22MOL   H165 8187   3.494   5.399   7.183 -1.7491  1.0822 -2.5388
   22MOL   H166 8188   3.552   5.224   6.961  0.1956 -0.3804 -0.1199
   22MOL   H167 8189   3.329   5.345   6.987 -1.9873  0.0091  1.1246
   22MOL   H168 8190   3.317   5.170   6.962 -2.7192  1.1105 -0.1771
   22MOL   H169 8191   3.283   5.233   7.115  1.4491  0.5169  1.0479
   22MOL   H170 8192   3.476   5.107   7.237 -0.4589 -1.4250 -0.1331
   22MOL   H171 8193   3.635   5.094   7.154  0.2861  0.8620 -0.0497
   22MOL   H172 8194   3.488   5.017   7.093 -1.7861  1.4996  0.0303
   22MOL   C173 8195   3.795   5.605   7.114 -0.1945  0.8458  0.8273
   22MOL   C174 8196   3.827   5.742   7.177  0.1923 -0.4859 -0.0912
   22MOL   C175 8197   3.959   5.738   7.255  0.1448  0.5393  0.2904
   22MOL   O176 8198   4.064   5.702   7.205  0.3127  0.2748 -0.1666
   22MOL   N177 8199   3.952   5.794   7.379  0.3903 -0.3164  0.0444
   22MOL   C178 8200   4.066   5.828   7.463 -0.8224 -0.1496 -0.2690
   22MOL   C179 8201   4.135   5.696   7.511  0.4001  0.1828 -0.1070
   22MOL   C180 8202   4.025   5.909   7.590 -0.1710 -0.2865  0.2617
   22MOL   H181 8203   3.729   5.626   7.030  1.4005  0.3700 -0.5790
   22MOL   H182 8204   3.887   5.562   7.073  0.0292 -0.7171  2.8973
   22MOL   H183 8205   3.734   5.759   7.231  0.4977 -0.4409  0.4200
   22MOL   H184 8206   3.866   5.845   7.395  0.8280  0.9244 -1.4858
   22MOL   H185 8207   4.124   5.905   7.412  0.0398 -1.2130 -0.9310
   22MOL   H186 8208   4.063   5.631   7.560 -1.2577  1.0552 -1.3563
   22MOL   H187 8209   4.218   5.730   7.574  0.2267  1.8835 -0.7839
   22MOL   H188 8210   4.175   5.629   7.435  1.6104 -1.9217  2.2805
   22MOL   H189 8211   3.963   5.995   7.566  1.8619  1.4274  1.0497
   22MOL   H190 8212   4.118   5.942   7.636  0.0785 -0.5443 -0.0525
   22MOL   H191 8213   3.981   5.848   7.669  0.2420  0.9580  1.4557
   22MOL   C192 8214   3.838   5.853   7.072 -0.7044 -0.7284 -0.2570
   22MOL   C193 8215   3.702   5.921   7.052 -0.8475  0.1587 -0.3372
   22MOL   C194 8216   3.624   5.855   6.934  0.2361 -0.5383  0.1623
   22MOL   O195 8217   3.685   5.800   6.848 -0.5435  0.2452  0.1003
   22MOL   N196 8218   3.492   5.866   6.934 -0.5692 -0.1175  0.5559
   22MOL   C197 8219   3.398   5.825   6.831 -0.1993  0.3028 -0.5283
   22MOL   C198 8220   3.291   5.729   6.893  0.2399  0.2945  0.3617
   22MOL   C199 8221   3.328   5.958   6.781  0.8436  0.3698  0.1886
   22MOL   H200 8222   3.890   5.833   6.979  0.8924  2.5084 -0.1453
   22MOL   H201 8223   3.903   5.930   7.114 -2.3052  0.1641  0.6610
   22MOL   H202 8224   3.640   5.908   7.140  2.0638  1.3552  1.9695
   22MOL   H203 8225   3.461   5.888   7.027 -1.1243 -0.1948  0.3916
   22MOL   H204 8226   3.456   5.778   6.753  0.1269 -0.1893  0.0082
   22MOL   H205 8227   3.327   5.648   6.956 -0.5986  0.5514  1.1834
   22MOL   H206 8228   3.228   5.703   6.808 -0.0324  0.0080  0.6519
   22MOL   H207 8229   3.232   5.779   6.969 -0.8992  0.1640 -0.4295
   22MOL   H208 8230   3.253   5.985   6.855  0.9167 -2.4821  1.3524
   22MOL   H209 8231   3.274   5.944   6.687  0.4336  0.3309  0.4290
   22MOL   H210 8232   3.388   6.048   6.776  1.4385 -0.0309  0.0969
   22MOL   C211 8233   3.713   6.076   7.029  0.2112 -0.1755  0.2320
   22MOL   C212 8234   3.707   6.153   7.170  0.4485  0.1695 -0.2605
   22MOL   C213 8235   3.841   6.158   7.242 -0.4134  0.2321  0.0954
   22MOL   O214 8236   3.865   6.083   7.336 -0.0967  0.3256 -0.2629
   22MOL   N215 8237   3.935   6.225   7.175  0.4283 -0.2554 -0.2473
   22MOL   C216 8238   4.079   6.235   7.202 -0.9016  0.3022  0.0445
   22MOL   C217 8239   4.155   6.110   7.171  0.2916  0.3598  0.4116
   22MOL   C218 8240   4.109   6.278   7.356 -0.4725 -0.0445  0.2979
   22MOL   H219 8241   3.628   6.115   6.973  0.4417  0.3788  0.2607
   22MOL   H220 8242   3.799   6.094   6.963 -0.6731 -0.5411 -1.0296
   22MOL   H221 8243   3.648   6.087   7.233  1.8121 -0.9427 -0.1227
   22MOL   H222 8244   3.898   6.251   7.084 -1.5713 -0.6654  0.4169
   22MOL   H223 8245   4.117   6.311   7.135 -0.9068 -0.9316 -1.3892
   22MOL   H224 8246   4.167   6.096   7.063 -0.3217  1.5881  0.1794
   22MOL   H225 8247   4.257   6.099   7.206 -0.2521  0.5220  2.0853
   22MOL   H226 8248   4.107   6.026   7.222 -3.0863  1.2154 -1.1729
   22MOL   H227 8249   4.217   6.294   7.354 -0.4371 -0.3822 -0.5664
   22MOL   H228 8250   4.100   6.192   7.422  0.3943 -0.6965 -0.4146
   22MOL   H229 8251   4.052   6.360   7.400  0.8693  0.7852  0.5349
   22MOL   C230 8252   3.633   6.286   7.172 -0.5665 -0.1329  0.9796
   22MOL   C231 8253   3.534   6.306   7.282 -0.5908 -0.2822  0.9677
   22MOL   C232 8254   3.524   6.449   7.335  0.0653  0.0135 -1.0992
   22MOL   O233 8255   3.536   6.552   7.263  0.1697 -0.2502  0.1948
   22MOL   N234 8256   3.507   6.459   7.466 -0.6323 -0.0521  0.0549
   22MOL   C235 8257   3.512   6.576   7.545  0.4133  0.2753 -0.4073
   22MOL   C236 8258   3.372   6.585   7.609 -0.0211 -0.4221  0.2039
   22MOL   C237 8259   3.617   6.570   7.656  0.5969  0.2592  0.2856
   22MOL   H238 8260   3.577   6.285   7.078  1.4882  0.7656 -0.2823
   22MOL   H239 8261   3.699   6.373   7.175  1.2597 -1.5328  3.8048
   22MOL   H240 8262   3.579   6.250   7.364 -1.4298 -0.9069  1.0117
   22MOL   H241 8263   3.490   6.372   7.514  0.1540  0.5230  1.4128
   22MOL   H242 8264   3.535   6.657   7.476  1.7716 -0.2493 -0.5948
   22MOL   H243 8265   3.356   6.682   7.656 -1.2659 -0.9123  0.8171
   22MOL   H244 8266   3.295   6.594   7.533 -1.6588  1.8312  2.0763
   22MOL   H245 8267   3.351   6.506   7.681 -1.0733 -0.8472 -0.5647
   22MOL   H246 8268   3.619   6.662   7.715  0.8739  1.3641 -1.4207
   22MOL   H247 8269   3.718   6.554   7.616 -0.1730  0.7290 -1.9248
   22MOL   H248 8270   3.600   6.488   7.726 -2.1156 -0.7601 -1.4949
   22MOL   C249 8271   3.392   6.241   7.250 -0.1969 -0.0045  0.3577
   22MOL   C250 8272   3.338   6.138   7.354  0.2816  0.5820  0.2083
   22MOL   C251 8273   3.404   5.996   7.351 -0.7158  0.0472  0.7544
   22MOL   O252 8274   3.426   5.947   7.242  0.1518  0.0064  0.4589
   22MOL   N253 8275   3.438   5.930   7.465  1.2834  0.0740 -0.2734
   22MOL   C254 8276   3.490   5.797   7.487 -0.3759 -0.2991  0.2609
   22MOL   C255 8277   3.645   5.799   7.507  0.6286  0.9416  0.3507
   22MOL   C256 8278   3.410   5.715   7.591  0.2607 -0.4379 -0.5282
   22MOL   H257 8279   3.382   6.197   7.150  0.6257 -0.0554  0.2865
   22MOL   H258 8280   3.324   6.325   7.250 -0.8773 -0.5486  1.1923
   22MOL   H259 8281   3.364   6.174   7.454 -0.4780  1.7056  0.0105
   22MOL   H260 8282   3.410   5.976   7.550  3.3253 -1.6784  1.3969
   22MOL   H261 8283   3.483   5.743   7.393 -0.3874 -0.8344  0.5650
   22MOL   H262 8284   3.693   5.861   7.432 -2.3295  1.9718 -0.7458
   22MOL   H263 8285   3.661   5.841   7.607  0.1249  0.7879  0.4950
   22MOL   H264 8286   3.691   5.700   7.511  0.7171  0.9567 -0.2151
   22MOL   H265 8287   3.311   5.700   7.546  0.4308  2.1363 -1.8448
   22MOL   H266 8288   3.452   5.618   7.620  0.5703  0.3340  1.6782
   22MOL   H267 8289   3.401   5.774   7.682 -0.8953 -0.2715 -0.7407
   22MOL   C268 8290   3.183   6.134   7.345 -0.4954 -0.3093  0.4218
   22MOL   C269 8291   3.091   6.044   7.433  0.3159 -0.6279 -0.2494
   22MOL   C270 8292   3.107   6.072   7.584 -1.2865  0.4367 -0.2363
   22MOL   O271 8293   3.168   6.167   7.635  0.1225 -0.4803  0.4171
   22MOL   N272 8294   3.057   5.983   7.673 -0.5692  0.0795  0.5179
   22MOL   C273 8295   3.069   5.984   7.818 -0.3621  0.0239  0.2713
   22MOL   C274 8296   2.954   5.906   0.048 -0.1912  0.0446  0.2048
   22MOL   C275 8297   3.196   5.923   0.024 -0.5067  0.6701 -0.2940
   22MOL   H276 8298   3.138   6.233   7.340 -0.4857 -0.3139  0.2245
   22MOL   H277 8299   3.171   6.107   7.240  0.1008 -0.2628  0.3404
   22MOL   H278 8300   3.134   5.947   7.410  1.0439 -0.1146 -1.1147
   22MOL   H279 8301   3.005   5.908   7.629 -3.2694  2.2737 -0.1508
   22MOL   H280 8302   3.075   6.090   0.006  0.7812 -0.2046  1.0559
   22MOL   H281 8303   2.855   5.937   0.013  0.0611 -0.0790 -0.6199
   22MOL   H282 8304   2.971   5.800   0.029 -0.4031 -0.2923  1.7746
   22MOL   H283 8305   2.959   5.929   0.154  1.2659 -0.6383  0.2984
   22MOL   H284 8306   3.285   5.976   7.828  0.7061 -0.0409  1.7770
   22MOL   H285 8307   3.203   5.916   0.132  1.3137  4.8357 -0.0415
   22MOL   H286 8308   3.201   5.815   0.007  0.4377  0.5815  0.5028
   22MOL   C287 8309   2.944   6.062   7.395  0.3310 -0.1108  0.8448
   22MOL   C288 8310   2.921   6.015   7.248  0.6741 -0.4274  0.1600
   22MOL   C289 8311   2.913   6.140   7.154 -0.2148 -0.4294 -0.7922
   22MOL   O290 8312   2.837   6.236   7.178  0.1955  0.2916 -0.0138
   22MOL   N291 8313   2.993   6.139   7.048  0.2344 -0.6022 -0.1015
   22MOL   C292 8314   3.005   6.230   6.937 -0.6719 -0.0080 -0.0537
   22MOL   C293 8315   3.126   6.318   6.956 -0.5301 -0.0834 -0.1787
   22MOL   C294 8316   2.998   6.155   6.805  0.0545  0.1534 -0.1678
   22MOL   H295 8317   2.892   6.001   7.469  2.3911 -0.6116  1.9207
   22MOL   H296 8318   2.903   6.161   7.411  0.1287 -0.2989  1.4959
   22MOL   H297 8319   3.008   5.955   7.219  1.5951 -0.2912  2.5784
   22MOL   H298 8320   3.061   6.064   7.052 -0.1483 -0.8665  1.8755
   22MOL   H299 8321   2.925   6.304   6.939 -0.5135  0.2022 -1.1590
   22MOL   H300 8322   3.226   6.274   6.955 -0.4946  0.0246 -1.9292
   22MOL   H301 8323   3.126   6.390   6.874  0.2984  0.6480  0.4403
   22MOL   H302 8324   3.106   6.377   7.046 -0.8928 -0.8786  0.2675
   22MOL   H303 8325   3.053   6.062   6.801 -0.5503 -0.2021 -0.3456
   22MOL   H304 8326   2.897   6.131   6.770 -0.5254  1.8663  0.2511
   22MOL   H305 8327   3.046   6.213   6.726  1.2274  0.2531  0.6081
   22MOL   C306 8328   2.801   5.910   7.244  0.1238 -0.2013 -0.0763
   22MOL   C307 8329   2.744   5.848   7.112 -0.2252 -1.0846  0.1195
   22MOL   C308 8330   2.852   5.788   7.025  0.1658  0.5964  0.2882
   22MOL   O309 8331   2.937   5.855   6.967  0.0914  0.0972 -0.5949
   22MOL   N310 8332   2.856   5.659   7.020 -0.9508 -0.2218  0.8173
   22MOL   C311 8333   2.944   5.573   6.949 -0.3534  0.2582 -0.3220
   22MOL   C312 8334   3.018   5.489   7.053 -0.4146 -0.0347 -0.7932
   22MOL   C313 8335   2.867   5.483   6.850  0.0419  0.0268  0.2960
   22MOL   H314 8336   2.824   5.825   7.309 -1.5765 -0.7087 -0.1271
   22MOL   H315 8337   2.724   5.956   7.306 -1.2554 -0.0006 -1.8921
   22MOL   H316 8338   2.673   5.766   7.124  1.2117 -2.5102 -0.9113
   22MOL   H317 8339   2.772   5.614   7.055 -1.3885  0.9157  1.2486
   22MOL   H318 8340   3.013   5.626   6.883  1.3072 -0.8105  0.5302
   22MOL   H319 8341   3.075   5.408   7.009 -2.6170 -1.2040 -1.5972
   22MOL   H320 8342   2.954   5.447   7.131 -0.2658 -0.3605 -0.8470
   22MOL   H321 8343   3.084   5.555   7.109 -0.8546 -0.2260 -0.0399
   22MOL   H322 8344   2.788   5.431   6.905  1.0808 -1.2984  0.5649
   22MOL   H323 8345   2.920   5.407   6.794  0.7074 -0.9787  2.2328
   22MOL   H324 8346   2.813   5.537   6.772 -0.3562  1.9846  1.8727
   22MOL   C325 8347   2.659   5.954   7.021 -0.2247  0.0144 -0.1463
   22MOL   C326 8348   2.555   6.038   7.104 -0.4818  0.4837  0.8991
   22MOL   C327 8349   2.486   6.142   7.015  0.2941 -0.1690  0.5636
   22MOL   O328 8350   2.375   6.117   6.955 -0.2491 -0.4436  0.8669
   22MOL   N329 8351   2.553   6.256   7.000 -0.4493  0.3234  0.1897
   22MOL   C330 8352   2.513   6.371   6.928 -0.6088 -0.8424 -0.2982
   22MOL   C331 8353   2.636   6.428   6.849 -0.2240 -0.0651 -0.0898
   22MOL   C332 8354   2.460   6.473   7.030  0.2676  0.7651  0.3283
   22MOL   H333 8355   2.603   5.902   6.943 -1.7933  1.3318  0.0601
   22MOL   H334 8356   2.730   6.020   6.972 -1.2389 -0.0788 -1.7749
   22MOL   H335 8357   2.610   6.102   7.173 -1.3679  2.0585  0.1897
   22MOL   H336 8358   2.636   6.272   7.055  0.1748 -1.7549 -0.0978
   22MOL   H337 8359   2.441   6.342   6.851 -2.9164  0.6657  1.2122
   22MOL   H338 8360   2.686   6.352   6.790  1.3344  1.2467 -0.4858
   22MOL   H339 8361   2.608   6.521   6.800  0.0762  1.3083  2.2536
   22MOL   H340 8362   2.707   6.468   6.922  1.3956  0.4548 -1.9096
   22MOL   H341 8363   2.445   6.569   6.980 -2.5900 -0.9940 -2.4394
   22MOL   H342 8364   2.513   6.502   7.120  1.3556  0.7742 -0.3029
   22MOL   H343 8365   2.364   6.446   7.075  0.5616 -0.5314  0.1982
   22MOL   C344 8366   2.453   5.950   7.184 -0.0521 -0.3235 -0.1835
   22MOL   C345 8367   2.359   6.027   7.283  0.3754  0.1410  0.0364
   22MOL   C346 8368   2.260   5.930   7.356 -0.1159  0.0166  0.3802
   22MOL   O347 8369   2.280   5.810   7.378 -1.2321  0.5214 -0.3332
   22MOL   N348 8370   2.141   5.993   7.388  0.3023 -0.2776  0.6449
   22MOL   C349 8371   2.028   5.935   7.435  0.7098  0.3292 -0.1583
   22MOL   C350 8372   2.030   5.923   7.587  0.0310  0.0515 -0.1700
   22MOL   C351 8373   1.905   6.018   7.392 -0.1417 -0.3611  0.3117
   22MOL   H352 8374   2.492   5.858   7.228  0.5158  0.1630  0.3336
   22MOL   H353 8375   2.395   5.912   7.100 -1.3961 -1.0259  1.0416
   22MOL   H354 8376   2.286   6.085   7.227 -1.8166 -3.0616 -0.6012
   22MOL   H355 8377   2.143   6.094   7.397  0.0858  0.0015 -2.0429
   22MOL   H356 8378   2.013   5.838   7.388  1.8406  1.2536 -2.5541
   22MOL   H357 8379   1.930   5.892   7.618  0.6159  0.3943  2.1848
   22MOL   H358 8380   2.104   5.847   7.612  2.6293  2.5177 -0.1481
   22MOL   H359 8381   2.065   6.013   7.637  0.8010  0.8737 -2.1475
   22MOL   H360 8382   1.819   5.963   7.432  0.9143 -1.8561  0.5520
   22MOL   H361 8383   1.904   6.121   7.427 -0.4368 -0.2764  0.0581
   22MOL   H362 8384   1.885   6.022   7.285 -2.4299  3.3709  0.7949
   22MOL   C363 8385   2.435   6.111   7.390  0.0618 -0.4848  0.5230
   22MOL   C364 8386   2.437   6.264   7.357 -0.4104  0.5297  0.8154
   22MOL   C365 8387   2.305   6.338   7.405 -0.5249 -0.2302 -0.6669
   22MOL   O366 8388   2.200   6.269   7.422  0.3115  0.4853 -0.0521
   22MOL   N367 8389   2.317   6.465   7.446 -0.2420 -1.1424  0.0525
   22MOL   C368 8390   2.210   6.560   7.477 -0.1276 -0.9548  0.4071
   22MOL   C369 8391   2.130   6.507   7.595 -0.1098 -0.3082  0.3355
   22MOL   C370 8392   2.266   6.697   7.491 -0.5004  0.0145 -0.2883
   22MOL   H371 8393   2.538   6.079   7.402 -0.2002 -1.2544  0.7467
   22MOL   H372 8394   2.396   6.104   7.492  1.9803 -1.2583  1.2392
   22MOL   H373 8395   2.469   6.281   7.254  1.3053  0.8685  1.3882
   22MOL   H374 8396   2.411   6.500   7.439 -0.3613 -0.2450  2.2051
   22MOL   H375 8397   2.140   6.561   7.394 -1.0128 -3.3436  1.0902
   22MOL   H376 8398   2.047   6.436   7.587  0.5240 -1.0943  0.7199
   22MOL   H377 8399   2.201   6.460   7.664  1.2774  1.4888  0.1652
   22MOL   H378 8400   2.093   6.593   7.651  0.6972  0.8014 -0.8325
   22MOL   H379 8401   2.192   6.765   7.532  0.7042 -0.2901  2.5143
   22MOL   H380 8402   2.345   6.704   7.566  0.0167 -3.6038 -0.4271
   22MOL   H381 8403   2.316   6.728   7.399 -1.1266  1.7692 -0.0484
   22MOL   H382 8404   2.520   6.297   7.419 -2.1055  1.3582  2.7107
   23MOL     C1 8405   7.649   6.200   6.654  0.6585 -0.2386  0.1573
   23MOL     C2 8406   7.754   6.083   6.683  0.3409  0.5751  0.2629
   23MOL     C3 8407   7.736   5.964   6.588 -0.2175  1.2997 -0.3763
   23MOL     O4 8408   7.689   5.865   6.634  0.0033  0.1816  0.2889
   23MOL     N5 8409   7.792   5.971   6.463 -0.0179  0.7565  0.4114
   23MOL     C6 8410   7.785   5.869   6.358 -0.2629  0.2940 -0.1546
   23MOL     C7 8411   7.723   5.926   6.227 -0.6752 -0.2826 -1.0473
   23MOL     C8 8412   0.092   5.812   6.345 -0.2768  0.3436 -0.0857
   23MOL     H9 8413   7.691   6.296   6.683  0.1697 -0.0771  0.3338
   23MOL    H10 8414   7.554   6.181   6.705 -0.9535  3.2495 -1.3566
   23MOL    H11 8415   7.744   6.042   6.783 -0.5684 -1.0208 -0.4494
   23MOL    H12 8416   0.016   6.050   6.447 -0.6854  1.2820  0.4487
   23MOL    H13 8417   7.715   5.790   6.387  0.0736  0.0578  0.0152
   23MOL    H14 8418   7.645   6.000   6.246  0.0256  0.7496 -2.1638
   23MOL    H15 8419   7.672   5.861   6.157  0.0668 -0.0562 -1.7969
   23MOL    H16 8420   7.799   5.980   6.172  0.8528 -1.0637  0.2472
   23MOL    H17 8421   0.091   5.744   6.260  0.9060 -1.5636  1.3705
   23MOL    H18 8422   0.159   5.896   6.327 -0.1402  0.3143  0.2846
   23MOL    H19 8423   0.123   5.761   6.437 -0.0404  3.1623  1.4394
   23MOL    H20 8424   7.631   6.225   6.549  0.9543  0.3350  0.2468
   23MOL    C21 8425   0.066   6.132   6.692 -0.1275 -0.1712  0.5761
   23MOL    C22 8426   0.195   6.039   6.698 -0.3284  0.4777  0.2625
   23MOL    C23 8427   0.203   5.956   6.830  0.4834 -0.0382 -0.5607
   23MOL    O24 8428   0.256   6.002   6.934  0.0416  0.0989  0.0627
   23MOL    N25 8429   0.146   5.834   6.825 -0.0183 -0.0033 -0.0400
   23MOL    C26 8430   0.122   5.732   6.937  0.3156 -0.7830  0.4377
   23MOL    C27 8431   0.215   5.605   6.912 -0.2762 -0.8435  0.7114
   23MOL    C28 8432   7.811   5.699   6.928 -0.5952  0.8898  0.3727
   23MOL    H29 8433   0.076   6.185   6.787  0.3844 -1.3169  1.1662
   23MOL    H30 8434   0.084   6.209   6.617  0.6820  1.1055  2.0618
   23MOL    H31 8435   0.186   5.968   6.616  0.0650 -2.0492  2.3395
   23MOL    H32 8436   0.093   5.825   6.739 -0.7876  3.7294 -0.0402
   23MOL    H33 8437   0.137   5.779   7.035  1.4594 -2.4679  1.1099
   23MOL    H34 8438   0.204   5.558   7.010  0.4437 -0.0388  1.1820
   23MOL    H35 8439   0.323   5.616   6.904 -0.0593 -0.7934  3.1416
   23MOL    H36 8440   0.187   5.549   6.823  1.2155  1.5057 -1.2962
   23MOL    H37 8441   7.778   5.687   6.825  0.5261  1.5934 -0.0786
   23MOL    H38 8442   7.787   5.607   6.981 -2.0980  0.7291 -0.5664
   23MOL    H39 8443   7.756   5.781   6.975  0.0949  0.4310  2.0239
   23MOL    C40 8444   0.319   6.114   6.659 -0.7667  0.0866  0.3895
   23MOL    C41 8445   0.362   6.128   6.507 -0.7078 -0.2843 -0.5665
   23MOL    C42 8446   0.251   6.202   6.426 -0.2573 -0.2893 -0.5284
   23MOL    O43 8447   0.164   6.135   6.369  0.3283 -0.6391 -0.4943
   23MOL    N44 8448   0.253   6.333   6.407 -0.4736 -0.3544  0.3653
   23MOL    C45 8449   0.169   6.414   6.319  0.1821 -0.1799 -0.1639
   23MOL    C46 8450   0.068   6.479   6.409  0.0684 -0.3365 -0.3153
   23MOL    C47 8451   0.237   6.508   6.236  0.6528 -0.0985 -0.7219
   23MOL    H48 8452   0.400   6.081   6.725 -0.8529  2.3679  1.7100
   23MOL    H49 8453   0.317   6.212   6.708  0.5950 -1.3756  3.5257
   23MOL    H50 8454   0.456   6.181   6.521 -0.5981 -1.1543  2.2515
   23MOL    H51 8455   0.336   6.379   6.441  0.1825 -0.2076 -1.3877
   23MOL    H52 8456   0.117   6.344   6.252  0.8723  0.9423 -1.9092
   23MOL    H53 8457   0.115   6.562   6.463  1.1687  0.0193 -1.7487
   23MOL    H54 8458   0.026   6.404   6.475 -0.3609 -1.6355 -2.0483
   23MOL    H55 8459   7.830   6.530   6.348  1.7519 -0.9580 -3.0090
   23MOL    H56 8460   0.307   6.467   6.163  0.9729  0.0901 -0.5254
   23MOL    H57 8461   0.298   6.580   6.293 -0.2367  1.0937 -1.2518
   23MOL    H58 8462   0.174   6.567   6.170  0.9925 -0.2366 -1.1741
   23MOL    C59 8463   0.412   5.993   6.453 -0.0924  0.0471  0.8523
   23MOL    C60 8464   0.480   5.985   6.313 -0.5342 -0.9266  0.0724
   23MOL    C61 8465   0.556   6.114   6.270 -0.1037  0.4699 -0.0740
   23MOL    O62 8466   0.509   6.185   6.177 -0.0134 -0.6128  0.3622
   23MOL    N63 8467   0.672   6.145   6.337  0.3624 -0.1515 -0.0503
   23MOL    C64 8468   0.720   6.287   6.347 -0.0667 -0.2187 -0.6830
   23MOL    C65 8469   0.787   6.306   6.477  0.0430  0.0125 -0.2898
   23MOL    C66 8470   0.813   6.308   6.227 -0.1617 -0.2952  0.1449
   23MOL    H67 8471   0.480   5.951   6.528  2.2296  2.7848  0.3705
   23MOL    H68 8472   0.323   5.931   6.454 -0.6531  0.8622  1.5138
   23MOL    H69 8473   0.555   5.906   6.320  1.6225  1.1307  0.9476
   23MOL    H70 8474   0.708   6.085   6.409 -0.6391  0.3495  0.8927
   23MOL    H71 8475   0.640   6.360   6.335 -0.5268 -0.7914 -1.1075
   23MOL    H72 8476   0.823   6.406   6.500  0.3952  0.0770 -1.0859
   23MOL    H73 8477   0.720   6.277   6.558 -0.5800  0.5726 -0.6061
   23MOL    H74 8478   0.871   6.236   6.484  1.8644  2.1894  0.1320
   23MOL    H75 8479   0.763   6.298   6.132  0.4102 -1.2579 -0.0616
   23MOL    H76 8480   0.843   6.412   6.239 -0.9277 -0.3936  3.3024
   23MOL    H77 8481   0.903   6.246   6.226  0.3388  0.3877  1.3502
   23MOL    C78 8482   0.390   5.930   6.203  0.2055 -0.9217  0.8291
   23MOL    C79 8483   0.449   5.902   6.059 -0.3746 -0.2584  0.4136
   23MOL    C80 8484   0.574   5.818   6.064 -0.6636  0.3309  0.6143
   23MOL    O81 8485   0.569   5.698   6.095 -0.9215 -0.0185  0.1066
   23MOL    N82 8486   0.680   5.868   6.010 -0.0299  0.1206 -0.1631
   23MOL    C83 8487   0.808   5.816   6.007  0.3040  0.4756 -0.3225
   23MOL    C84 8488   0.884   5.856   5.874  0.1949 -0.6065  0.5684
   23MOL    C85 8489   0.885   5.849   6.132 -0.2078  0.2575  0.0534
   23MOL    H86 8490   0.309   6.002   6.207  1.5882  0.7215  0.0355
   23MOL    H87 8491   0.353   5.835   6.239 -0.9228 -0.8444 -0.1167
   23MOL    H88 8492   0.485   5.992   6.010 -0.4510 -0.2873  0.3049
   23MOL    H89 8493   0.672   5.953   5.955  0.2474  1.2868  1.5788
   23MOL    H90 8494   0.799   5.707   6.009  2.1677  0.2899 -0.6596
   23MOL    H91 8495   0.969   5.788   5.869  0.2168 -0.5281 -0.2308
   23MOL    H92 8496   0.813   5.836   5.793  1.1987 -0.3861 -0.3770
   23MOL    H93 8497   0.929   5.955   5.863 -0.0059 -0.6549 -0.7586
   23MOL    H94 8498   0.842   5.803   6.220 -1.2400  0.6849 -0.2105
   23MOL    H95 8499   0.887   5.957   6.146  0.3485  0.3087 -0.3904
   23MOL    H96 8500   0.987   5.812   6.127  0.6940  2.5655  0.7920
   23MOL    C97 8501   0.345   5.843   5.959 -0.2870  0.2078  0.0597
   23MOL    C98 8502   0.364   5.847   5.807 -0.2097 -0.1187 -0.6100
   23MOL    C99 8503   0.479   5.751   5.750 -0.0453  0.2787  0.8447
   23MOL   O100 8504   0.590   5.795   5.725  0.0123  0.3668  0.5081
   23MOL   N101 8505   0.444   5.627   5.727  0.1163  0.2635 -0.1390
   23MOL   C102 8506   0.541   5.516   5.685 -0.0841  0.5692  0.5077
   23MOL   C103 8507   0.640   5.493   5.798 -0.2934  0.1224  0.3113
   23MOL   C104 8508   0.471   5.394   5.639  0.2571 -0.1660 -0.5336
   23MOL   H105 8509   0.254   5.898   5.982 -0.2510 -0.0547  0.8254
   23MOL   H106 8510   0.324   5.741   5.992  0.6369 -0.5802 -1.7423
   23MOL   H107 8511   0.270   5.804   5.775 -0.9951  0.4407  0.8559
   23MOL   H108 8512   0.346   5.605   5.740  0.5359 -0.5694  1.6577
   23MOL   H109 8513   0.600   5.563   5.607 -0.2056 -1.1228 -0.6134
   23MOL   H110 8514   0.688   5.396   5.784 -0.7925 -0.1194  0.2915
   23MOL   H111 8515   0.711   5.576   5.795 -0.8017  0.5412 -0.2982
   23MOL   H112 8516   0.593   5.496   5.896 -0.8523 -0.3552  0.0614
   23MOL   H113 8517   0.379   5.403   5.582 -0.6090 -0.6782  0.7450
   23MOL   H114 8518   0.447   5.335   5.728  0.5944  1.7725  0.8720
   23MOL   H115 8519   0.541   5.340   5.575  0.0810  0.0056 -0.8727
   23MOL   C116 8520   0.367   5.994   5.760  0.0247 -0.1614  0.0098
   23MOL   C117 8521   0.382   6.009   5.608 -0.4465  0.0958  0.1403
   23MOL   C118 8522   0.414   6.150   5.575  0.5192  0.2882 -0.1676
   23MOL   O119 8523   0.333   6.220   5.517 -0.6084 -0.1291 -0.1006
   23MOL   N120 8524   0.529   6.193   5.623  0.3427  1.5096 -0.3727
   23MOL   C121 8525   0.591   6.322   5.598 -0.1758 -0.0878 -0.1221
   23MOL   C122 8526   0.596   6.399   5.732  0.3073 -0.3528  0.6359
   23MOL   C123 8527   0.736   6.299   5.546 -0.1991 -0.3190 -0.2275
   23MOL   H124 8528   0.446   6.048   5.812 -0.9686  1.4013 -0.0646
   23MOL   H125 8529   0.274   6.044   5.789  0.8051  0.8035  0.8857
   23MOL   H126 8530   0.466   5.950   5.574 -1.2186 -0.7300 -0.3526
   23MOL   H127 8531   0.582   6.128   5.680 -0.6412 -0.3342 -1.5313
   23MOL   H128 8532   0.534   6.386   5.530 -0.7702 -0.1587  0.3096
   23MOL   H129 8533   0.664   6.346   5.798  1.0109 -3.6225 -2.5576
   23MOL   H130 8534   0.502   6.387   5.785 -0.3434  0.5852 -0.3004
   23MOL   H131 8535   0.628   6.501   5.714 -1.3409  0.2228  0.8919
   23MOL   H132 8536   0.798   6.388   5.542  0.1993 -0.6561 -1.8145
   23MOL   H133 8537   0.792   6.230   5.609  0.4964 -0.6665 -1.2257
   23MOL   H134 8538   0.729   6.261   5.444 -0.8719  2.2200 -1.1627
   23MOL   C135 8539   0.270   5.936   5.529  0.3665 -0.1465  0.4402
   23MOL   C136 8540   0.284   5.915   5.375 -0.3520  0.0754 -0.8590
   23MOL   C137 8541   0.415   5.839   5.342  0.6728 -0.7104 -0.6010
   23MOL   O138 8542   0.440   5.730   5.389  0.3150 -0.0002  0.0685
   23MOL   N139 8543   0.496   5.905   5.259  0.0109 -0.0735 -0.4149
   23MOL   C140 8544   0.616   5.846   5.197 -0.5102 -0.7952  0.1303
   23MOL   C141 8545   0.745   5.889   5.271 -0.2897  0.1956 -0.4434
   23MOL   C142 8546   0.619   5.885   5.045  0.3710 -0.0506 -0.8544
   23MOL   H143 8547   0.178   5.994   5.544 -0.9191 -2.3354  1.2615
   23MOL   H144 8548   0.254   5.837   5.572  0.0896 -0.6994 -0.9193
   23MOL   H145 8549   0.304   6.015   5.335  2.8596  0.2797  1.0016
   23MOL   H146 8550   0.475   5.999   5.228  0.7378  0.8710  1.8422
   23MOL   H147 8551   0.613   5.737   5.197 -0.4044 -0.8058 -0.9337
   23MOL   H148 8552   0.757   5.996   5.289  2.8347 -0.2477  0.4686
   23MOL   H149 8553   0.738   5.849   5.372  1.7616  0.4919 -0.1613
   23MOL   H150 8554   0.836   5.848   5.228  0.2775 -1.1673  1.9929
   23MOL   H151 8555   0.521   5.855   5.008  1.5062 -3.2822 -1.4279
   23MOL   H152 8556   0.690   5.827   4.987 -0.6738 -2.5036  0.2108
   23MOL   H153 8557   0.626   5.993   5.037  2.7567 -0.0437  0.8736
   23MOL   C154 8558   0.157   5.855   5.314  0.1878  0.0226 -0.2877
   23MOL   C155 8559   0.109   5.709   5.329 -0.6486  0.3623  0.4104
   23MOL   C156 8560   0.175   5.616   5.221  0.8386 -0.1561 -0.1022
   23MOL   O157 8561   0.166   5.652   5.102  0.2262  0.4435 -0.1649
   23MOL   N158 8562   0.240   5.508   5.261  0.1901  0.2398 -0.2035
   23MOL   C159 8563   0.311   5.414   5.192  0.6873  0.1072 -0.2834
   23MOL   C160 8564   0.281   5.268   5.238  0.5476 -0.4690 -0.5924
   23MOL   C161 8565   0.460   5.443   5.215  0.3836 -0.2416  0.9428
   23MOL   H162 8566   0.168   5.885   5.210  1.9778  2.2056  0.4876
   23MOL   H163 8567   0.077   5.925   5.339  0.4328  0.9469 -1.9790
   23MOL   H164 8568   0.153   5.676   5.423  0.2209 -2.5342 -0.9526
   23MOL   H165 8569   0.235   5.501   5.362 -1.8292 -0.8504 -0.3498
   23MOL   H166 8570   0.291   5.429   5.086  0.0398 -2.2917 -0.5251
   23MOL   H167 8571   0.340   5.196   5.182 -0.5210 -1.0876 -0.9473
   23MOL   H168 8572   0.307   5.252   5.343 -1.3645  1.3700  0.1877
   23MOL   H169 8573   0.176   5.239   5.229  0.0724  0.8936  0.5025
   23MOL   H170 8574   0.496   5.432   5.318  2.6826 -0.3848  0.1722
   23MOL   H171 8575   0.480   5.546   5.184  1.4724 -0.7912 -0.2465
   23MOL   H172 8576   0.521   5.377   5.153  0.1638 -0.1251  0.6020
   23MOL   C173 8577   7.785   5.691   5.325 -0.0460  0.4126  1.2224
   23MOL   C174 8578   7.715   5.770   5.215  0.3347  0.3502 -0.2827
   23MOL   C175 8579   7.641   5.679   5.110  1.3180 -0.0257 -0.4233
   23MOL   O176 8580   7.520   5.693   5.087 -0.0992  0.8039  0.4994
   23MOL   N177 8581   7.722   5.594   5.046 -0.9330 -0.1634 -0.4914
   23MOL   C178 8582   7.685   5.487   4.965 -0.5570  1.1298  1.0388
   23MOL   C179 8583   7.789   5.373   4.974 -0.8813  0.3906 -0.3870
   23MOL   C180 8584   7.671   5.521   4.816  0.2845  0.5530  0.3849
   23MOL   H181 8585   7.752   5.703   5.429  0.5456 -0.5254  1.5255
   23MOL   H182 8586   7.765   5.584   5.321 -0.6371  0.3945  3.5733
   23MOL   H183 8587   7.784   5.831   5.158 -0.2317  0.2312 -1.1185
   23MOL   H184 8588   7.821   5.614   5.052 -1.2723  1.5553 -0.3826
   23MOL   H185 8589   7.593   5.448   5.006 -0.8680 -0.6021 -1.1794
   23MOL   H186 8590   7.770   5.315   5.065  1.5957  0.0271 -0.0521
   23MOL   H187 8591   0.054   5.414   4.966  0.6841 -2.5715  2.8589
   23MOL   H188 8592   7.777   5.296   4.898  1.5774 -1.9152  1.4613
   23MOL   H189 8593   7.580   5.580   4.809  1.0667  1.8546  1.0470
   23MOL   H190 8594   7.653   5.433   4.755  1.1616  0.4470  0.2840
   23MOL   H191 8595   7.757   5.576   4.779 -0.0747 -0.0691 -1.3934
   23MOL   C192 8596   7.625   5.876   5.291 -1.3337  0.6328 -0.8008
   23MOL   C193 8597   7.544   5.979   5.196 -0.5180  0.1780 -0.5670
   23MOL   C194 8598   7.637   6.058   5.096  0.1298 -0.9479  0.0164
   23MOL   O195 8599   7.677   6.171   5.120  0.0577  0.3928 -0.2384
   23MOL   N196 8600   7.672   5.985   4.988  0.9241 -0.0750 -0.3877
   23MOL   C197 8601   7.789   6.022   4.912  0.3500 -0.2147  0.2181
   23MOL   C198 8602   0.036   5.901   4.885 -0.2562  0.0697  0.1139
   23MOL   C199 8603   7.740   6.089   4.783  0.3806 -0.2805  0.2165
   23MOL   H200 8604   7.678   5.926   5.372 -0.2686 -0.3882 -0.8602
   23MOL   H201 8605   7.552   5.819   5.349  1.3118  0.1628  2.2245
   23MOL   H202 8606   7.472   5.919   5.140 -2.1646  1.0417  0.5549
   23MOL   H203 8607   7.639   5.890   4.983  0.3912  0.1281 -0.6742
   23MOL   H204 8608   0.014   6.094   4.968 -0.2819  0.2176  0.3603
   23MOL   H205 8609   0.091   5.872   4.974  0.3526 -1.3566 -0.7176
   23MOL   H206 8610   0.111   5.929   4.810  1.3368 -0.0783  1.6199
   23MOL   H207 8611   7.804   5.820   4.860 -0.3838 -0.0037  0.7071
   23MOL   H208 8612   7.830   6.121   4.730 -0.2924  0.4250 -0.5316
   23MOL   H209 8613   7.693   6.185   4.802  2.6431  1.5281 -2.7924
   23MOL   H210 8614   7.672   6.043   4.711  2.3057 -3.5700  0.4258
   23MOL   C211 8615   7.456   6.061   5.288 -0.3796 -0.3167 -0.1219
   23MOL   C212 8616   7.366   6.161   5.212  0.1576  0.6754 -0.6273
   23MOL   C213 8617   7.268   6.094   5.114 -0.2337  0.2832  0.7088
   23MOL   O214 8618   7.151   6.072   5.148  0.0300 -0.2634  0.0792
   23MOL   N215 8619   7.316   6.071   4.988  0.7726  0.6857 -0.0087
   23MOL   C216 8620   7.260   6.009   4.870 -0.6561  0.0660  0.5996
   23MOL   C217 8621   7.292   5.860   4.876  0.3746  0.8867  0.0708
   23MOL   C218 8622   7.344   6.056   4.747 -0.1041  0.3185  0.3027
   23MOL   H219 8623   7.531   6.109   5.350 -1.7646  0.7848  0.7288
   23MOL   H220 8624   7.397   6.013   5.365 -0.2859 -2.1668 -1.1651
   23MOL   H221 8625   7.434   6.214   5.144 -0.6670 -1.2033 -2.9960
   23MOL   H222 8626   7.411   6.107   4.982  0.5432  2.0668  3.2980
   23MOL   H223 8627   7.154   6.028   4.859 -0.7208  0.2904  1.5420
   23MOL   H224 8628   7.255   5.817   4.782 -1.1895  0.9949  0.6164
   23MOL   H225 8629   7.398   5.836   4.883  0.1363 -0.1185  0.4346
   23MOL   H226 8630   7.239   5.806   4.955  0.8635 -1.1484 -0.9344
   23MOL   H227 8631   7.448   6.061   4.778 -0.6935 -0.1142  2.4499
   23MOL   H228 8632   7.302   6.155   4.734 -0.3731  0.2313  0.4936
   23MOL   H229 8633   7.335   5.989   4.661 -0.1133  1.2162 -0.3945
   23MOL   C230 8634   7.308   6.268   5.306  0.2543 -0.1546 -0.2386
   23MOL   C231 8635   7.420   6.370   5.336 -0.2515 -0.1569 -0.1690
   23MOL   C232 8636   7.444   6.468   5.222 -0.1149  0.2372 -0.7252
   23MOL   O233 8637   7.366   6.565   5.207  0.0414  0.8239 -0.3049
   23MOL   N234 8638   7.548   6.437   5.146  0.4046 -0.8096  0.2504
   23MOL   C235 8639   7.617   6.529   5.048  0.8015 -0.3187 -0.5400
   23MOL   C236 8640   7.709   6.628   5.120 -0.2354 -0.9690  0.3611
   23MOL   C237 8641   7.678   6.447   4.937  0.2884 -0.7955  0.3575
   23MOL   H238 8642   7.276   6.223   5.400  1.7975  1.6134  1.1660
   23MOL   H239 8643   7.236   6.334   5.258  0.4480  0.3352  0.1394
   23MOL   H240 8644   7.515   6.322   5.360 -1.1826 -1.2932  1.2936
   23MOL   H241 8645   7.613   6.367   5.179  0.4691 -1.6955 -1.6886
   23MOL   H242 8646   7.548   6.586   4.985  2.3780  1.7279 -0.4352
   23MOL   H243 8647   7.780   6.579   5.187  1.1871  0.0562 -0.3509
   23MOL   H244 8648   7.763   6.697   5.054 -0.7501 -1.4264 -0.5434
   23MOL   H245 8649   7.652   6.688   5.190 -0.4680 -0.7975  0.0268
   23MOL   H246 8650   7.753   6.377   4.974  1.9582  1.2413  0.9018
   23MOL   H247 8651   7.740   6.516   4.880  1.5058 -0.8292  1.6037
   23MOL   H248 8652   7.609   6.400   4.866 -0.9095  1.2008  0.1554
   23MOL   C249 8653   7.380   6.440   5.468  0.6661  0.0977 -0.0401
   23MOL   C250 8654   7.484   6.548   5.508 -0.2357  0.1118 -1.2257
   23MOL   C251 8655   7.626   6.491   5.521 -0.1826  1.3589 -1.3921
   23MOL   O252 8656   7.719   6.541   5.468  0.1854  0.1973  0.0174
   23MOL   N253 8657   7.641   6.376   5.596  0.1290 -0.0919 -0.8503
   23MOL   C254 8658   7.760   6.295   5.593  0.1110 -0.3027  0.6267
   23MOL   C255 8659   7.767   6.223   5.725 -0.5486  0.1248 -0.6663
   23MOL   C256 8660   7.773   6.204   5.478  0.4664 -0.4584 -0.8795
   23MOL   H257 8661   7.364   6.366   5.546  0.7494  1.1528  0.9818
   23MOL   H258 8662   7.284   6.488   5.452 -0.7970 -2.0026  2.1177
   23MOL   H259 8663   7.502   6.627   5.435  1.2287  0.5226 -0.4354
   23MOL   H260 8664   7.562   6.346   5.650  0.7411 -1.9430 -0.9548
   23MOL   H261 8665   0.015   6.354   5.582  0.0568 -0.1003  1.2546
   23MOL   H262 8666   7.679   6.158   5.735  0.4871 -1.3523 -1.1092
   23MOL   H263 8667   0.023   6.166   5.730  0.4179  1.5730 -1.6371
   23MOL   H264 8668   7.780   6.287   5.813  0.7630  0.3543 -1.0212
   23MOL   H265 8669   7.753   6.251   5.382  0.4335  2.3737  0.4452
   23MOL   H266 8670   0.035   6.159   5.464  0.2640 -1.2051  0.0383
   23MOL   H267 8671   7.697   6.128   5.494  2.0713 -1.9382 -0.0773
   23MOL   C268 8672   7.442   6.636   5.626  0.1080  1.2920  0.3881
   23MOL   C269 8673   7.540   6.743   5.680 -0.1799 -0.3692  0.7676
   23MOL   C270 8674   7.570   6.862   5.585  0.4239  0.3641  0.8040
   23MOL   O271 8675   7.508   6.975   5.586 -0.0619 -0.8332 -0.1044
   23MOL   N272 8676   7.669   6.837   5.494  0.4060  0.4162 -0.2563
   23MOL   C273 8677   7.731   6.941   5.415  0.4522 -1.0414  0.4760
   23MOL   C274 8678   0.030   6.889   5.371  0.7462 -0.8092  0.0024
   23MOL   C275 8679   7.642   6.995   5.295 -0.0353  0.3015 -0.6565
   23MOL   H276 8680   7.345   6.678   5.600 -1.0810 -2.6060 -1.9713
   23MOL   H277 8681   7.412   6.568   5.706 -0.8365 -0.6804 -1.5803
   23MOL   H278 8682   7.637   6.694   5.692  0.4529 -0.0800 -2.8203
   23MOL   H279 8683   7.713   6.746   5.493  2.1111  1.2145 -1.1767
   23MOL   H280 8684   7.742   7.026   5.483  0.6721 -0.7684  0.0998
   23MOL   H281 8685   0.011   6.810   5.297  1.6137 -1.1188  0.0968
   23MOL   H282 8686   0.080   6.968   5.316  0.4883  0.5338  1.6752
   23MOL   H283 8687   0.091   6.846   5.451 -0.5081 -1.6720  0.5056
   23MOL   H284 8688   7.556   7.060   5.312  1.5979  1.7263  2.4732
   23MOL   H285 8689   7.709   7.051   5.229  0.8349  1.3316  1.0854
   23MOL   H286 8690   7.613   6.912   5.230 -1.4692  0.0219  0.3187
   23MOL   C287 8691   7.490   6.798   5.820  0.1325 -0.1638 -0.4242
   23MOL   C288 8692   7.583   6.889   5.899  0.3140 -0.0048  0.0507
   23MOL   C289 8693   7.706   6.811   5.943  0.2026 -0.0508  0.2867
   23MOL   O290 8694   7.701   6.758   6.057 -0.7782 -0.6693  0.4214
   23MOL   N291 8695   7.812   6.798   5.864 -0.8722 -0.6408  0.2088
   23MOL   C292 8696   0.087   6.707   5.873 -0.0114  0.2595  0.3783
   23MOL   C293 8697   0.056   6.565   5.907  0.2776  0.4507  0.2039
   23MOL   C294 8698   0.154   6.727   5.738  0.4763  0.1786  0.1593
   23MOL   H295 8699   7.395   6.850   5.807  0.3264  0.5395  0.9333
   23MOL   H296 8700   7.476   6.709   5.881 -1.7430 -1.1008 -2.1452
   23MOL   H297 8701   7.633   6.956   5.829  1.7573 -2.2690 -1.1426
   23MOL   H298 8702   7.805   6.850   5.777 -0.9363  0.1463  0.6816
   23MOL   H299 8703   0.157   6.743   5.948  2.1331  0.1248 -1.5173
   23MOL   H300 8704   7.826   6.532   5.828  0.8117  3.5560 -1.6256
   23MOL   H301 8705   0.149   6.507   5.907 -1.3985 -2.3383  0.1011
   23MOL   H302 8706   0.000   6.554   6.000 -2.5399 -0.3951 -1.5314
   23MOL   H303 8707   0.239   6.660   5.726  1.3455  1.1960  0.5910
   23MOL   H304 8708   0.083   6.703   5.659 -1.5831  0.7666  1.7772
   23MOL   H305 8709   0.184   6.831   5.724 -0.6741  0.5987  0.7346
   23MOL   C306 8710   7.502   6.962   6.018  0.0190  0.3614 -0.5420
   23MOL   C307 8711   7.427   7.088   5.968  0.3147  0.1252  0.3656
   23MOL   C308 8712   7.517   7.192   5.899 -0.0672 -1.2005  0.4333
   23MOL   O309 8713   7.591   7.263   5.972  0.9344 -0.2604 -0.2573
   23MOL   N310 8714   7.518   7.193   5.765 -0.4011 -0.5336  0.0596
   23MOL   C311 8715   7.562   7.306   5.685 -0.7892 -0.5975 -0.0656
   23MOL   C312 8716   7.708   7.287   5.636  0.5767 -0.1411 -0.4146
   23MOL   C313 8717   7.457   7.323   5.575  0.2213  0.0872  0.4391
   23MOL   H314 8718   7.428   6.893   6.059  0.9268 -0.1431  0.2604
   23MOL   H315 8719   7.575   6.981   6.097  0.1735 -0.5857 -0.4507
   23MOL   H316 8720   7.360   7.055   5.889 -1.6885  0.3859  1.9111
   23MOL   H317 8721   7.469   7.120   5.715 -1.9426 -0.3441  1.2708
   23MOL   H318 8722   7.568   7.393   5.751  1.4336 -0.6660 -0.1516
   23MOL   H319 8723   7.765   7.257   5.725  2.0312  1.3219 -0.8379
   23MOL   H320 8724   7.743   7.376   5.585 -1.1515  0.1312 -1.1563
   23MOL   H321 8725   7.714   7.207   5.562 -2.4283 -1.2013  0.4272
   23MOL   H322 8726   7.368   7.369   5.617 -0.8542 -1.3201 -0.2767
   23MOL   H323 8727   7.439   7.226   5.529 -0.5749 -0.6344  2.2562
   23MOL   H324 8728   7.494   7.380   5.490 -0.4102 -2.2042 -1.4129
   23MOL   C325 8729   7.342   7.151   6.076  0.3807 -0.6499 -0.9399
   23MOL   C326 8730   7.189   7.183   6.048  0.3404 -0.4033  0.2191
   23MOL   C327 8731   7.188   7.309   5.962 -0.4172  0.0425  0.2219
   23MOL   O328 8732   7.225   7.300   5.848 -0.1560  0.3472  0.0723
   23MOL   N329 8733   7.154   7.428   6.023  0.3501  0.4989 -0.0246
   23MOL   C330 8734   7.146   7.567   5.963  0.3174  0.6812  0.3956
   23MOL   C331 8735   7.291   7.613   5.949  0.0837 -0.3315 -0.0808
   23MOL   C332 8736   7.064   7.663   6.052  0.2951 -0.8447 -0.2219
   23MOL   H333 8737   7.390   7.241   6.114  1.2958 -1.8381  0.8102
   23MOL   H334 8738   7.348   7.105   6.175  1.8339 -0.6634 -1.0123
   23MOL   H335 8739   7.149   7.217   6.143  0.7394  0.8772 -0.0533
   23MOL   H336 8740   7.096   7.401   6.102  1.1915 -0.6619  0.2146
   23MOL   H337 8741   7.102   7.548   5.865  2.5900  0.0816 -0.5457
   23MOL   H338 8742   7.298   7.718   5.921  1.3393 -0.5060 -0.4780
   23MOL   H339 8743   7.350   7.598   6.039  1.8126 -0.9163 -1.2717
   23MOL   H340 8744   7.347   7.553   5.876  0.2147 -0.8953  0.4775
   23MOL   H341 8745   6.963   7.624   6.038 -1.0897  2.0476  1.3528
   23MOL   H342 8746   7.066   7.764   6.013 -0.6149 -0.3547  0.9797
   23MOL   H343 8747   7.107   7.660   6.152 -0.3301  1.0760  0.1147
   23MOL   C344 8748   7.092   7.082   5.986  0.4461 -0.0292 -0.0210
   23MOL   C345 8749   7.064   6.964   6.074 -0.5315  0.6244 -0.7243
   23MOL   C346 8750   6.969   7.012   6.184 -0.4350 -0.0374 -0.3286
   23MOL   O347 8751   6.867   7.074   6.159  0.6231  0.2845 -0.2448
   23MOL   N348 8752   7.004   6.994   6.316  0.3962  0.6253 -0.4494
   23MOL   C349 8753   6.944   7.053   6.435 -0.0151  0.6828  0.2379
   23MOL   C350 8754   6.956   6.948   6.544 -1.1347  0.2228  0.1531
   23MOL   C351 8755   7.036   7.180   6.471 -0.3873  0.3371 -0.0412
   23MOL   H352 8756   7.139   7.055   5.891  1.2162 -0.7488  0.5590
   23MOL   H353 8757   7.001   7.129   5.949 -0.9805 -2.9672 -0.3440
   23MOL   H354 8758   7.157   6.922   6.114 -0.3628  1.0151 -0.7049
   23MOL   H355 8759   7.088   6.939   6.326  1.7542  2.2002 -2.5929
   23MOL   H356 8760   6.841   7.082   6.417  0.0957  1.2552  0.4976
   23MOL   H357 8761   6.915   6.985   6.637 -2.6765  1.7574 -1.1179
   23MOL   H358 8762   6.897   6.861   6.514  1.7799 -1.4521 -0.9569
   23MOL   H359 8763   7.061   6.925   6.562 -0.9460  1.6538  0.9053
   23MOL   H360 8764   7.129   7.150   6.519  0.5115  1.4485 -1.0772
   23MOL   H361 8765   7.043   7.258   6.395 -2.3085 -0.0633 -0.6611
   23MOL   H362 8766   6.982   7.222   6.556 -0.2811 -0.8599  0.6220
   23MOL   C363 8767   7.006   6.848   5.992  0.0813 -0.2105  0.2549
   23MOL   C364 8768   7.103   6.768   5.908 -0.6215 -0.0506  0.4113
   23MOL   C365 8769   7.054   6.639   5.843  0.6209  0.3520 -0.1307
   23MOL   O366 8770   7.138   6.577   5.787  0.1033 -0.1643 -0.1140
   23MOL   N367 8771   6.926   6.594   5.847  0.4745 -0.3156 -0.0896
   23MOL   C368 8772   6.870   6.462   5.806  0.5403  0.4146 -0.3107
   23MOL   C369 8773   6.776   6.405   5.915 -0.7603  0.3811 -0.2176
   23MOL   C370 8774   6.813   6.463   5.664 -0.2023 -0.2860  0.2004
   23MOL   H371 8775   6.917   6.886   5.942 -0.2254  1.0576  1.7534
   23MOL   H372 8776   6.961   6.788   6.072  2.5685 -1.1811  0.9910
   23MOL   H373 8777   7.180   6.740   5.981  0.5762 -0.2394 -0.9094
   23MOL   H374 8778   6.863   6.646   5.907  1.6015 -1.0062  1.6909
   23MOL   H375 8779   6.949   6.388   5.814 -1.2504 -1.3706  1.4028
   23MOL   H376 8780   6.684   6.463   5.930 -1.3662 -0.3526 -1.0012
   23MOL   H377 8781   6.750   6.301   5.896  0.0375  0.1156  0.1326
   23MOL   H378 8782   6.826   6.406   6.011 -0.5744 -0.9007 -0.2957
   23MOL   H379 8783   6.715   6.422   5.641 -0.4842  1.0193 -1.0343
   23MOL   H380 8784   6.801   6.565   5.625 -3.0839 -1.0602 -1.0806
   23MOL   H381 8785   6.892   6.423   5.600 -0.2598  0.0962 -0.1167
   23MOL   H382 8786   7.133   6.833   5.826 -0.7753  0.7146  0.9460
   24MOL     C1 8787   1.926   1.765   2.600 -0.0293 -0.1059 -0.7492
   24MOL     C2 8788   1.800   1.720   2.527  0.2504  0.2311 -0.1922
   24MOL     C3 8789   1.804   1.747   2.369 -0.1149 -0.0100 -0.3358
   24MOL     O4 8790   1.864   1.667   2.296 -0.0412  0.7081 -0.1545
   24MOL     N5 8791   1.746   1.859   2.322 -0.2078 -0.0298 -0.0621
   24MOL     C6 8792   1.752   1.906   2.187  0.1474  0.3990 -0.0054
   24MOL     C7 8793   1.606   1.922   2.146  0.4631  0.1627  0.7329
   24MOL     C8 8794   1.836   2.035   2.187  0.2768  0.3076  0.3059
   24MOL     H9 8795   1.925   1.746   2.708  4.6349 -1.7996 -0.8770
   24MOL    H10 8796   1.959   1.867   2.586  1.1151 -0.5502 -1.3281
   24MOL    H11 8797   1.721   1.793   2.546  0.2199  0.7997 -2.3773
   24MOL    H12 8798   1.673   1.905   2.374  0.3849 -0.9098  1.5950
   24MOL    H13 8799   1.787   1.836   2.111  0.6575 -0.7896  1.2983
   24MOL    H14 8800   1.577   2.017   2.191 -2.1863 -1.0892  1.7742
   24MOL    H15 8801   1.548   1.832   2.166 -0.1698  0.4941  0.3894
   24MOL    H16 8802   1.607   1.935   2.038 -2.0956  0.3949  0.7051
   24MOL    H17 8803   1.936   2.011   2.225  0.3714  1.7424  1.0213
   24MOL    H18 8804   1.866   2.069   2.088  0.2596 -0.7062 -0.0497
   24MOL    H19 8805   1.797   2.119   2.246 -2.6878 -0.6410 -0.2517
   24MOL    H20 8806   2.011   1.707   2.565  1.0960  2.1579 -1.7848
   24MOL    C21 8807   1.747   1.581   2.563  0.3301  0.0977  0.3382
   24MOL    C22 8808   1.641   1.582   2.677  0.2303 -0.1214  0.1464
   24MOL    C23 8809   1.676   1.665   2.809 -0.5133 -0.3937  0.0818
   24MOL    O24 8810   1.772   1.637   2.883 -0.0229 -0.3567 -0.6184
   24MOL    N25 8811   1.593   1.772   2.842  0.1267  0.3612 -0.0094
   24MOL    C26 8812   1.590   1.837   2.976  0.3838  0.0238  0.3068
   24MOL    C27 8813   1.568   1.732   3.094  0.5430 -0.0025 -0.3289
   24MOL    C28 8814   1.477   1.938   2.984 -0.7549 -0.2148 -0.6480
   24MOL    H29 8815   1.828   1.521   2.605 -1.9965 -1.0042  3.4935
   24MOL    H30 8816   1.712   1.530   2.473  0.3811  0.9205 -0.1563
   24MOL    H31 8817   1.567   1.642   2.625  0.5811 -0.6349 -0.9684
   24MOL    H32 8818   1.518   1.795   2.777  0.6244  1.0595 -0.3430
   24MOL    H33 8819   1.691   1.874   2.995  0.9662 -1.2410 -0.2593
   24MOL    H34 8820   1.479   1.672   3.074 -0.2524  0.8126  0.6666
   24MOL    H35 8821   1.551   1.784   3.188 -1.5930  0.2684 -0.8373
   24MOL    H36 8822   1.648   1.661   3.112 -1.0958 -2.0236 -0.8435
   24MOL    H37 8823   1.503   2.028   3.041 -1.0530 -2.3350  3.0019
   24MOL    H38 8824   1.451   1.962   2.881  0.7459 -0.9594 -1.2056
   24MOL    H39 8825   1.395   1.884   3.032 -0.1149  0.3117  1.0740
   24MOL    C40 8826   1.583   1.442   2.699  0.7027 -0.0622 -0.1404
   24MOL    C41 8827   1.455   1.442   2.786 -0.9943  0.0884  0.6388
   24MOL    C42 8828   1.421   1.292   2.804  0.2112  0.5588  0.1972
   24MOL    O43 8829   1.341   1.239   2.725  0.0094 -0.3555 -0.1788
   24MOL    N44 8830   1.477   1.226   2.903  0.9839 -0.0545  0.0276
   24MOL    C45 8831   1.455   1.091   2.936 -0.5643  0.1785  0.6881
   24MOL    C46 8832   1.507   0.991   2.839 -0.1305  0.5794 -0.3564
   24MOL    C47 8833   1.504   1.070   3.078 -0.1841  0.4435 -0.2955
   24MOL    H48 8834   1.659   1.375   2.739  0.4957  1.0483  2.1742
   24MOL    H49 8835   1.561   1.400   2.601 -0.8105 -0.5120  0.3953
   24MOL    H50 8836   1.468   1.464   2.892  1.4995 -0.7103  0.5221
   24MOL    H51 8837   1.535   1.281   2.965 -0.3731 -0.2394  1.5127
   24MOL    H52 8838   1.347   1.072   2.935 -0.2576 -1.6993  0.4848
   24MOL    H53 8839   1.615   1.001   2.824 -0.3348 -0.3952 -2.7685
   24MOL    H54 8840   1.470   1.001   2.737  3.8691  0.8526 -1.8716
   24MOL    H55 8841   1.505   0.884   2.861 -0.1563  0.5957 -0.2797
   24MOL    H56 8842   1.613   1.066   3.068  0.0413  1.3117  1.5763
   24MOL    H57 8843   1.476   0.972   3.117  0.0104 -0.0063 -1.2596
   24MOL    H58 8844   1.483   1.144   3.155  0.5886  2.1388 -1.7108
   24MOL    C59 8845   1.334   1.521   2.727  0.4140  0.8562 -0.9614
   24MOL    C60 8846   1.202   1.513   2.807 -0.3237 -0.3255 -0.1762
   24MOL    C61 8847   1.083   1.497   2.715  0.2238 -0.5049  0.3518
   24MOL    O62 8848   0.995   1.582   2.708 -0.0854 -0.3984  0.2375
   24MOL    N63 8849   1.082   1.387   2.645 -0.1367  0.4278 -0.0571
   24MOL    C64 8850   0.993   1.355   2.541  0.0991 -0.0900  0.5005
   24MOL    C65 8851   1.069   1.279   2.432  0.2343  0.2048 -0.4708
   24MOL    C66 8852   0.872   1.270   2.591  0.4502  0.1540  0.0496
   24MOL    H67 8853   1.355   1.628   2.729 -3.0205  1.5696  0.6962
   24MOL    H68 8854   1.313   1.486   2.626 -0.6318  2.8306 -1.4534
   24MOL    H69 8855   1.205   1.417   2.858 -0.4938 -0.5248 -0.5358
   24MOL    H70 8856   1.163   1.328   2.660  0.0757  0.9954  1.0677
   24MOL    H71 8857   0.950   1.448   2.501 -0.4780  0.0880  1.5107
   24MOL    H72 8858   1.001   1.262   2.349 -1.4997  0.4003  0.8749
   24MOL    H73 8859   1.147   1.344   2.393  1.4550 -0.9639 -0.0202
   24MOL    H74 8860   1.115   1.187   2.468 -0.5008  0.5155  1.3090
   24MOL    H75 8861   0.788   1.298   2.526  1.2794  4.0413  0.5392
   24MOL    H76 8862   0.895   1.164   2.597 -1.6362 -0.2010  2.6047
   24MOL    H77 8863   0.836   1.295   2.690 -1.3791 -1.4807 -0.1757
   24MOL    C78 8864   1.191   1.631   2.910 -0.2150  0.3075 -0.0209
   24MOL    C79 8865   1.098   1.593   3.025  0.2442  0.7304  0.3228
   24MOL    C80 8866   1.163   1.484   3.112 -0.4549 -0.7080 -0.1449
   24MOL    O81 8867   1.274   1.503   3.152  0.5772  0.6824 -0.0392
   24MOL    N82 8868   1.090   1.380   3.131 -0.0669 -0.2383 -0.3249
   24MOL    C83 8869   1.130   1.265   3.215 -0.8381 -0.0918 -0.5753
   24MOL    C84 8870   1.089   1.286   3.357  0.1809  0.2879 -0.1036
   24MOL    C85 8871   1.071   1.131   3.164  0.1940  0.2679 -0.0873
   24MOL    H86 8872   1.151   1.726   2.874  2.1559  1.7934  1.1595
   24MOL    H87 8873   1.291   1.653   2.945  0.4102  0.5430 -1.8732
   24MOL    H88 8874   1.001   1.556   2.993 -0.2047  1.8664  0.3775
   24MOL    H89 8875   1.005   1.381   3.076  0.0370  2.8271 -0.4699
   24MOL    H90 8876   1.238   1.254   3.206 -0.8026  0.7906 -1.3027
   24MOL    H91 8877   1.107   1.192   3.410 -0.5327  1.8492  3.0390
   24MOL    H92 8878   1.152   1.358   3.410  0.9366 -2.2442  2.5814
   24MOL    H93 8879   0.982   1.304   3.355  0.0698  0.3054  2.8962
   24MOL    H94 8880   1.127   1.047   3.205 -1.6337 -1.3434 -0.8613
   24MOL    H95 8881   1.088   1.118   3.058  1.8700  2.6643 -0.1619
   24MOL    H96 8882   0.965   1.130   3.189  0.0567 -0.0397 -0.6926
   24MOL    C97 8883   1.066   1.720   3.114  0.3651 -0.7024  0.2694
   24MOL    C98 8884   0.966   1.702   3.229  0.6075  0.3911  0.1218
   24MOL    C99 8885   0.817   1.696   3.177  0.1076  0.1809  0.5743
   24MOL   O100 8886   0.727   1.653   3.253  0.6430  0.3336 -0.2472
   24MOL   N101 8887   0.787   1.725   3.050  0.3837  0.2760  0.2740
   24MOL   C102 8888   0.653   1.738   2.983  0.5237 -0.1252 -0.5903
   24MOL   C103 8889   0.658   1.835   2.863  0.4373  0.5165  0.0214
   24MOL   C104 8890   0.601   1.604   2.937 -0.1037  0.3906  0.0490
   24MOL   H105 8891   1.039   1.802   3.047 -1.8405 -2.0506 -0.5445
   24MOL   H106 8892   1.160   1.761   3.153 -1.3980  0.2776  3.6471
   24MOL   H107 8893   0.987   1.605   3.274 -0.7291 -0.0052 -0.0787
   24MOL   H108 8894   0.862   1.743   2.984 -1.9942  2.0846 -2.0000
   24MOL   H109 8895   0.580   1.771   3.057 -0.2200  0.5546 -1.6114
   24MOL   H110 8896   0.558   1.835   2.819  0.7676 -2.8357 -0.8562
   24MOL   H111 8897   0.677   1.941   2.882  0.6936  0.5273 -0.2963
   24MOL   H112 8898   0.730   1.800   2.788  1.3498  0.7464  0.7777
   24MOL   H113 8899   0.517   1.606   2.868  0.9270 -1.7226 -1.3162
   24MOL   H114 8900   0.578   1.547   3.027  2.8433 -0.9547  0.0109
   24MOL   H115 8901   0.674   1.554   2.873 -2.0857 -1.5038 -0.7846
   24MOL   C116 8902   0.988   1.794   3.359  0.0006  0.1405  0.2527
   24MOL   C117 8903   1.025   1.942   3.337 -0.1544  0.2259  0.0239
   24MOL   C118 8904   1.057   2.011   3.470 -0.9867 -0.4659  0.3550
   24MOL   O119 8905   0.969   2.024   3.552  0.7502 -0.6463 -0.5237
   24MOL   N120 8906   1.185   2.059   3.486 -0.3281 -0.0605 -0.1197
   24MOL   C121 8907   1.240   2.128   3.600 -0.3686 -0.2931  0.1029
   24MOL   C122 8908   1.353   2.048   3.665  0.2221  0.3661  0.5070
   24MOL   C123 8909   1.278   2.275   3.580 -0.0088 -0.4021  0.8207
   24MOL   H124 8910   1.067   1.750   3.420 -0.4144 -1.2285 -0.1629
   24MOL   H125 8911   0.898   1.785   3.419 -0.4875 -0.1168 -0.5036
   24MOL   H126 8912   1.118   1.947   3.281 -0.7066 -0.8275 -1.0145
   24MOL   H127 8913   1.242   2.042   3.404  0.0670  3.1779 -0.5694
   24MOL   H128 8914   1.154   2.134   3.667 -0.5472 -2.4286  0.0944
   24MOL   H129 8915   1.410   1.979   3.602 -1.8283 -1.0616  0.1634
   24MOL   H130 8916   1.309   1.962   3.717  0.3553 -0.5249 -0.8246
   24MOL   H131 8917   1.417   2.104   3.733  1.4385  0.4673 -0.6924
   24MOL   H132 8918   1.207   2.328   3.517  1.7915  0.3919 -0.5927
   24MOL   H133 8919   1.284   2.324   3.677  0.2305  0.3769  0.4228
   24MOL   H134 8920   1.377   2.287   3.535 -0.5740  0.8174 -0.1349
   24MOL   C135 8921   0.913   2.024   3.266 -0.8837  0.0453 -0.3997
   24MOL   C136 8922   0.949   2.170   3.245 -0.3339  0.1809 -0.5512
   24MOL   C137 8923   1.071   2.185   3.157 -0.0913 -0.0345 -0.5323
   24MOL   O138 8924   1.083   2.113   3.060  0.1042  0.3691  0.1989
   24MOL   N139 8925   1.158   2.283   3.193  0.5535  0.7728 -0.0615
   24MOL   C140 8926   1.279   2.323   3.129 -0.6082 -0.6596  0.0987
   24MOL   C141 8927   1.398   2.260   3.204 -0.0261 -0.5027  0.0637
   24MOL   C142 8928   1.284   2.476   3.129  0.5991 -0.2039 -0.0261
   24MOL   H143 8929   0.822   2.019   3.326 -0.4328  0.3231  0.3042
   24MOL   H144 8930   0.896   1.973   3.171 -0.8775 -3.1648  1.2628
   24MOL   H145 8931   0.969   2.224   3.337 -2.5057  1.9175 -1.0503
   24MOL   H146 8932   1.123   2.346   3.263 -2.6911 -1.1715  0.1899
   24MOL   H147 8933   1.293   2.280   3.030  1.4438  1.5081 -0.6105
   24MOL   H148 8934   1.493   2.295   3.164  0.5717 -0.8209  1.1866
   24MOL   H149 8935   1.391   2.276   3.312  0.3982 -0.0299  0.0231
   24MOL   H150 8936   1.383   2.152   3.192 -0.9680 -0.0969 -2.6143
   24MOL   H151 8937   1.294   2.507   3.233  2.2007 -1.2230  0.1348
   24MOL   H152 8938   1.189   2.514   3.089 -0.0277 -1.6683  0.0306
   24MOL   H153 8939   1.373   2.516   3.082  0.7765 -0.4988  0.0616
   24MOL   C154 8940   0.819   2.242   3.189  0.1288  0.6546 -0.2868
   24MOL   C155 8941   0.776   2.362   3.276  0.1833 -0.6886  0.2389
   24MOL   C156 8942   0.625   2.392   3.251 -0.1797 -0.3970  0.0296
   24MOL   O157 8943   0.578   2.404   3.134 -0.0538 -0.2826  0.4171
   24MOL   N158 8944   0.550   2.418   3.360 -0.8300 -0.1414  0.0675
   24MOL   C159 8945   0.407   2.452   3.357 -0.0780 -0.3751 -0.7583
   24MOL   C160 8946   0.387   2.592   3.417 -0.3074 -0.3035  0.5058
   24MOL   C161 8947   0.334   2.340   3.427  0.3625  0.7759 -0.2282
   24MOL   H162 8948   0.737   2.171   3.191  1.3522 -0.7509  1.7973
   24MOL   H163 8949   0.844   2.260   3.084  0.8531  0.1189 -0.2114
   24MOL   H164 8950   0.780   2.339   3.383  1.3082 -2.6949 -0.2100
   24MOL   H165 8951   0.591   2.416   3.453  1.4156 -1.0688 -0.9033
   24MOL   H166 8952   0.365   2.454   3.256  1.6282  0.8628 -1.4822
   24MOL   H167 8953   0.284   2.619   3.393 -0.8456 -0.2909  2.6635
   24MOL   H168 8954   0.386   2.589   3.526  0.6402  0.2994  0.5328
   24MOL   H169 8955   0.466   2.663   3.397  0.8493 -0.4597  4.1330
   24MOL   H170 8956   0.364   2.246   3.380 -1.8769 -0.2203  0.2450
   24MOL   H171 8957   0.226   2.352   3.419  0.0785 -1.0876  0.7589
   24MOL   H172 8958   0.362   2.331   3.531 -1.3314  1.9623  0.3512
   24MOL   C173 8959   0.853   2.498   3.246  0.4522 -0.0546  0.2543
   24MOL   C174 8960   0.865   2.597   3.361  0.4532  0.6074 -0.6700
   24MOL   C175 8961   0.978   2.549   3.456  0.0536 -0.5853  0.3063
   24MOL   O176 8962   1.092   2.534   3.420  0.4005 -0.3105  0.1523
   24MOL   N177 8963   0.951   2.552   3.584  0.1562 -0.1281 -0.1431
   24MOL   C178 8964   1.048   2.547   3.694  0.1870  0.3126  0.3335
   24MOL   C179 8965   1.004   2.461   3.814 -0.4963 -0.4350  0.6231
   24MOL   C180 8966   1.101   2.689   3.740 -0.1807 -0.3026 -0.4239
   24MOL   H181 8967   0.805   2.555   3.166  2.9819  1.4758 -0.2353
   24MOL   H182 8968   0.951   2.476   3.202  0.7076 -0.9661  1.2430
   24MOL   H183 8969   0.770   2.599   3.414 -0.3982 -1.1086 -2.1048
   24MOL   H184 8970   0.852   2.552   3.606 -0.0326 -0.9482 -0.9831
   24MOL   H185 8971   1.141   2.501   3.660  0.7664  1.0043  0.9709
   24MOL   H186 8972   1.083   2.454   3.889  0.3061 -0.6764 -0.2407
   24MOL   H187 8973   0.994   2.358   3.780  0.0975 -0.3307  0.1305
   24MOL   H188 8974   0.916   2.505   3.863  0.0167  1.4737 -0.1146
   24MOL   H189 8975   1.051   2.738   3.824  2.3823 -0.0136  1.0002
   24MOL   H190 8976   1.101   2.766   3.663 -1.0034 -0.4098 -0.5278
   24MOL   H191 8977   1.204   2.679   3.775 -0.0391 -0.0258 -0.7648
   24MOL   C192 8978   0.889   2.738   3.303  1.0649 -0.7823 -0.6848
   24MOL   C193 8979   0.922   2.855   3.411  0.1347  0.1206 -0.7554
   24MOL   C194 8980   0.802   2.881   3.502 -0.6158 -0.1030  0.0104
   24MOL   O195 8981   0.710   2.959   3.464  0.0797  0.4723 -0.0440
   24MOL   N196 8982   0.809   2.823   3.626  0.1121 -0.2611 -0.0331
   24MOL   C197 8983   0.708   2.823   3.732  0.0195  0.4965  0.0839
   24MOL   C198 8984   0.636   2.693   3.748  0.6274 -0.8200  0.7397
   24MOL   C199 8985   0.768   2.874   3.862 -0.4112 -0.0125 -0.3295
   24MOL   H200 8986   0.800   2.766   3.247  0.6496 -2.1473 -0.7437
   24MOL   H201 8987   0.977   2.733   3.239  1.5602  2.4439 -0.3275
   24MOL   H202 8988   1.003   2.817   3.473 -0.1528  0.0801 -0.4045
   24MOL   H203 8989   0.902   2.800   3.659  0.6968  1.4596 -0.4447
   24MOL   H204 8990   0.619   2.882   3.709 -0.6603  0.4746  2.5591
   24MOL   H205 8991   0.572   2.688   3.835 -1.1293 -0.1984 -0.4971
   24MOL   H206 8992   0.712   2.615   3.749  0.4731 -1.0133 -0.7817
   24MOL   H207 8993   0.571   2.691   3.661  2.0184  0.6999 -0.3730
   24MOL   H208 8994   0.710   2.891   3.953  0.1513 -3.7505  0.8031
   24MOL   H209 8995   0.821   2.968   3.843  2.0977 -1.2834  0.0774
   24MOL   H210 8996   0.846   2.800   3.881 -0.4241  0.0686  0.0365
   24MOL   C211 8997   0.968   2.983   3.345  0.4328  0.5245 -0.3227
   24MOL   C212 8998   0.993   3.103   3.437 -0.1770 -0.7345  0.9549
   24MOL   C213 8999   1.131   3.098   3.499  0.1201  0.3446 -0.0314
   24MOL   O214 9000   1.228   3.079   3.431  0.4361  0.1055  0.0221
   24MOL   N215 9001   1.138   3.093   3.633 -0.2770  0.6057  0.0465
   24MOL   C216 9002   1.257   3.102   3.710 -0.2112 -0.4853 -0.1672
   24MOL   C217 9003   1.291   2.971   3.784 -0.2262 -0.4467  0.2047
   24MOL   C218 9004   1.239   3.215   3.806 -0.6085 -0.1752 -0.2234
   24MOL   H219 9005   0.886   3.009   3.278  0.3771 -0.1365 -0.5117
   24MOL   H220 9006   1.051   2.972   3.276 -1.0078 -1.4318 -1.8060
   24MOL   H221 9007   0.927   3.087   3.523 -0.1751  0.4593  1.1827
   24MOL   H222 9008   1.051   3.093   3.684  0.8300  2.1234  2.0136
   24MOL   H223 9009   1.342   3.123   3.645 -0.8712  0.4387 -0.7401
   24MOL   H224 9010   1.383   2.992   3.838 -0.2406  1.5503 -0.4859
   24MOL   H225 9011   1.202   2.953   3.845  0.0877  0.9393  1.0993
   24MOL   H226 9012   1.323   2.890   3.719  0.1914  1.1934 -1.6741
   24MOL   H227 9013   1.145   3.218   3.862  0.1412  1.0993  0.9886
   24MOL   H228 9014   1.247   3.318   3.773  1.4848 -0.1949  0.1525
   24MOL   H229 9015   1.318   3.215   3.880 -2.5627 -1.1416  1.9386
   24MOL   C230 9016   0.962   3.235   3.359  0.2974 -0.6252  0.2808
   24MOL   C231 9017   0.816   3.278   3.346  1.0268 -0.7699  0.1889
   24MOL   C232 9018   0.760   3.337   3.478 -0.3251 -0.1369 -0.1185
   24MOL   O233 9019   0.783   3.450   3.508 -0.1630 -0.5954 -0.0988
   24MOL   N234 9020   0.684   3.256   3.558 -0.1272 -0.3613 -0.5081
   24MOL   C235 9021   0.620   3.298   3.678 -0.7805  0.0454  0.2232
   24MOL   C236 9022   0.523   3.190   3.722  0.0347 -0.2577 -0.2813
   24MOL   C237 9023   0.715   3.334   3.792 -0.2354 -0.1576 -0.1323
   24MOL   H238 9024   1.017   3.234   3.265  1.0155  0.5367  0.6778
   24MOL   H239 9025   1.011   3.324   3.399  2.3150 -1.2738 -0.6698
   24MOL   H240 9026   0.762   3.190   3.310  0.1167  0.4096 -1.3716
   24MOL   H241 9027   0.662   3.164   3.523 -0.2999 -0.4406 -0.1893
   24MOL   H242 9028   0.567   3.392   3.669  1.9429  1.4568 -1.8395
   24MOL   H243 9029   0.473   3.224   3.813  3.4326  0.9023  1.2418
   24MOL   H244 9030   0.447   3.171   3.646 -0.1265 -2.2109  0.3228
   24MOL   H245 9031   0.563   3.091   3.746 -1.3257 -0.3852  1.5921
   24MOL   H246 9032   0.672   3.348   3.891  1.5728  2.2898  0.3550
   24MOL   H247 9033   0.769   3.428   3.776  0.5186 -0.4364  0.7814
   24MOL   H248 9034   0.790   3.256   3.803 -3.1895 -2.9049  1.3720
   24MOL   C249 9035   0.804   3.385   3.237 -0.6878  0.5285  0.0974
   24MOL   C250 9036   0.717   3.349   3.115 -0.1642  0.3274 -0.6514
   24MOL   C251 9037   0.746   3.209   3.054 -0.0861  0.8511  0.1421
   24MOL   O252 9038   0.862   3.179   3.027  0.1404  0.3656  0.0923
   24MOL   N253 9039   0.640   3.126   3.063  0.4596 -0.0865  0.0304
   24MOL   C254 9040   0.650   2.989   3.009 -0.3774 -0.3774  0.1893
   24MOL   C255 9041   0.572   2.884   3.093  0.3867 -0.6088 -0.5327
   24MOL   C256 9042   0.599   2.986   2.860 -0.3323 -0.1357  0.4388
   24MOL   H257 9043   0.902   3.411   3.197 -0.6100  0.5796  0.3199
   24MOL   H258 9044   0.762   3.480   3.268  0.5268  1.1454 -0.1086
   24MOL   H259 9045   0.615   3.333   3.152  0.2428 -1.2717 -0.1907
   24MOL   H260 9046   0.557   3.153   3.114  0.5080 -2.5407  1.4658
   24MOL   H261 9047   0.755   2.957   3.008 -0.2887 -0.0796 -0.1625
   24MOL   H262 9048   0.464   2.900   3.083  0.5990 -0.0304 -2.0644
   24MOL   H263 9049   0.596   2.785   3.054 -0.1164 -0.3249 -1.5881
   24MOL   H264 9050   0.595   2.884   3.199  5.4006  0.4859 -1.4953
   24MOL   H265 9051   0.654   3.056   2.796 -0.8607 -0.2379 -0.1301
   24MOL   H266 9052   0.600   2.887   2.815  0.3468  0.2208 -0.3549
   24MOL   H267 9053   0.496   3.020   2.865 -0.1667  0.5006 -0.4044
   24MOL   C268 9054   0.705   3.457   3.013 -0.2370 -0.4084 -0.1279
   24MOL   C269 9055   0.571   3.475   2.934  0.1828 -0.2009  0.4522
   24MOL   C270 9056   0.565   3.627   2.891 -0.0258 -0.3922  0.3772
   24MOL   O271 9057   0.650   3.673   2.809 -0.1402  0.3574  0.3510
   24MOL   N272 9058   0.463   3.701   2.944  0.2794 -0.2205 -0.4220
   24MOL   C273 9059   0.429   3.831   2.898  0.2167  0.1048  0.5895
   24MOL   C274 9060   0.278   3.831   2.856 -0.7464  0.6263 -0.0050
   24MOL   C275 9061   0.478   3.938   3.001 -0.9556 -1.0080  0.2983
   24MOL   H276 9062   0.735   3.550   3.061  1.5529 -1.2619  0.4540
   24MOL   H277 9063   0.780   3.440   2.935 -0.9296  2.8013 -1.5837
   24MOL   H278 9064   0.501   3.467   3.017  0.9211  2.5011  1.3975
   24MOL   H279 9065   0.397   3.647   2.999 -0.5508  0.7351 -0.4658
   24MOL   H280 9066   0.473   3.848   2.799  0.3767  0.0163  0.6455
   24MOL   H281 9067   0.264   3.754   2.780  2.2258  0.0751 -0.0586
   24MOL   H282 9068   0.215   3.806   2.941 -0.2703  0.2557  0.2438
   24MOL   H283 9069   0.243   3.918   2.800 -1.5482  0.3331  0.0310
   24MOL   H284 9070   0.584   3.933   3.026 -0.4363 -0.5012 -1.6786
   24MOL   H285 9071   0.458   4.041   2.972  0.8261 -0.6811  0.1432
   24MOL   H286 9072   0.429   3.926   3.097 -0.3886  1.2988  0.8857
   24MOL   C287 9073   0.552   3.378   2.814  0.6715 -0.0409 -0.3590
   24MOL   C288 9074   0.407   3.363   2.763  0.1309 -0.0516 -0.3650
   24MOL   C289 9075   0.314   3.309   2.871 -0.0732 -0.2042 -0.2103
   24MOL   O290 9076   0.340   3.208   2.930  0.2630 -0.0584 -0.1982
   24MOL   N291 9077   0.207   3.381   2.897  0.0521  0.2381 -0.6357
   24MOL   C292 9078   0.119   3.360   3.008  0.1277 -0.6593 -0.1006
   24MOL   C293 9079   0.056   3.500   3.038 -0.1749 -0.4000 -0.2327
   24MOL   C294 9080   0.002   3.264   2.963 -0.6342  0.2925 -0.3899
   24MOL   H295 9081   0.601   3.419   2.726 -1.7608  1.6799 -0.9644
   24MOL   H296 9082   0.574   3.275   2.841 -0.0697 -0.4789 -1.4249
   24MOL   H297 9083   0.368   3.459   2.727  1.3435 -0.7722 -3.7956
   24MOL   H298 9084   0.190   3.457   2.832 -0.0195  1.7176  1.0803
   24MOL   H299 9085   0.175   3.318   3.092  0.4966  1.6128  0.8282
   24MOL   H300 9086   0.004   3.535   2.949 -1.2916  0.6607  0.8188
   24MOL   H301 9087   7.826   3.498   3.125 -1.4360  2.4374 -1.0942
   24MOL   H302 9088   0.140   3.567   3.054 -0.1072 -0.2149 -1.3197
   24MOL   H303 9089   7.773   3.253   3.050  1.9534 -0.5849  1.5121
   24MOL   H304 9090   7.777   3.304   2.883 -0.6419  0.3073 -0.3769
   24MOL   H305 9091   0.040   3.166   2.934  0.7475  1.1629 -1.5981
   24MOL   C306 9092   0.406   3.263   2.644  0.0515 -0.2260 -0.2921
   24MOL   C307 9093   0.288   3.269   2.545 -0.1563  0.4854  0.2254
   24MOL   C308 9094   0.255   3.128   2.485  0.5101 -0.0688 -0.6149
   24MOL   O309 9095   0.337   3.040   2.459 -0.1668 -0.5746 -0.1351
   24MOL   N310 9096   0.124   3.102   2.465  0.1768  0.2232  0.4936
   24MOL   C311 9097   0.051   2.999   2.395  0.5109  0.1777  0.5366
   24MOL   C312 9098   7.792   2.934   2.494  0.1187 -0.4604 -0.7832
   24MOL   C313 9099   7.809   3.065   2.278  0.3850  0.2691  0.1493
   24MOL   H314 9100   0.505   3.269   2.600  0.3471 -2.2656  0.0582
   24MOL   H315 9101   0.409   3.163   2.688 -1.7549 -0.3903 -0.4899
   24MOL   H316 9102   0.200   3.294   2.606  0.2863  0.2219  0.9774
   24MOL   H317 9103   0.069   3.176   2.506 -2.4121 -1.0337 -0.6347
   24MOL   H318 9104   0.123   2.924   2.363 -0.6409 -0.6181 -0.2001
   24MOL   H319 9105   7.725   2.867   2.440 -1.0604 -0.1629  0.2803
   24MOL   H320 9106   7.731   3.003   2.552 -1.9061 -2.0376 -0.9737
   24MOL   H321 9107   0.007   2.864   2.559 -0.2539  1.3382  1.5188
   24MOL   H322 9108   7.748   2.997   2.218  0.1945  0.6147 -0.0477
   24MOL   H323 9109   0.043   3.101   2.203 -0.8219 -1.8163 -2.0924
   24MOL   H324 9110   7.750   3.151   2.309  1.8067  0.4265  2.5590
   24MOL   C325 9111   0.307   3.378   2.441  0.1831  0.2845 -0.9049
   24MOL   C326 9112   0.176   3.445   2.381  0.1487 -0.6903  0.0287
   24MOL   C327 9113   0.089   3.511   2.493  0.6134  0.4718 -0.1393
   24MOL   O328 9114   0.144   3.590   2.574  0.2575 -0.5317 -0.9795
   24MOL   N329 9115   7.797   3.480   2.504  0.9968  0.3382 -0.4584
   24MOL   C330 9116   7.700   3.537   2.596  1.3691  0.2964 -0.8736
   24MOL   C331 9117   7.606   3.424   2.628  0.0291  0.2356  0.0787
   24MOL   C332 9118   7.626   3.657   2.530 -0.0251 -0.4115 -0.4758
   24MOL   H333 9119   0.354   3.333   2.354  0.8029 -1.0951  0.1392
   24MOL   H334 9120   0.371   3.454   2.485  0.8144 -0.4516 -0.5513
   24MOL   H335 9121   0.114   3.375   2.326  0.6388 -2.1571  1.2790
   24MOL   H336 9122   7.764   3.425   2.426  0.7562  0.9683 -0.8020
   24MOL   H337 9123   7.750   3.559   2.690  3.0164  0.4591 -1.7721
   24MOL   H338 9124   7.660   3.334   2.657 -0.5995 -0.5278 -1.0567
   24MOL   H339 9125   7.532   3.456   2.701  0.1655  0.8353 -0.0396
   24MOL   H340 9126   7.551   3.385   2.542  0.0415  1.5770 -0.5522
   24MOL   H341 9127   7.599   3.637   2.426  1.6588 -0.2364 -0.9568
   24MOL   H342 9128   7.700   3.736   2.527  1.7103 -1.9455  0.7930
   24MOL   H343 9129   7.535   3.691   2.580  0.6626  0.8664 -0.0873
   24MOL   C344 9130   0.218   3.556   2.274 -0.0256 -0.4937 -0.2126
   24MOL   C345 9131   0.102   3.624   2.200  0.5284 -0.0553  0.0848
   24MOL   C346 9132   0.149   3.760   2.145 -0.0141 -0.1690 -0.0491
   24MOL   O347 9133   0.259   3.776   2.101  0.1404  0.1380  0.6687
   24MOL   N348 9134   0.058   3.858   2.147  0.2652 -0.0330 -0.2406
   24MOL   C349 9135   0.066   3.983   2.080 -0.6632 -0.2669 -0.0731
   24MOL   C350 9136   7.769   4.040   2.062 -0.6512  0.0619  0.0387
   24MOL   C351 9137   0.160   4.092   2.141 -0.2019 -0.8808 -0.6999
   24MOL   H352 9138   0.285   3.516   2.197 -0.5155 -0.1667 -0.8189
   24MOL   H353 9139   0.269   3.629   2.337  0.3689 -2.6786  2.0697
   24MOL   H354 9140   0.023   3.636   2.274 -0.5129  0.2979 -1.0629
   24MOL   H355 9141   7.804   3.842   2.191 -0.8971  0.3127 -2.4320
   24MOL   H356 9142   0.099   3.965   1.978 -1.5570  0.0466 -0.4221
   24MOL   H357 9143   7.699   3.967   2.021  0.0922  0.1096 -1.3490
   24MOL   H358 9144   7.725   4.070   2.157 -2.5191 -2.4354  0.0130
   24MOL   H359 9145   7.775   4.131   2.002  1.8828 -1.3313 -1.9067
   24MOL   H360 9146   0.258   4.054   2.167 -0.4484 -1.0128  0.0602
   24MOL   H361 9147   0.175   4.175   2.072  1.0472  2.3710  3.2547
   24MOL   H362 9148   0.127   4.131   2.238  2.7620  2.3876 -0.9156
   24MOL   C363 9149   0.053   3.546   2.079  0.0726  0.3197 -1.0966
   24MOL   C364 9150   7.735   3.563   2.065  0.1348 -0.1004 -0.2265
   24MOL   C365 9151   7.663   3.445   2.130  0.1267  0.0007 -0.6803
   24MOL   O366 9152   7.702   3.392   2.232  0.6088  0.1208 -0.0932
   24MOL   N367 9153   7.560   3.394   2.059  0.2641  0.1314 -0.8706
   24MOL   C368 9154   7.476   3.290   2.114 -0.9138 -0.5574  0.4563
   24MOL   C369 9155   7.341   3.290   2.049  0.7479  0.5311 -0.1461
   24MOL   C370 9156   7.535   3.150   2.096  0.8777 -0.3567  0.5546
   24MOL   H371 9157   0.087   3.443   2.077  0.4985  0.4118  0.8225
   24MOL   H372 9158   0.112   3.579   1.993  0.3830  2.6256 -0.0337
   24MOL   H373 9159   7.699   3.579   1.963  0.0353  0.6364 -0.0817
   24MOL   H374 9160   7.523   3.449   1.983 -3.7222 -2.0435 -0.6032
   24MOL   H375 9161   7.475   3.307   2.222 -0.4617 -1.8019  0.6630
   24MOL   H376 9162   7.345   3.266   1.943 -2.8964  0.0907 -0.2501
   24MOL   H377 9163   7.291   3.217   2.113  3.2224 -2.1190 -1.1196
   24MOL   H378 9164   7.285   3.382   2.062 -0.7116 -0.1069 -1.8381
   24MOL   H379 9165   7.643   3.161   2.099  0.6396  3.1716 -0.8212
   24MOL   H380 9166   7.497   3.081   2.171  2.2967  0.5008  2.1008
   24MOL   H381 9167   7.505   3.106   2.001  0.2028 -0.8565  0.9886
   24MOL   H382 9168   7.709   3.658   2.113 -1.2489 -0.6044  0.0237
   25MOL     C1 9169   5.020   1.543   5.359 -0.2712 -0.7161 -0.0549
   25MOL     C2 9170   4.948   1.486   5.228  0.0883  0.0293 -0.2539
   25MOL     C3 9171   4.892   1.339   5.261 -0.1648 -0.2567  0.0275
   25MOL     O4 9172   4.780   1.331   5.307 -0.0894 -0.6287  0.2784
   25MOL     N5 9173   4.966   1.227   5.234 -0.1106 -0.2361 -0.1299
   25MOL     C6 9174   4.926   1.090   5.248 -0.3123 -0.0298 -0.7136
   25MOL     C7 9175   4.915   1.028   5.105  0.4572  0.5168 -0.2089
   25MOL     C8 9176   5.013   1.013   5.345  0.1169 -0.4110  0.1930
   25MOL     H9 9177   4.960   1.609   5.422 -0.0921 -0.0301 -0.5916
   25MOL    H10 9178   5.096   1.611   5.321  0.2739 -1.5615 -0.4813
   25MOL    H11 9179   5.020   1.466   5.149 -1.1559 -3.2657 -0.6520
   25MOL    H12 9180   5.055   1.243   5.188  0.5550  0.8553  1.4930
   25MOL    H13 9181   4.826   1.101   5.290 -0.9992 -1.7066 -1.8919
   25MOL    H14 9182   5.016   1.023   5.063  0.7678  0.5995  0.5086
   25MOL    H15 9183   4.862   1.096   5.038  2.2899  1.1198 -1.0815
   25MOL    H16 9184   4.864   0.933   5.095  1.9059 -0.2772 -0.2212
   25MOL    H17 9185   5.103   0.983   5.291  0.1242  2.2922 -1.3889
   25MOL    H18 9186   5.054   1.060   5.434 -0.7927  1.8659 -0.5372
   25MOL    H19 9187   4.955   0.924   5.368  0.4967 -1.3096 -2.1901
   25MOL    H20 9188   5.065   1.463   5.417 -0.5502 -1.0497 -0.2918
   25MOL    C21 9189   4.829   1.577   5.179 -0.4247  0.2338  0.1692
   25MOL    C22 9190   4.875   1.699   5.091  0.2567 -0.7816 -0.4896
   25MOL    C23 9191   4.970   1.799   5.164  0.1008  0.2989 -0.4182
   25MOL    O24 9192   4.931   1.855   5.263  0.1608 -0.5493 -0.1423
   25MOL    N25 9193   5.083   1.832   5.106  0.1491 -0.0477 -0.3726
   25MOL    C26 9194   5.168   1.941   5.151 -0.1234 -0.1891  0.0754
   25MOL    C27 9195   5.282   1.963   5.053 -1.2516  0.5664  0.0519
   25MOL    C28 9196   5.223   1.913   5.292 -0.7539  0.3986 -0.1222
   25MOL    H29 9197   4.759   1.607   5.257  0.3806 -0.1218  1.0354
   25MOL    H30 9198   4.770   1.513   5.113 -0.1466  1.7934 -1.6434
   25MOL    H31 9199   4.934   1.656   5.010 -1.0781 -0.5016 -1.6292
   25MOL    H32 9200   5.100   1.787   5.017 -1.6254 -0.0743 -0.7203
   25MOL    H33 9201   5.115   2.036   5.162  1.5082  0.7010  0.4739
   25MOL    H34 9202   5.360   2.015   5.108 -1.7824  0.6975  0.6851
   25MOL    H35 9203   5.258   2.028   4.968  2.7637  1.6289 -0.3535
   25MOL    H36 9204   5.325   1.876   5.005  0.3845  1.7243 -0.6357
   25MOL    H37 9205   5.305   1.984   5.305 -2.7318  2.3545  2.2986
   25MOL    H38 9206   5.152   1.943   5.370 -0.4444 -2.4666  1.3566
   25MOL    H39 9207   5.258   1.811   5.312 -0.4369  0.2634 -1.3268
   25MOL    C40 9208   4.751   1.765   5.024  0.2330 -0.1262  0.2826
   25MOL    C41 9209   4.765   1.821   4.878  0.1112 -0.3421  0.1322
   25MOL    C42 9210   4.854   1.949   4.855 -0.1428  0.3215 -0.1485
   25MOL    O43 9211   4.970   1.928   4.821  0.2481 -0.7548 -0.4131
   25MOL    N44 9212   4.789   2.067   4.855  0.2127  0.5802 -0.0693
   25MOL    C45 9213   4.845   2.203   4.836 -0.1853 -0.5888 -0.4818
   25MOL    C46 9214   4.741   2.291   4.768  0.1950 -0.4728 -0.3095
   25MOL    C47 9215   4.911   2.261   4.962 -0.0447 -0.7388 -0.2404
   25MOL    H48 9216   4.717   1.843   5.091  0.0813 -1.9176  2.3689
   25MOL    H49 9217   4.676   1.686   5.027 -0.0455  0.1506  0.6573
   25MOL    H50 9218   4.830   1.745   4.834 -1.8202 -1.5032 -0.7832
   25MOL    H51 9219   4.688   2.061   4.862  0.3218  0.4273  1.6735
   25MOL    H52 9220   4.931   2.191   4.769  2.0366  0.9366  1.9983
   25MOL    H53 9221   4.699   2.250   4.677 -0.1017 -0.7475 -0.0496
   25MOL    H54 9222   4.796   2.384   4.752  1.8147 -1.0352  1.7001
   25MOL    H55 9223   4.666   2.322   4.841  0.8028 -0.4545  0.3183
   25MOL    H56 9224   4.954   2.357   4.932 -2.0325  0.2571  0.0433
   25MOL    H57 9225   4.960   2.194   5.033 -0.8462  0.0778  1.1211
   25MOL    H58 9226   4.837   2.299   5.032  1.7292 -2.1677  2.4980
   25MOL    C59 9227   4.624   1.823   4.814  0.2039 -0.0313 -0.2556
   25MOL    C60 9228   4.627   1.859   4.658  0.4927  0.0256  0.5500
   25MOL    C61 9229   4.483   1.879   4.599 -0.8792 -0.1754  0.1746
   25MOL    O62 9230   4.388   1.819   4.645  0.4839  0.0109  0.4110
   25MOL    N63 9231   4.475   1.964   4.504  0.5605 -0.3744  0.1766
   25MOL    C64 9232   4.348   1.998   4.440  0.3306  0.5914  0.0996
   25MOL    C65 9233   4.296   2.129   4.506  0.3051 -0.0870 -0.6616
   25MOL    C66 9234   4.374   1.996   4.288  0.1736  0.6072  0.1475
   25MOL    H67 9235   4.567   1.731   4.827 -1.2938  1.0550  1.0710
   25MOL    H68 9236   4.572   1.903   4.867  0.4697  1.3476 -2.0432
   25MOL    H69 9237   4.673   1.953   4.630 -0.2956 -0.2311 -1.7162
   25MOL    H70 9238   4.556   2.004   4.459  0.9863 -1.8377 -0.3845
   25MOL    H71 9239   4.277   1.919   4.467  2.5849 -1.8408 -0.9264
   25MOL    H72 9240   4.191   2.123   4.536  0.9400 -2.6385  1.1958
   25MOL    H73 9241   4.349   2.155   4.598 -2.4211 -0.7337  1.1553
   25MOL    H74 9242   4.315   2.218   4.445 -2.2478 -0.2042 -1.7086
   25MOL    H75 9243   4.289   2.035   4.232  0.5167 -1.0767 -1.6054
   25MOL    H76 9244   4.465   2.043   4.252  1.6112 -1.6480  0.7889
   25MOL    H77 9245   4.379   1.894   4.250 -1.0489  0.4825  0.3061
   25MOL    C78 9246   4.688   1.747   4.580 -0.2507 -0.2154 -0.0532
   25MOL    C79 9247   4.815   1.799   4.507  0.9726 -0.1131 -0.2814
   25MOL    C80 9248   4.923   1.691   4.515 -0.3010  0.5040  0.0242
   25MOL    O81 9249   4.908   1.583   4.452 -0.5997  0.0420  0.1879
   25MOL    N82 9250   5.018   1.707   4.607  0.0071 -0.4146 -0.1041
   25MOL    C83 9251   5.127   1.611   4.624 -0.8188 -0.8471  0.0076
   25MOL    C84 9252   5.256   1.654   4.542  0.6383 -0.0643  0.0549
   25MOL    C85 9253   5.170   1.608   4.780 -0.0255  0.1092 -0.3659
   25MOL    H86 9254   4.625   1.706   4.501 -2.4177 -0.1609  1.5966
   25MOL    H87 9255   4.701   1.662   4.648 -1.3384  1.3690  2.1977
   25MOL    H88 9256   4.858   1.884   4.560 -1.2732  2.2088 -2.0015
   25MOL    H89 9257   5.015   1.796   4.654 -1.4852 -0.5831  0.1214
   25MOL    H90 9258   5.112   1.508   4.590 -0.3929 -0.1841 -2.2654
   25MOL    H91 9259   5.278   1.614   4.444  1.2146 -2.2597  1.0570
   25MOL    H92 9260   5.255   1.763   4.534  0.3033  0.1834  2.8696
   25MOL    H93 9261   5.343   1.617   4.597 -0.1965 -0.4072  1.1858
   25MOL    H94 9262   5.200   1.708   4.811  0.8915 -1.0681  2.6655
   25MOL    H95 9263   5.252   1.540   4.802  0.6377  1.0042 -0.0254
   25MOL    H96 9264   5.085   1.573   4.838  0.2558 -0.7199 -0.4546
   25MOL    C97 9265   4.800   1.851   4.367  0.3737 -0.0616  0.2810
   25MOL    C98 9266   4.929   1.902   4.302 -0.1964  0.0734 -0.1515
   25MOL    C99 9267   4.985   2.015   4.393  0.5597 -0.8662  0.2944
   25MOL   O100 9268   4.914   2.113   4.416 -1.0579  0.5637  0.1452
   25MOL   N101 9269   5.111   2.003   4.431  0.0066  0.0211 -0.3698
   25MOL   C102 9270   5.196   2.101   4.498 -0.7029 -0.2901  0.3331
   25MOL   C103 9271   5.245   2.054   4.639 -0.3985  0.3397  0.0385
   25MOL   C104 9272   5.314   2.144   4.416  0.2201  0.1556  0.7379
   25MOL   H105 9273   4.715   1.919   4.361 -1.6998 -2.6264  0.1110
   25MOL   H106 9274   4.761   1.771   4.305  2.9451 -1.0810 -0.0698
   25MOL   H107 9275   5.008   1.828   4.291 -1.5951 -1.6359  1.0777
   25MOL   H108 9276   5.161   1.928   4.387  0.3879 -1.1075  1.9041
   25MOL   H109 9277   5.139   2.192   4.515 -0.6532 -0.4557  1.4331
   25MOL   H110 9278   5.153   2.014   4.683  0.6503 -1.7896  0.3583
   25MOL   H111 9279   5.328   1.986   4.622  0.4318  0.9286  1.6340
   25MOL   H112 9280   5.280   2.127   4.711  0.7965  2.2598 -2.4176
   25MOL   H113 9281   5.362   2.229   4.465  0.3776 -0.3357  1.4534
   25MOL   H114 9282   5.280   2.177   4.318  0.7519 -0.0901  0.4675
   25MOL   H115 9283   5.388   2.065   4.406  0.8522  0.6383  1.5068
   25MOL   C116 9284   4.908   1.948   4.154 -0.0139  0.1090 -0.0272
   25MOL   C117 9285   5.028   2.009   4.083 -0.0202  0.4947 -0.0020
   25MOL   C118 9286   5.164   1.934   4.093  0.4721 -0.5487 -0.0839
   25MOL   O119 9287   5.242   1.954   4.181  0.1854 -0.1950 -0.3059
   25MOL   N120 9288   5.182   1.835   4.011  0.0277 -0.5213  0.3765
   25MOL   C121 9289   5.304   1.755   3.992 -0.1262  0.0516  0.1250
   25MOL   C122 9290   5.302   1.641   4.096  0.2336 -0.1273  0.3898
   25MOL   C123 9291   5.298   1.701   3.848  0.4861  0.9406 -0.2913
   25MOL   H124 9292   4.817   2.007   4.144  1.1701  2.5032  2.5734
   25MOL   H125 9293   4.893   1.856   4.098  0.1902  1.0498 -1.6370
   25MOL   H126 9294   5.004   2.011   3.977  0.1700  0.2944 -0.0507
   25MOL   H127 9295   5.115   1.829   3.936  0.3922  0.4845 -0.0492
   25MOL   H128 9296   5.389   1.823   4.006 -0.5233  0.0561  2.8114
   25MOL   H129 9297   5.211   1.583   4.081 -0.9929  1.5359  1.3098
   25MOL   H130 9298   5.275   1.684   4.192  2.0317 -1.3756  1.4937
   25MOL   H131 9299   5.395   1.583   4.101 -0.2122 -0.8532  0.2598
   25MOL   H132 9300   5.355   1.608   3.843  0.2826  0.8446 -0.8690
   25MOL   H133 9301   5.197   1.689   3.809  0.3093  2.1323 -0.2357
   25MOL   H134 9302   5.341   1.774   3.779  2.3744 -0.1088 -0.2465
   25MOL   C135 9303   5.046   2.159   4.100 -0.3561 -0.1034  0.7635
   25MOL   C136 9304   4.922   2.252   4.095  0.1137  0.0167  0.1298
   25MOL   C137 9305   4.958   2.389   4.153 -0.6522 -0.3367 -0.0197
   25MOL   O138 9306   5.009   2.472   4.081  0.2811 -0.0947 -0.0876
   25MOL   N139 9307   4.923   2.411   4.278  0.0369  0.3807  0.3243
   25MOL   C140 9308   4.955   2.526   4.359 -0.7662 -0.1265  0.6816
   25MOL   C141 9309   5.039   2.486   4.482  0.6981 -0.9652 -0.4823
   25MOL   C142 9310   4.829   2.601   4.408 -0.0586  0.6526  0.2776
   25MOL   H143 9311   5.113   2.192   4.021 -1.7282  1.6758  0.3113
   25MOL   H144 9312   5.093   2.177   4.197 -1.3467  2.4091  0.8341
   25MOL   H145 9313   4.850   2.210   4.165 -0.6700  0.6818 -0.2634
   25MOL   H146 9314   4.862   2.340   4.318  0.4158 -0.4035 -0.4797
   25MOL   H147 9315   5.017   2.609   4.324  1.1395 -0.3802  3.2965
   25MOL   H148 9316   5.038   2.555   4.567  1.1564  0.2288 -1.4261
   25MOL   H149 9317   4.998   2.394   4.524 -2.0505 -1.5407 -4.1506
   25MOL   H150 9318   5.143   2.465   4.461  1.6274  1.3984  1.5530
   25MOL   H151 9319   4.776   2.549   4.487  1.4639  1.0259  1.5848
   25MOL   H152 9320   4.754   2.617   4.331  0.0187  1.4083  0.3513
   25MOL   H153 9321   4.841   2.706   4.436 -0.3992  0.7525  0.0473
   25MOL   C154 9322   4.859   2.270   3.956 -0.1239  0.0826  0.4313
   25MOL   C155 9323   4.732   2.358   3.930  0.3842  0.4798 -0.0732
   25MOL   C156 9324   4.620   2.316   4.024 -0.2291 -0.1530  0.1658
   25MOL   O157 9325   4.549   2.220   4.003 -0.4895 -0.1468 -0.2338
   25MOL   N158 9326   4.608   2.384   4.138  0.0509 -0.4306 -0.0333
   25MOL   C159 9327   4.514   2.347   4.250 -0.2897 -0.6871  1.1665
   25MOL   C160 9328   4.444   2.476   4.293 -0.2077 -0.4901 -0.4693
   25MOL   C161 9329   4.600   2.292   4.362  0.6504  0.4203  0.3419
   25MOL   H162 9330   4.833   2.169   3.924 -2.1835  0.7048  0.0747
   25MOL   H163 9331   4.940   2.298   3.889 -2.3325  0.8881 -1.9752
   25MOL   H164 9332   4.757   2.462   3.949 -1.3148  0.7784  0.6961
   25MOL   H165 9333   4.669   2.461   4.161 -0.8480 -0.3785  2.3359
   25MOL   H166 9334   4.438   2.277   4.216  0.0788  0.4667 -2.2180
   25MOL   H167 9335   4.399   2.535   4.213 -0.4553  1.1683  0.8708
   25MOL   H168 9336   4.364   2.464   4.366  1.1195 -2.0225  0.7973
   25MOL   H169 9337   4.517   2.534   4.350 -0.8992  0.9199 -0.9919
   25MOL   H170 9338   4.653   2.206   4.320  0.9172 -0.1198  1.7576
   25MOL   H171 9339   4.549   2.259   4.452  0.7656 -1.6085 -0.2914
   25MOL   H172 9340   4.679   2.358   4.398  0.7180  0.1802  0.6322
   25MOL   C173 9341   4.682   2.351   3.785 -0.1747  0.3564  0.0305
   25MOL   C174 9342   4.569   2.447   3.752 -0.6681 -0.4049 -0.3500
   25MOL   C175 9343   4.608   2.588   3.785  0.3822 -0.1411  0.3744
   25MOL   O176 9344   4.697   2.650   3.728 -0.5428  0.1675  0.1563
   25MOL   N177 9345   4.533   2.653   3.878  0.6421 -0.2718  0.1893
   25MOL   C178 9346   4.551   2.790   3.931 -0.3094  0.2239  0.7438
   25MOL   C179 9347   4.626   2.779   4.063 -0.1520  1.0867 -0.3101
   25MOL   C180 9348   4.415   2.861   3.931  0.6133  0.5043  0.8582
   25MOL   H181 9349   4.657   2.247   3.763 -0.8707  0.5264  0.0073
   25MOL   H182 9350   4.768   2.359   3.718 -0.7359  1.8149 -0.5291
   25MOL   H183 9351   4.478   2.423   3.807 -1.1570 -0.6565 -1.2556
   25MOL   H184 9352   4.462   2.598   3.924 -0.7666 -0.1535 -1.7997
   25MOL   H185 9353   4.617   2.843   3.862 -2.2124  0.9698 -0.5248
   25MOL   H186 9354   4.658   2.878   4.095 -0.1374  0.4336  1.7566
   25MOL   H187 9355   4.718   2.720   4.058 -0.3183  0.9633 -2.1464
   25MOL   H188 9356   4.572   2.744   4.151  2.3782 -0.7599  0.5879
   25MOL   H189 9357   4.340   2.797   3.978  0.3851  1.3769  1.6779
   25MOL   H190 9358   4.384   2.877   3.828 -1.5148 -0.4862  1.3244
   25MOL   H191 9359   4.418   2.962   3.970  0.3877  1.4717 -1.5430
   25MOL   C192 9360   4.542   2.420   3.604  0.4570 -0.4095  0.2002
   25MOL   C193 9361   4.408   2.479   3.545  0.1625 -0.3139  0.2876
   25MOL   C194 9362   4.276   2.412   3.603 -0.5964 -0.0509  1.0948
   25MOL   O195 9363   4.252   2.292   3.581  0.5984 -0.1535 -0.2029
   25MOL   N196 9364   4.191   2.487   3.665  0.5462 -0.2336  0.6850
   25MOL   C197 9365   4.054   2.450   3.699  0.1759 -0.1983 -0.1712
   25MOL   C198 9366   4.041   2.434   3.849  0.3495  0.4036 -0.0838
   25MOL   C199 9367   3.953   2.549   3.644 -0.7539 -0.2767 -0.5368
   25MOL   H200 9368   4.545   2.317   3.571  2.8398 -0.1381 -0.5637
   25MOL   H201 9369   4.630   2.461   3.553  0.3997  0.0410  0.4534
   25MOL   H202 9370   4.403   2.583   3.578 -0.7930 -0.3592  0.2872
   25MOL   H203 9371   4.208   2.586   3.675 -1.9371  0.2481  0.5058
   25MOL   H204 9372   4.036   2.350   3.658 -1.7026 -1.8251  4.3337
   25MOL   H205 9373   4.077   2.528   3.889 -0.6599  1.5672 -1.8470
   25MOL   H206 9374   4.104   2.357   3.893  2.8120  2.5577  0.2524
   25MOL   H207 9375   3.936   2.419   3.876  0.1584 -0.5059 -1.2575
   25MOL   H208 9376   3.980   2.578   3.543 -1.2811 -1.7745 -1.1111
   25MOL   H209 9377   3.964   2.644   3.696 -1.6897 -1.4895  1.9629
   25MOL   H210 9378   3.849   2.518   3.656 -0.4434 -1.5113 -1.0061
   25MOL   C211 9379   4.403   2.474   3.389  0.4355 -0.5006  0.9469
   25MOL   C212 9380   4.285   2.555   3.312 -0.2436  0.4946 -0.4783
   25MOL   C213 9381   4.293   2.704   3.329  0.3992  0.0123 -0.0190
   25MOL   O214 9382   4.404   2.763   3.304  0.3619 -0.1298 -0.4618
   25MOL   N215 9383   4.175   2.764   3.333  0.7827  0.3411  0.3923
   25MOL   C216 9384   4.148   2.900   3.301 -0.3993  0.2729  0.6414
   25MOL   C217 9385   4.003   2.926   3.259 -0.4691  0.6611  0.1951
   25MOL   C218 9386   4.243   2.978   3.210 -0.6191  0.0051  0.2049
   25MOL   H219 9387   4.409   2.369   3.361  0.3975 -1.7450  5.2606
   25MOL   H220 9388   4.497   2.511   3.350 -0.1206  1.1387  1.1124
   25MOL   H221 9389   4.194   2.510   3.351 -0.5035  0.7380 -0.7994
   25MOL   H222 9390   4.097   2.703   3.352  1.4258 -0.1142  1.5948
   25MOL   H223 9391   4.177   2.953   3.392  2.1128  0.8155 -0.4209
   25MOL   H224 9392   3.936   2.876   3.329  0.5744 -0.3924  0.4527
   25MOL   H225 9393   3.978   3.032   3.252  0.4468  0.8249 -0.5477
   25MOL   H226 9394   3.987   2.881   3.161  0.5519  3.1601 -1.1737
   25MOL   H227 9395   4.340   2.996   3.257  0.1241  1.4990 -1.8079
   25MOL   H228 9396   4.212   3.081   3.195  0.8521  1.1318  4.2557
   25MOL   H229 9397   4.253   2.934   3.111 -0.6490 -2.6407  1.3453
   25MOL   C230 9398   4.300   2.539   3.154 -0.5138 -0.2850  0.4722
   25MOL   C231 9399   4.265   2.406   3.092 -0.2439  0.0237  0.3666
   25MOL   C232 9400   4.121   2.392   3.042 -0.1296 -0.3820  0.6268
   25MOL   O233 9401   4.046   2.487   3.031 -0.2126 -0.2991  0.0176
   25MOL   N234 9402   4.080   2.271   3.001 -0.7380 -0.4044  0.6227
   25MOL   C235 9403   3.944   2.228   2.957 -0.6060  0.0351 -0.0396
   25MOL   C236 9404   3.933   2.257   2.807  0.3584 -0.0985 -0.2535
   25MOL   C237 9405   3.930   2.082   2.992  0.3868 -0.4030  0.2806
   25MOL   H238 9406   4.391   2.577   3.107 -0.6500 -0.8238 -0.2307
   25MOL   H239 9407   4.219   2.604   3.121 -1.2157 -0.6878  1.3569
   25MOL   H240 9408   4.266   2.336   3.175 -1.7240 -0.4330  0.0315
   25MOL   H241 9409   4.144   2.194   2.987 -0.5627 -0.0213 -0.6846
   25MOL   H242 9410   3.866   2.285   3.009 -0.7842 -1.1337  0.9989
   25MOL   H243 9411   3.938   2.364   2.787  0.0917  0.1667  1.0788
   25MOL   H244 9412   4.001   2.189   2.755  0.0905 -1.8767  1.6570
   25MOL   H245 9413   3.832   2.233   2.774 -1.2580  1.0078  3.6765
   25MOL   H246 9414   3.998   2.014   2.942  0.0606 -1.5707  1.3892
   25MOL   H247 9415   3.832   2.045   2.962 -0.5013  1.9041  0.2357
   25MOL   H248 9416   3.943   2.066   3.099  0.3286  0.5777  0.4478
   25MOL   C249 9417   4.384   2.373   2.993  0.2114  0.3074  0.3388
   25MOL   C250 9418   4.435   2.224   2.984  0.1118  1.2823  0.4727
   25MOL   C251 9419   4.373   2.137   2.882  0.0099  0.3643  0.6232
   25MOL   O252 9420   4.289   2.048   2.914  0.2694 -0.5204  1.0073
   25MOL   N253 9421   4.403   2.162   2.755  0.0878  0.5163  0.2688
   25MOL   C254 9422   4.345   2.096   2.636  0.5904 -0.6450 -0.0327
   25MOL   C255 9423   4.369   2.170   2.504 -0.1404  0.1764 -0.1902
   25MOL   C256 9424   4.398   1.944   2.621  0.9538  0.1780  0.5152
   25MOL   H257 9425   4.474   2.430   3.016 -0.4970  0.8968  1.7287
   25MOL   H258 9426   4.368   2.398   2.888  1.1121  1.4904  0.4657
   25MOL   H259 9427   4.538   2.233   2.947 -0.4828 -2.0572 -2.3334
   25MOL   H260 9428   4.458   2.245   2.737  2.2811 -1.0085 -0.3148
   25MOL   H261 9429   4.240   2.079   2.660  0.9350 -0.9932  1.2906
   25MOL   H262 9430   4.297   2.133   2.431  2.3267  1.3321 -3.3290
   25MOL   H263 9431   4.344   2.275   2.518  1.3425  0.5739 -0.4923
   25MOL   H264 9432   4.469   2.167   2.461 -0.2521  0.8557 -0.5028
   25MOL   H265 9433   4.335   1.892   2.548  0.4405 -1.3675  2.0229
   25MOL   H266 9434   4.504   1.930   2.599  2.0776  1.1213  4.8792
   25MOL   H267 9435   4.370   1.887   2.710 -0.5978 -0.4558 -0.3465
   25MOL   C268 9436   4.447   2.151   3.125 -0.0198  0.2751  0.4428
   25MOL   C269 9437   4.542   2.028   3.125  0.0363 -0.6759  0.4963
   25MOL   C270 9438   4.677   2.049   3.066  0.0568 -0.2745  0.4225
   25MOL   O271 9439   4.753   2.131   3.114  0.6690 -0.1228  0.0954
   25MOL   N272 9440   4.715   1.980   2.961  0.6577  0.0913  0.3663
   25MOL   C273 9441   4.843   1.980   2.897 -0.3641 -0.1567  0.1989
   25MOL   C274 9442   4.962   1.940   2.985  0.0961 -0.1906 -0.2998
   25MOL   C275 9443   4.828   1.898   2.773  0.1380 -0.1600 -0.1124
   25MOL   H276 9444   4.488   2.224   3.195  0.2062  0.2863  0.2999
   25MOL   H277 9445   4.347   2.126   3.161  0.4014 -2.0038  0.0813
   25MOL   H278 9446   4.491   1.948   3.072  0.0436 -0.0246 -0.5041
   25MOL   H279 9447   4.644   1.920   2.923  0.3688  1.7999 -1.8607
   25MOL   H280 9448   4.865   2.083   2.870  0.9153 -0.3302  0.5455
   25MOL   H281 9449   4.955   1.837   3.022  0.5973  0.4821  1.7513
   25MOL   H282 9450   5.060   1.945   2.937 -0.5969  0.1642 -1.7015
   25MOL   H283 9451   4.975   2.015   3.063 -0.5919 -0.1997 -0.1773
   25MOL   H284 9452   4.916   1.897   2.707 -0.8508  1.0608 -1.4680
   25MOL   H285 9453   4.830   1.792   2.800 -0.8300 -0.7772 -2.3475
   25MOL   H286 9454   4.748   1.914   2.700  2.1937  1.8249 -2.0169
   25MOL   C287 9455   4.547   1.980   3.273 -0.2985 -0.2131 -0.6328
   25MOL   C288 9456   4.656   1.864   3.311 -0.5385  0.0228  0.2436
   25MOL   C289 9457   4.627   1.733   3.238  0.4980 -0.4445  0.2688
   25MOL   O290 9458   4.510   1.686   3.246 -0.0983 -0.6743  1.0128
   25MOL   N291 9459   4.733   1.672   3.183 -0.6975 -0.1497 -0.4476
   25MOL   C292 9460   4.734   1.543   3.111 -0.0050 -0.0007  0.4536
   25MOL   C293 9461   4.713   1.561   2.958  0.6418 -0.4517  0.2711
   25MOL   C294 9462   4.862   1.468   3.142  0.1670  0.0723 -0.4384
   25MOL   H295 9463   4.567   2.060   3.344 -0.3764 -0.8712  0.1374
   25MOL   H296 9464   4.456   1.929   3.305  0.9852 -2.4632 -0.3992
   25MOL   H297 9465   4.753   1.902   3.279 -0.5021  0.1305  0.4769
   25MOL   H298 9466   4.822   1.720   3.193 -1.0134 -0.1229  2.8628
   25MOL   H299 9467   4.665   1.474   3.159  0.2476  0.5763  1.6532
   25MOL   H300 9468   4.797   1.605   2.906 -0.2437  1.2309  0.2378
   25MOL   H301 9469   4.704   1.463   2.912 -0.8805 -0.6486  0.9492
   25MOL   H302 9470   4.623   1.620   2.941  1.1956  0.3602  0.1414
   25MOL   H303 9471   4.845   1.363   3.121 -0.2784 -0.1414  0.9563
   25MOL   H304 9472   4.951   1.503   3.089  1.4325  1.0211  2.2093
   25MOL   H305 9473   4.889   1.454   3.247 -1.2945  2.0119  0.2381
   25MOL   C306 9474   4.676   1.852   3.465  0.5348 -0.0422 -0.3400
   25MOL   C307 9475   4.778   1.947   3.528 -0.0663 -0.3146  0.2398
   25MOL   C308 9476   4.920   1.913   3.509 -0.6830 -0.4438 -0.5735
   25MOL   O309 9477   4.954   1.799   3.484 -0.0332 -0.0153  0.6902
   25MOL   N310 9478   5.002   2.016   3.524  0.1594 -0.2812  0.6071
   25MOL   C311 9479   5.143   2.011   3.546  0.0262 -0.3638  0.2728
   25MOL   C312 9480   5.221   2.095   3.442  0.4771  0.0408  0.0409
   25MOL   C313 9481   5.181   2.052   3.690 -0.1617  0.0430  0.0329
   25MOL   H314 9482   4.584   1.859   3.523 -0.1078  1.0264 -1.4538
   25MOL   H315 9483   4.717   1.753   3.483 -0.8785 -0.4635  0.6090
   25MOL   H316 9484   4.758   2.040   3.476 -2.4887 -0.6474  0.5063
   25MOL   H317 9485   4.959   2.104   3.549 -0.4342 -0.6373  0.8542
   25MOL   H318 9486   5.183   1.909   3.540  1.5505  0.2639 -0.3922
   25MOL   H319 9487   5.176   2.195   3.443 -0.3464 -0.3016 -1.3136
   25MOL   H320 9488   5.207   2.053   3.343  2.3051 -0.7155  0.0972
   25MOL   H321 9489   5.326   2.094   3.469  0.2468 -1.0587  0.9436
   25MOL   H322 9490   5.142   2.153   3.700  2.6932  1.3181 -1.0650
   25MOL   H323 9491   5.289   2.065   3.699 -0.0720 -1.0088  0.5686
   25MOL   H324 9492   5.143   1.983   3.766  1.3583 -0.8360  0.0272
   25MOL   C325 9493   4.756   1.975   3.679 -0.2534  0.9208  0.6132
   25MOL   C326 9494   4.732   1.848   3.769 -0.4349  0.1852  0.2830
   25MOL   C327 9495   4.850   1.769   3.834 -0.0688 -0.2824  0.1181
   25MOL   O328 9496   4.962   1.830   3.844 -0.1789 -0.2248 -0.0480
   25MOL   N329 9497   4.822   1.649   3.891 -0.7282 -0.1150  0.8927
   25MOL   C330 9498   4.903   1.577   3.986 -0.3439 -0.5814  0.4235
   25MOL   C331 9499   4.972   1.455   3.915  0.6307 -0.4735 -0.4586
   25MOL   C332 9500   4.807   1.546   4.102 -0.0687 -0.1755  0.6762
   25MOL   H333 9501   4.675   2.048   3.684 -1.5359 -0.3748 -0.5406
   25MOL   H334 9502   4.835   2.037   3.721  0.7580  1.1891 -1.6274
   25MOL   H335 9503   4.698   1.766   3.705 -1.1398  1.8301 -1.4901
   25MOL   H336 9504   4.724   1.623   3.888 -0.4261 -1.2727  0.9736
   25MOL   H337 9505   4.981   1.643   4.023 -0.1243  0.8427 -2.3933
   25MOL   H338 9506   4.898   1.383   3.879  0.8105 -1.3071  0.8090
   25MOL   H339 9507   5.038   1.501   3.842 -3.4181  1.8847 -2.8261
   25MOL   H340 9508   5.045   1.412   3.984 -0.3851  0.3753  1.1865
   25MOL   H341 9509   4.856   1.482   4.176 -0.5984 -0.2323  0.9820
   25MOL   H342 9510   4.725   1.484   4.067 -1.0638  1.7470 -0.4677
   25MOL   H343 9511   4.754   1.630   4.147 -0.5428  0.1092 -0.4195
   25MOL   C344 9512   4.623   1.877   3.871  0.4916  0.4408 -0.8177
   25MOL   C345 9513   4.474   1.862   3.822  0.3883 -0.1070  0.3261
   25MOL   C346 9514   4.452   1.716   3.784 -0.0645  0.0132  0.3155
   25MOL   O347 9515   4.515   1.627   3.845  0.7732 -0.3405 -0.6189
   25MOL   N348 9516   4.358   1.695   3.694  0.2539 -0.4978  0.0575
   25MOL   C349 9517   4.319   1.570   3.628  0.2392  0.0558 -0.6514
   25MOL   C350 9518   4.172   1.555   3.602  0.6999  0.7026  0.6415
   25MOL   C351 9519   4.393   1.554   3.499  0.3906  0.1624 -0.1486
   25MOL   H352 9520   4.629   1.983   3.893 -0.1900  0.1281  0.9791
   25MOL   H353 9521   4.633   1.814   3.959  0.4112 -1.0193 -1.8194
   25MOL   H354 9522   4.468   1.917   3.728 -0.5389 -0.2124  0.3218
   25MOL   H355 9523   4.302   1.774   3.665  1.6566  0.8328  0.8905
   25MOL   H356 9524   4.349   1.495   3.701 -1.6865  1.5690  1.7456
   25MOL   H357 9525   4.126   1.633   3.542 -0.1399 -0.5728 -0.3946
   25MOL   H358 9526   4.150   1.456   3.560 -1.2086  0.7873  1.3625
   25MOL   H359 9527   4.125   1.563   3.700  2.9784  2.2636  1.6302
   25MOL   H360 9528   4.488   1.607   3.490  0.1476  0.4234 -1.3230
   25MOL   H361 9529   4.422   1.452   3.475  1.4311  0.0818  1.4240
   25MOL   H362 9530   4.333   1.601   3.420 -0.9337  0.4845  1.0295
   25MOL   C363 9531   4.374   1.926   3.931 -0.5700 -0.3500 -0.1701
   25MOL   C364 9532   4.273   2.030   3.868  0.3556 -0.2683 -0.3938
   25MOL   C365 9533   4.172   1.975   3.769  0.0175  0.1043 -0.4072
   25MOL   O366 9534   4.117   1.869   3.795  0.1093  0.2449 -0.6220
   25MOL   N367 9535   4.155   2.044   3.652  0.1449 -0.1091  0.7604
   25MOL   C368 9536   4.089   1.986   3.534  0.5136  0.7252 -0.5623
   25MOL   C369 9537   3.987   2.084   3.469  0.0579 -0.1795  0.3913
   25MOL   C370 9538   4.202   1.949   3.439  0.2017 -0.1440 -1.1102
   25MOL   H371 9539   4.439   1.962   4.010 -1.2456 -0.3259  0.3852
   25MOL   H372 9540   4.312   1.846   3.972 -1.3393  0.3169 -0.0205
   25MOL   H373 9541   4.331   2.107   3.818 -0.2682 -0.5856 -1.6281
   25MOL   H374 9542   4.178   2.141   3.643  0.5864 -0.3760 -1.3204
   25MOL   H375 9543   4.035   1.895   3.560 -1.1108  1.8825  0.2218
   25MOL   H376 9544   3.949   2.041   3.377  1.4117 -1.4966  0.4145
   25MOL   H377 9545   3.905   2.104   3.537 -0.3412 -1.3986  0.2674
   25MOL   H378 9546   4.028   2.181   3.441  1.6345 -1.1498 -0.8020
   25MOL   H379 9547   4.159   1.895   3.355 -0.7878 -1.0269 -0.0537
   25MOL   H380 9548   4.252   2.035   3.394  1.0996  0.3214  0.7416
   25MOL   H381 9549   4.287   1.894   3.479 -0.8664  0.4890  2.2087
   25MOL   H382 9550   4.225   2.085   3.949  1.2678 -1.6467  1.1044
   26MOL     C1 9551   7.519   2.302   3.933 -0.4161 -0.7314  0.4368
   26MOL     C2 9552   7.388   2.339   4.007  0.0504 -0.3983 -0.4067
   26MOL     C3 9553   7.370   2.238   4.127  0.4168 -0.3254 -0.4167
   26MOL     O4 9554   7.398   2.278   4.241 -0.4473  0.4172  0.4666
   26MOL     N5 9555   7.343   2.106   4.106 -0.2642  0.4411 -0.6556
   26MOL     C6 9556   7.351   2.005   4.217  0.4252 -0.2809 -0.5426
   26MOL     C7 9557   7.255   1.883   4.180  1.1096 -0.1664 -0.0906
   26MOL     C8 9558   7.494   1.945   4.239  0.6963  0.0248 -0.5276
   26MOL     H9 9559   7.599   2.319   4.005  0.1984  0.8576 -0.5939
   26MOL    H10 9560   7.546   2.370   3.852 -2.2373 -0.9303 -0.3704
   26MOL    H11 9561   7.307   2.325   3.936  0.4225 -0.6977 -0.7784
   26MOL    H12 9562   7.334   2.072   4.012 -0.2338  0.8855 -0.8172
   26MOL    H13 9563   7.302   2.050   4.303 -0.1024 -2.7315  0.5025
   26MOL    H14 9564   7.153   1.908   4.152  1.4376  1.8623  0.4750
   26MOL    H15 9565   7.248   1.810   4.260 -1.7501  0.5126  0.3467
   26MOL    H16 9566   7.302   1.825   4.100 -1.5331 -1.0747 -1.0432
   26MOL    H17 9567   7.497   1.863   4.310 -1.0114  0.4656  0.0910
   26MOL    H18 9568   7.535   1.920   4.141  0.9175 -1.4200 -0.0742
   26MOL    H19 9569   7.565   2.024   4.264  0.0410  1.5690 -3.2983
   26MOL    H20 9570   7.523   2.196   3.906  1.0821 -0.4213 -0.6358
   26MOL    C21 9571   7.392   2.495   4.039  0.3811  0.9459  1.0736
   26MOL    C22 9572   7.266   2.547   4.114  0.1624 -1.2486 -0.3108
   26MOL    C23 9573   7.137   2.503   4.047 -1.2471 -1.2754 -1.1644
   26MOL    O24 9574   7.111   2.537   3.929 -0.5725  0.0988  0.0790
   26MOL    N25 9575   7.064   2.418   4.111 -0.4526  0.9527 -0.6561
   26MOL    C26 9576   6.987   2.309   4.039  0.2979 -0.1313  0.2290
   26MOL    C27 9577   6.877   2.363   3.945  1.1248  0.4342 -0.6317
   26MOL    C28 9578   6.924   2.222   4.154  0.5614 -0.9137  0.6266
   26MOL    H29 9579   7.408   2.549   3.946  1.2003  0.0041  0.6552
   26MOL    H30 9580   7.483   2.518   4.094  0.8222  0.3664  0.5844
   26MOL    H31 9581   7.268   2.513   4.218 -0.5672  0.4429  0.2706
   26MOL    H32 9582   7.099   2.403   4.204  3.3399  0.8227 -2.0270
   26MOL    H33 9583   7.060   2.249   3.985  1.1837  1.0862  0.0414
   26MOL    H34 9584   6.927   2.374   3.849  2.4811 -1.8772 -0.2205
   26MOL    H35 9585   6.825   2.455   3.973 -2.0352 -1.3938 -0.2208
   26MOL    H36 9586   6.803   2.286   3.927  0.5571  0.7308  0.3820
   26MOL    H37 9587   6.871   2.143   4.100  0.4986 -1.6233  1.7070
   26MOL    H38 9588   7.010   2.174   4.202  2.3134  1.2075 -0.3180
   26MOL    H39 9589   6.861   2.262   4.233 -1.5086 -0.9884 -0.9477
   26MOL    C40 9590   7.283   2.703   4.108  1.2303  0.1772  0.1884
   26MOL    C41 9591   7.206   2.788   4.208  0.4259  0.7322 -0.7199
   26MOL    C42 9592   7.270   2.763   4.350  0.0844 -0.0380 -0.1575
   26MOL    O43 9593   7.241   2.660   4.416 -0.5396 -0.2714 -0.1170
   26MOL    N44 9594   7.353   2.862   4.389  0.7830  0.3009 -0.0733
   26MOL    C45 9595   7.450   2.858   4.492  0.3273 -0.6102  1.1917
   26MOL    C46 9596   7.576   2.929   4.442  0.0333  0.1498  0.6997
   26MOL    C47 9597   7.390   2.926   4.618 -1.0146 -0.2751  0.8510
   26MOL    H48 9598   7.248   2.735   4.010 -0.1563 -0.7386  0.3652
   26MOL    H49 9599   7.387   2.738   4.107  1.5827 -0.8684 -1.4940
   26MOL    H50 9600   7.228   2.890   4.175  0.2593  0.2717 -2.2937
   26MOL    H51 9601   7.341   2.951   4.342  1.4031 -0.5432 -1.8878
   26MOL    H52 9602   7.477   2.756   4.519  0.8332 -0.3478  1.6745
   26MOL    H53 9603   7.639   2.938   4.530 -0.4709 -0.8192  1.1737
   26MOL    H54 9604   7.550   3.024   4.396 -0.4750 -1.2229 -1.9579
   26MOL    H55 9605   7.626   2.880   4.358  1.2709  2.3354  0.1383
   26MOL    H56 9606   7.454   2.913   4.705 -0.4333  1.0800  0.6392
   26MOL    H57 9607   7.292   2.882   4.636 -0.0573 -2.5992  0.5757
   26MOL    H58 9608   7.370   3.030   4.592 -0.2904  0.1124  1.8148
   26MOL    C59 9609   7.049   2.782   4.219  0.6084  0.6657  0.2535
   26MOL    C60 9610   6.976   2.904   4.295 -0.1838  0.5723  0.2179
   26MOL    C61 9611   6.988   3.040   4.223 -1.4570  0.5448  0.1971
   26MOL    O62 9612   7.084   3.115   4.257 -0.6607  0.0407  0.3370
   26MOL    N63 9613   6.903   3.074   4.122  0.2164  0.3387  0.2612
   26MOL    C64 9614   6.916   3.183   4.033 -0.2994  0.3512 -0.1122
   26MOL    C65 9615   6.819   3.175   3.915 -0.3795  0.2180 -0.5454
   26MOL    C66 9616   6.894   3.316   4.099 -0.1869 -0.6937 -1.2239
   26MOL    H67 9617   7.005   2.786   4.119 -0.2258 -2.7915  0.4445
   26MOL    H68 9618   7.017   2.685   4.256  0.0836  0.0537 -1.7159
   26MOL    H69 9619   6.873   2.869   4.289  0.1372 -0.6584  1.6892
   26MOL    H70 9620   6.823   3.014   4.110  2.2104 -2.1717 -0.9954
   26MOL    H71 9621   7.018   3.182   3.995 -0.4380  0.6869 -0.5038
   26MOL    H72 9622   6.716   3.149   3.940 -0.6484  0.0048 -1.8221
   26MOL    H73 9623   6.817   3.272   3.865  0.1544  0.2279 -0.5469
   26MOL    H74 9624   6.847   3.097   3.844 -2.7739  0.2793 -1.6171
   26MOL    H75 9625   6.921   3.401   4.037  2.0145  1.5511  2.6696
   26MOL    H76 9626   6.793   3.328   4.137  1.5863  0.6182  3.3759
   26MOL    H77 9627   6.962   3.325   4.184 -2.2916 -2.2516  0.6983
   26MOL    C78 9628   7.013   2.926   4.449  0.6767  0.2564 -0.0565
   26MOL    C79 9629   6.895   2.939   4.545  0.1840 -0.7360 -0.3499
   26MOL    C80 9630   6.809   2.808   4.546 -0.2437 -0.1024 -0.2385
   26MOL    O81 9631   6.693   2.812   4.513 -0.4769  0.3867  0.2874
   26MOL    N82 9632   6.869   2.701   4.599 -0.6557 -0.1933 -0.1781
   26MOL    C83 9633   6.813   2.572   4.617  0.2190 -0.4176  0.6434
   26MOL    C84 9634   6.871   2.473   4.510  0.1562 -0.3059  0.6503
   26MOL    C85 9635   6.840   2.534   4.765  0.4408 -0.2001  0.7648
   26MOL    H86 9636   7.079   3.013   4.453 -0.7805  1.4047 -0.4245
   26MOL    H87 9637   7.061   2.839   4.494 -0.6998 -0.3364  0.2752
   26MOL    H88 9638   6.830   3.022   4.517 -0.9738 -1.2169  0.8903
   26MOL    H89 9639   6.965   2.714   4.629 -0.0536  0.7211 -2.3659
   26MOL    H90 9640   6.706   2.582   4.599  0.4730  1.9540  0.4096
   26MOL    H91 9641   6.979   2.475   4.500 -0.0219  2.3709 -1.3260
   26MOL    H92 9642   6.863   2.371   4.548  1.8975 -0.3142  1.0100
   26MOL    H93 9643   6.832   2.487   4.409  2.6866 -0.7529 -0.4080
   26MOL    H94 9644   6.778   2.447   4.788 -0.9374  0.3642 -0.7468
   26MOL    H95 9645   6.809   2.610   4.837  0.5519  0.3221  0.2659
   26MOL    H96 9646   6.947   2.521   4.786  0.4463  0.1526  0.9569
   26MOL    C97 9647   6.942   2.965   4.686 -0.9048 -0.4857 -0.0177
   26MOL    C98 9648   6.997   3.108   4.707 -0.0131  0.0066  0.2998
   26MOL    C99 9649   7.059   3.124   4.842 -0.5439  0.1470  0.1108
   26MOL   O100 9650   7.046   3.040   4.929  0.7921 -0.2087  0.0324
   26MOL   N101 9651   7.135   3.230   4.862 -0.3036 -0.3386 -0.4493
   26MOL   C102 9652   7.240   3.245   4.966 -0.3241 -0.1848 -0.0969
   26MOL   C103 9653   7.387   3.229   4.917 -0.2047 -0.3492 -0.6544
   26MOL   C104 9654   7.239   3.390   5.014 -0.2356 -0.2446 -0.0071
   26MOL   H105 9655   7.024   2.897   4.709 -1.3013 -0.5299  1.3450
   26MOL   H106 9656   6.874   2.942   4.768  0.6941 -0.6479  1.3094
   26MOL   H107 9657   7.083   3.110   4.640 -1.6250  0.3593 -1.8285
   26MOL   H108 9658   7.137   3.298   4.788 -1.3151 -0.7864 -0.8943
   26MOL   H109 9659   7.222   3.182   5.053  3.9129  1.0213  1.7720
   26MOL   H110 9660   7.399   3.128   4.877 -1.2099 -1.3248  1.4523
   26MOL   H111 9661   7.429   3.293   4.840  2.4220 -0.6730  0.4639
   26MOL   H112 9662   7.463   3.246   4.994 -0.5436  0.5692 -0.5216
   26MOL   H113 9663   7.138   3.416   5.046 -0.3760 -0.2218 -0.4751
   26MOL   H114 9664   7.268   3.451   4.929  1.8699 -1.7807 -0.4405
   26MOL   H115 9665   7.312   3.398   5.095 -0.4315 -1.3018  0.2806
   26MOL   C116 9666   6.892   3.219   4.683 -0.0386  0.5625 -0.0009
   26MOL   C117 9667   6.902   3.291   4.552 -0.6232  0.5039  0.4796
   26MOL   C118 9668   7.044   3.359   4.554  0.7249  0.5525 -0.0743
   26MOL   O119 9669   7.078   3.432   4.653  0.2126 -0.4843  0.4418
   26MOL   N120 9670   7.123   3.328   4.455 -0.6095 -0.1789 -0.2797
   26MOL   C121 9671   7.250   3.395   4.428  0.4045  0.2470 -0.4472
   26MOL   C122 9672   7.360   3.294   4.415 -0.2688  0.3711  0.1305
   26MOL   C123 9673   7.238   3.468   4.288 -0.3152  0.3218  0.0525
   26MOL   H124 9674   6.880   3.283   4.770  0.6884  2.2130 -1.0898
   26MOL   H125 9675   6.791   3.177   4.679  0.0352  0.2601  1.1742
   26MOL   H126 9676   6.906   3.221   4.468 -0.1247 -0.1080  1.0167
   26MOL   H127 9677   7.096   3.245   4.403  1.2820 -0.6651 -0.5092
   26MOL   H128 9678   7.287   3.442   4.519  2.6250 -0.1395 -1.1117
   26MOL   H129 9679   7.322   3.201   4.374  1.2944  0.7743 -2.3184
   26MOL   H130 9680   7.416   3.269   4.505 -1.2020 -3.6401 -0.3076
   26MOL   H131 9681   7.435   3.326   4.343  0.7637 -1.0802  0.5396
   26MOL   H132 9682   7.202   3.398   4.213  0.6702  0.6813 -0.7814
   26MOL   H133 9683   7.164   3.548   4.296 -1.1840 -0.4228 -0.4492
   26MOL   H134 9684   7.336   3.509   4.260 -0.3195  0.4519  0.2189
   26MOL   C135 9685   6.782   3.377   4.509  0.0193 -0.5333 -0.1097
   26MOL   C136 9686   6.755   3.501   4.604  0.4295  0.1648  0.3306
   26MOL   C137 9687   6.799   3.627   4.532 -0.1172 -0.0230 -0.2073
   26MOL   O138 9688   6.737   3.670   4.444 -0.2227 -0.3923  0.3442
   26MOL   N139 9689   6.909   3.685   4.581  0.3200  0.8994  0.1228
   26MOL   C140 9690   6.969   3.811   4.557 -0.5699 -0.3604 -0.0436
   26MOL   C141 9691   6.867   3.926   4.518 -0.2011  0.3149 -0.3568
   26MOL   C142 9692   7.081   3.803   4.453  0.3522 -0.1141  0.0169
   26MOL   H143 9693   6.701   3.305   4.506  0.2967 -0.7863 -3.6471
   26MOL   H144 9694   6.802   3.392   4.403  1.7498  2.1760  0.5594
   26MOL   H145 9695   6.823   3.500   4.689 -0.1088  0.5071  0.7701
   26MOL   H146 9696   6.952   3.630   4.655 -1.5199 -0.2608  0.3715
   26MOL   H147 9697   7.003   3.848   4.654  1.3465  3.3021 -1.9784
   26MOL   H148 9698   6.778   3.916   4.579  0.1362 -0.1217  0.0751
   26MOL   H149 9699   6.902   4.029   4.523 -1.3878  0.6592  1.1635
   26MOL   H150 9700   6.828   3.931   4.416 -0.2716 -0.9054 -0.3962
   26MOL   H151 9701   7.053   3.758   4.358  0.6776 -1.8802  0.7404
   26MOL   H152 9702   7.156   3.731   4.486  0.0908 -0.9669 -1.2007
   26MOL   H153 9703   7.133   3.899   4.452  0.4968 -0.1969 -0.3898
   26MOL   C154 9704   6.604   3.511   4.658 -0.0036 -0.3957  0.1614
   26MOL   C155 9705   6.582   3.599   4.787 -0.1519 -0.1403  0.1751
   26MOL   C156 9706   6.593   3.506   4.914 -0.3349 -0.6626  0.1726
   26MOL   O157 9707   6.517   3.420   4.937  0.2740  0.4420  0.1648
   26MOL   N158 9708   6.700   3.534   4.998 -0.1803 -0.0168 -0.3049
   26MOL   C159 9709   6.721   3.484   5.134  0.2331 -0.1372 -0.7821
   26MOL   C160 9710   6.731   3.602   5.227  0.5785 -0.2975 -0.7036
   26MOL   C161 9711   6.842   3.395   5.142 -0.6592  0.5770 -0.2559
   26MOL   H162 9712   6.577   3.405   4.666  0.1714 -0.4596 -0.0938
   26MOL   H163 9713   6.536   3.536   4.577 -0.6847 -1.7030  0.3050
   26MOL   H164 9714   6.669   3.664   4.784 -0.9626  1.0295  1.3016
   26MOL   H165 9715   6.771   3.596   4.963  0.5932  0.1908  1.5706
   26MOL   H166 9716   6.634   3.421   5.156 -1.1528  1.1167 -2.4889
   26MOL   H167 9717   6.646   3.670   5.222  1.0264  0.3095 -0.1889
   26MOL   H168 9718   6.757   3.557   5.323 -0.4126  0.9475  0.1647
   26MOL   H169 9719   6.823   3.655   5.200 -0.3117  0.3551 -2.5655
   26MOL   H170 9720   6.839   3.317   5.066  2.2078 -0.3348  0.5045
   26MOL   H171 9721   6.852   3.349   5.241 -0.6256  1.3192  0.0894
   26MOL   H172 9722   6.931   3.452   5.117 -0.5303  0.0818 -0.9263
   26MOL   C173 9723   6.454   3.685   4.772 -0.1064  0.4521  0.9742
   26MOL   C174 9724   6.490   3.817   4.700  0.4124 -0.0954  0.0291
   26MOL   C175 9725   6.403   3.843   4.575  0.6879  0.5402 -0.5587
   26MOL   O176 9726   6.279   3.865   4.590  0.5302  0.0112  0.1020
   26MOL   N177 9727   6.470   3.831   4.459  0.1789  0.4257  0.2327
   26MOL   C178 9728   6.417   3.826   4.322 -0.3220  0.0774  0.0967
   26MOL   C179 9729   6.520   3.765   4.221 -0.5236 -0.3494 -0.5656
   26MOL   C180 9730   6.374   3.961   4.276  0.0248  0.0102 -1.4626
   26MOL   H181 9731   6.412   3.707   4.870 -1.2512  1.0281  0.3602
   26MOL   H182 9732   6.386   3.620   4.718  0.3304  0.3164  0.5856
   26MOL   H183 9733   6.592   3.817   4.664  1.2601 -0.4685  2.3597
   26MOL   H184 9734   6.568   3.804   4.459  0.2407  0.6536  1.0739
   26MOL   H185 9735   6.337   3.752   4.326 -0.4006  0.0829 -1.1969
   26MOL   H186 9736   6.482   3.766   4.119 -0.7488  0.0418 -0.4769
   26MOL   H187 9737   6.532   3.659   4.245  0.8647 -0.4345 -1.5541
   26MOL   H188 9738   6.621   3.806   4.228 -0.2563 -1.3436  1.4979
   26MOL   H189 9739   6.448   4.036   4.302  0.1833 -0.5808 -0.1507
   26MOL   H190 9740   6.276   3.989   4.315 -0.5170 -0.8960 -2.1303
   26MOL   H191 9741   6.365   3.953   4.168  0.3205  1.0121 -1.5614
   26MOL   C192 9742   6.487   3.933   4.799  0.2642 -0.6118 -0.0152
   26MOL   C193 9743   6.598   3.925   4.914 -0.2757 -0.0919 -0.2795
   26MOL   C194 9744   6.533   3.984   5.039 -0.3402  0.1564 -0.3557
   26MOL   O195 9745   6.491   4.098   5.041 -0.3925 -0.4951  0.3261
   26MOL   N196 9746   6.525   3.908   5.141  0.1936  0.3075 -0.6044
   26MOL   C197 9747   6.472   3.945   5.270  0.0263  0.4189 -0.7686
   26MOL   C198 9748   6.354   3.856   5.292  0.6416  0.0519 -0.5637
   26MOL   C199 9749   6.576   3.924   5.380  0.2866 -0.4839  0.8918
   26MOL   H200 9750   6.390   3.937   4.849 -0.3278  1.1608 -1.2432
   26MOL   H201 9751   6.492   4.029   4.746 -0.9575 -0.1078  0.7489
   26MOL   H202 9752   6.628   3.823   4.940 -1.2848 -0.4795 -0.6028
   26MOL   H203 9753   6.530   3.809   5.124 -1.0873  0.3872 -1.5673
   26MOL   H204 9754   6.440   4.049   5.280 -0.1746  0.2729  0.1552
   26MOL   H205 9755   6.314   3.870   5.392  1.7369  0.2517 -0.1396
   26MOL   H206 9756   6.362   3.749   5.268 -1.3807  0.1041 -1.5954
   26MOL   H207 9757   6.269   3.895   5.237 -1.6466  1.6950  3.8741
   26MOL   H208 9758   6.594   3.820   5.405 -1.5306 -0.5946  1.8109
   26MOL   H209 9759   6.552   3.973   5.475 -1.4216  0.4625 -0.0102
   26MOL   H210 9760   6.666   3.956   5.327 -0.9684  3.2940  0.8979
   26MOL   C211 9761   6.725   4.007   4.881  0.0109  0.7043  0.2410
   26MOL   C212 9762   6.837   4.011   4.991 -0.4309 -0.1865  0.2176
   26MOL   C213 9763   6.893   3.873   5.019 -0.1106  0.3483 -0.7524
   26MOL   O214 9764   6.858   3.769   4.958 -0.0943 -0.8512  0.3230
   26MOL   N215 9765   6.986   3.868   5.116 -0.2472 -0.2375 -0.3320
   26MOL   C216 9766   7.069   3.763   5.166  0.0415  0.7112 -0.3051
   26MOL   C217 9767   7.076   3.776   5.323 -0.1567  0.3548  0.1754
   26MOL   C218 9768   7.209   3.757   5.103  0.0894 -0.2092 -0.2329
   26MOL   H219 9769   6.688   4.109   4.868 -0.0477  0.8044  1.1903
   26MOL   H220 9770   6.763   3.959   4.790 -0.2583 -1.3231  1.1747
   26MOL   H221 9771   6.789   4.040   5.085  2.2160  1.0789  1.2202
   26MOL   H222 9772   7.003   3.959   5.156 -0.7552  0.3245 -1.3637
   26MOL   H223 9773   7.030   3.662   5.149 -1.4424  1.4035 -1.0908
   26MOL   H224 9774   7.149   3.705   5.362  0.6811  1.8217  1.2789
   26MOL   H225 9775   7.109   3.875   5.352 -1.0795  0.7225 -0.0132
   26MOL   H226 9776   6.982   3.744   5.370  0.8484 -1.9119  0.7298
   26MOL   H227 9777   7.261   3.697   5.178  0.2252  1.3479  0.9646
   26MOL   H228 9778   7.238   3.861   5.118 -1.6630  0.1896  0.5923
   26MOL   H229 9779   7.228   3.709   5.007 -0.6921  2.0615 -1.5572
   26MOL   C230 9780   6.947   4.107   4.943  0.4119  0.2700  0.0088
   26MOL   C231 9781   6.915   4.257   4.947 -0.2647 -0.3022  0.1108
   26MOL   C232 9782   6.904   4.328   5.083 -1.2674  0.1206  0.1696
   26MOL   O233 9783   6.999   4.318   5.158  0.6445 -0.0484 -0.5357
   26MOL   N234 9784   6.795   4.400   5.112 -0.2395  0.3693 -0.0295
   26MOL   C235 9785   6.775   4.478   5.230 -0.0371 -0.1284  0.2402
   26MOL   C236 9786   6.661   4.587   5.210  0.0646 -0.4257  0.0278
   26MOL   C237 9787   6.740   4.395   5.357 -0.2225 -0.2615 -0.2318
   26MOL   H238 9788   6.973   4.076   4.842 -1.4928 -1.4032 -0.0024
   26MOL   H239 9789   7.039   4.100   5.001 -0.0244 -2.1862  0.4631
   26MOL   H240 9790   6.819   4.270   4.898 -1.8364 -1.4731  2.7513
   26MOL   H241 9791   6.716   4.394   5.048 -1.1017  1.7718  0.8675
   26MOL   H242 9792   6.861   4.542   5.250  0.4105 -0.1649 -1.4739
   26MOL   H243 9793   6.655   4.653   5.296  2.2924 -0.2302  0.0529
   26MOL   H244 9794   6.675   4.656   5.127  1.4737  0.0711  0.6618
   26MOL   H245 9795   6.566   4.536   5.191 -1.2759  2.8708 -2.8171
   26MOL   H246 9796   6.724   4.466   5.437  1.8543  1.3497 -1.1748
   26MOL   H247 9797   6.827   4.337   5.391 -0.7980 -2.0092 -1.6462
   26MOL   H248 9798   6.646   4.340   5.358 -0.6564  0.4801  1.9254
   26MOL   C249 9799   7.013   4.329   4.851 -0.1989 -0.1850 -0.4789
   26MOL   C250 9800   7.162   4.335   4.889 -0.5928  0.4523  0.8310
   26MOL   C251 9801   7.202   4.468   4.946 -0.9242 -0.2201  0.1534
   26MOL   O252 9802   7.231   4.566   4.873  0.3732 -0.6044 -0.3711
   26MOL   N253 9803   7.212   4.484   5.078  0.2427  0.3892 -0.3467
   26MOL   C254 9804   7.241   4.603   5.163  0.1426  0.1223 -0.9687
   26MOL   C255 9805   7.134   4.644   5.260  0.4713  0.0222 -0.4376
   26MOL   C256 9806   7.377   4.586   5.225 -0.1505  0.8778 -0.1470
   26MOL   H257 9807   6.964   4.426   4.837  0.2481  0.6957  3.5984
   26MOL   H258 9808   7.008   4.272   4.758 -0.7443  1.3053 -1.3976
   26MOL   H259 9809   7.188   4.256   4.960 -2.3531 -0.3547  0.6287
   26MOL   H260 9810   7.181   4.404   5.132 -1.2538  1.6309  0.6869
   26MOL   H261 9811   7.263   4.690   5.101 -2.9189 -0.1181 -2.4691
   26MOL   H262 9812   7.108   4.570   5.336  1.5246  0.2055  0.1103
   26MOL   H263 9813   7.177   4.728   5.314 -1.7489  2.5462 -2.4962
   26MOL   H264 9814   7.048   4.678   5.203  2.0735  0.6634 -2.5171
   26MOL   H265 9815   7.372   4.486   5.268  0.8276  1.2682  0.9005
   26MOL   H266 9816   7.462   4.591   5.157  0.9675 -2.0786  0.9830
   26MOL   H267 9817   7.396   4.663   5.300 -0.3414  3.4106 -2.6275
   26MOL   C268 9818   7.245   4.314   4.758  0.1450  0.6467  0.7059
   26MOL   C269 9819   7.408   4.308   4.771  0.5939  0.0813 -0.1777
   26MOL   C270 9820   7.454   4.218   4.884 -0.0387  0.2535 -0.8531
   26MOL   O271 9821   7.448   4.100   4.869  0.1121 -0.1616  0.3549
   26MOL   N272 9822   7.502   4.272   4.993  0.4698 -0.0597 -0.0962
   26MOL   C273 9823   7.544   4.199   5.113  0.5327  0.2941  0.5261
   26MOL   C274 9824   7.641   4.276   5.197 -0.6520  0.2543  0.2271
   26MOL   C275 9825   7.418   4.173   5.203 -0.5957  0.1800 -0.2085
   26MOL   H276 9826   7.207   4.221   4.716  1.8922 -0.2672  1.0971
   26MOL   H277 9827   7.212   4.378   4.676  0.0465  2.7093  2.3142
   26MOL   H278 9828   7.432   4.413   4.790  0.5151  0.0529  0.0842
   26MOL   H279 9829   7.503   4.373   4.988  2.2717 -0.1412 -2.3285
   26MOL   H280 9830   7.582   4.100   5.085 -0.4322  0.7084 -2.3558
   26MOL   H281 9831   7.590   4.368   5.225 -0.0908  0.3322  1.0178
   26MOL   H282 9832   7.657   4.209   5.282 -0.6851 -0.4790 -0.3433
   26MOL   H283 9833   7.735   4.295   5.146 -0.3720 -1.0122  0.2600
   26MOL   H284 9834   7.383   4.254   5.267 -1.4925 -0.0646 -0.3884
   26MOL   H285 9835   7.337   4.145   5.137 -1.1576 -0.5255  0.7587
   26MOL   H286 9836   7.429   4.087   5.269  1.9926  1.1098  0.6500
   26MOL   C287 9837   7.469   4.278   4.631  0.5179 -0.1684 -0.1962
   26MOL   C288 9838   7.627   4.308   4.601 -0.3273  0.3905  0.0444
   26MOL   C289 9839   7.651   4.453   4.630  1.0665 -1.0634 -0.2421
   26MOL   O290 9840   7.578   4.538   4.576 -0.3933 -0.5223  0.1073
   26MOL   N291 9841   7.743   4.505   4.716  0.1650 -0.1281 -0.2109
   26MOL   C292 9842   7.738   4.646   4.767  0.0435 -0.4413  0.3207
   26MOL   C293 9843   7.610   4.666   4.852  0.4814  0.1796 -0.1529
   26MOL   C294 9844   0.037   4.672   4.829  0.1269 -0.3017  0.0443
   26MOL   H295 9845   7.442   4.174   4.615  0.0422 -0.0261 -0.3195
   26MOL   H296 9846   7.415   4.332   4.553 -0.6030 -0.3997  0.4032
   26MOL   H297 9847   7.684   4.262   4.682  0.5604 -1.3785 -1.5665
   26MOL   H298 9848   7.821   4.449   4.748 -0.3466 -1.4753 -1.2896
   26MOL   H299 9849   7.737   4.701   4.673  2.3715 -1.1572 -0.1537
   26MOL   H300 9850   7.522   4.636   4.796  0.9733 -0.5677 -0.5397
   26MOL   H301 9851   7.621   4.609   4.945 -1.9914 -0.8509 -0.4524
   26MOL   H302 9852   7.580   4.765   4.885 -0.5480  0.3399 -1.5408
   26MOL   H303 9853   0.061   4.778   4.828 -0.3763 -0.1901 -1.0334
   26MOL   H304 9854   0.042   4.625   4.927 -0.9411  0.2126  0.3603
   26MOL   H305 9855   0.110   4.619   4.768 -1.5037 -1.8838 -0.5918
   26MOL   C306 9856   7.667   4.262   4.465  0.1533 -0.2949  0.4420
   26MOL   C307 9857   7.812   4.249   4.429 -0.3251 -0.0881  0.0367
   26MOL   C308 9858   0.007   4.227   4.277  0.3399  0.8624 -0.0950
   26MOL   O309 9859   7.772   4.161   4.201  0.1147 -0.3921 -0.2417
   26MOL   N310 9860   0.118   4.290   4.234 -0.4676 -0.6681 -0.8683
   26MOL   C311 9861   0.169   4.319   4.100 -0.0784  0.9761 -0.1682
   26MOL   C312 9862   0.068   4.394   4.017  0.2637  0.1420 -0.2541
   26MOL   C313 9863   0.304   4.405   4.094 -0.0920 -0.2183 -0.5005
   26MOL   H314 9864   7.630   4.161   4.447  3.6612 -1.4269 -0.8050
   26MOL   H315 9865   7.608   4.321   4.396  0.4281 -1.2651 -0.6504
   26MOL   H316 9866   0.010   4.350   4.449 -0.2171 -0.6859  3.1740
   26MOL   H317 9867   0.180   4.321   4.308 -1.6435  0.2700 -0.2680
   26MOL   H318 9868   0.196   4.222   4.058  0.1017  0.3365  1.4087
   26MOL   H319 9869   7.813   4.334   4.016  1.1960 -1.2813 -2.2702
   26MOL   H320 9870   0.103   4.397   3.914 -0.3261  2.6271 -0.4188
   26MOL   H321 9871   0.054   4.496   4.053 -0.6644 -0.3597  0.8456
   26MOL   H322 9872   0.294   4.500   4.147  0.9187  0.3866 -1.3673
   26MOL   H323 9873   0.356   4.426   4.001  0.8872 -1.4633 -0.2542
   26MOL   H324 9874   0.370   4.345   4.157  1.4223  2.0559  0.1625
   26MOL   C325 9875   0.053   4.136   4.505  0.1105  0.5353 -0.0922
   26MOL   C326 9876   0.194   4.173   4.546 -0.3225  0.4437 -0.0399
   26MOL   C327 9877   0.209   4.303   4.622 -0.2417  0.1018 -0.3819
   26MOL   O328 9878   0.144   4.330   4.722  0.1544  0.0439  0.0113
   26MOL   N329 9879   0.287   4.390   4.559  0.2737 -0.1989  0.3096
   26MOL   C330 9880   0.313   4.527   4.592  0.0946 -1.6099  0.6009
   26MOL   C331 9881   0.209   4.619   4.534  0.7594  0.0203 -0.4738
   26MOL   C332 9882   0.449   4.571   4.540 -0.1100  0.2220 -0.0074
   26MOL   H333 9883   0.047   4.042   4.451 -1.3356  0.3108  0.4195
   26MOL   H334 9884   7.835   4.110   4.596  0.5033 -0.6447 -0.1914
   26MOL   H335 9885   0.239   4.189   4.448  1.5618 -0.6680  0.6198
   26MOL   H336 9886   0.349   4.340   4.498 -0.6700  0.1483 -0.9602
   26MOL   H337 9887   0.312   4.544   4.700  0.5942  0.1395  0.3359
   26MOL   H338 9888   0.200   4.607   4.426 -3.5347 -2.6701  0.0624
   26MOL   H339 9889   0.108   4.596   4.567  0.2438  0.9119 -1.3828
   26MOL   H340 9890   0.218   4.720   4.575 -2.3188 -0.1467  0.7342
   26MOL   H341 9891   0.477   4.666   4.586 -2.6627  1.1945 -0.3932
   26MOL   H342 9892   0.457   4.579   4.431  0.2313 -0.4862 -0.0347
   26MOL   H343 9893   0.520   4.496   4.575 -0.9363  0.3989  2.1284
   26MOL   C344 9894   0.268   4.058   4.618 -0.5629  0.4719 -0.2199
   26MOL   C345 9895   0.396   3.999   4.561 -0.4413  0.3835 -0.7218
   26MOL   C346 9896   0.514   4.094   4.559 -0.0908  0.4595  0.0595
   26MOL   O347 9897   0.494   4.199   4.503 -0.1555 -0.1125 -0.2770
   26MOL   N348 9898   0.636   4.058   4.617 -0.1472  0.0614  0.2157
   26MOL   C349 9899   0.756   4.137   4.611  0.2258 -0.4866 -0.0134
   26MOL   C350 9900   0.743   4.268   4.701 -0.0467  0.3938  0.2072
   26MOL   C351 9901   0.868   4.048   4.671  0.0195 -0.6318  0.4767
   26MOL   H352 9902   0.198   3.975   4.621  1.3108 -1.1407 -0.1788
   26MOL   H353 9903   0.276   4.076   4.725 -0.7820 -0.2678 -0.0765
   26MOL   H354 9904   0.370   3.988   4.456 -1.2213 -1.3231 -0.3806
   26MOL   H355 9905   0.652   3.965   4.652  1.2465  0.0504 -0.4427
   26MOL   H356 9906   0.803   4.167   4.517  0.5926  2.0234  0.9275
   26MOL   H357 9907   0.651   4.319   4.671 -1.0870 -1.5858 -0.1103
   26MOL   H358 9908   0.717   4.229   4.799  1.5755  0.6378  0.7486
   26MOL   H359 9909   0.836   4.324   4.701  0.0405  0.2648 -0.7544
   26MOL   H360 9910   0.901   3.964   4.609  0.4137  0.9137 -1.4378
   26MOL   H361 9911   0.954   4.108   4.699  0.7811 -1.6105  0.2345
   26MOL   H362 9912   0.831   4.006   4.765  0.6133  0.5484  1.2423
   26MOL   C363 9913   0.431   3.855   4.610  0.1492 -0.4624 -0.5559
   26MOL   C364 9914   0.442   3.836   4.765  0.4605  0.5251 -0.9220
   26MOL   C365 9915   0.586   3.805   4.811 -0.1670 -0.8766  1.1113
   26MOL   O366 9916   0.681   3.801   4.734 -0.0310  0.1470 -0.2017
   26MOL   N367 9917   0.602   3.787   4.944  0.6731  0.1552 -0.2467
   26MOL   C368 9918   0.733   3.779   5.014 -0.4308  0.4707 -0.3467
   26MOL   C369 9919   0.759   3.899   5.111 -0.2116  0.1827 -0.8007
   26MOL   C370 9920   0.743   3.651   5.077 -0.5801 -0.1984  0.0076
   26MOL   H371 9921   0.522   3.813   4.567 -0.5608 -3.6025  0.7883
   26MOL   H372 9922   0.352   3.788   4.576 -1.4288  1.2989 -0.4255
   26MOL   H373 9923   0.397   3.743   4.799  0.7231  0.0815 -1.7591
   26MOL   H374 9924   0.523   3.805   5.004  1.0543  0.4275  0.1813
   26MOL   H375 9925   0.812   3.783   4.939 -0.2756 -2.5238 -0.3992
   26MOL   H376 9926   0.754   3.992   5.055  2.1010  1.8425  1.6300
   26MOL   H377 9927   0.677   3.894   5.182 -1.5054 -1.8403 -2.3863
   26MOL   H378 9928   0.854   3.897   5.165 -1.8973  0.2328  2.2621
   26MOL   H379 9929   0.661   3.647   5.148  0.4425  0.2182  1.2197
   26MOL   H380 9930   0.747   3.555   5.025 -0.0868 -0.6361  0.8483
   26MOL   H381 9931   0.834   3.649   5.136 -0.1491 -1.6196 -0.6878
   26MOL   H382 9932   0.416   3.925   4.822  1.3979  0.1203  0.1544
   27MOL     C1 9933   2.516   4.832   0.243 -0.5225 -0.1031 -0.3089
   27MOL     C2 9934   2.544   4.980   0.266 -0.1756  1.6554  0.5357
   27MOL     C3 9935   2.630   5.010   0.140 -0.2269 -0.3768  0.2246
   27MOL     O4 9936   2.751   4.991   0.128  0.2695 -0.2152  0.1586
   27MOL     N5 9937   2.572   5.078   0.043  0.4025  0.2119  0.7272
   27MOL     C6 9938   2.630   5.115   7.746 -0.1124 -0.0513 -0.2024
   27MOL     C7 9939   2.523   5.131   7.635 -0.6718 -0.5304 -0.6932
   27MOL     C8 9940   2.695   5.251   7.771 -0.3600 -0.4228  0.6065
   27MOL     H9 9941   2.607   4.781   0.272  0.3997  1.9024  0.4059
   27MOL    H10 9942   2.486   4.801   0.143 -1.3388  2.0773 -0.7896
   27MOL    H11 9943   2.606   5.005   0.351  2.6548  1.9600 -1.5577
   27MOL    H12 9944   2.472   5.088   0.052  0.2190 -1.4656  0.7015
   27MOL    H13 9945   2.705   5.044   7.710  2.2593  1.6798  1.1882
   27MOL    H14 9946   2.494   5.029   7.610 -1.2804 -0.9619  1.6244
   27MOL    H15 9947   2.565   5.178   7.546  0.8980 -2.4398 -0.9928
   27MOL    H16 9948   2.431   5.185   7.659 -0.3658 -0.5230  0.4727
   27MOL    H17 9949   2.770   5.248   0.014  0.7501  1.7942 -0.3221
   27MOL    H18 9950   2.746   5.274   7.677  1.7816  0.2289  1.8849
   27MOL    H19 9951   2.621   5.328   7.790  0.3187  0.0969  1.1546
   27MOL    H20 9952   2.435   4.802   0.309 -0.7539 -0.7673 -0.8849
   27MOL    C21 9953   2.413   5.062   0.283  0.1910 -0.8623  0.5225
   27MOL    C22 9954   2.428   5.212   0.309 -0.3611 -0.3205  0.0959
   27MOL    C23 9955   2.528   5.244   0.425 -0.3594  0.2161  0.6597
   27MOL    O24 9956   2.485   5.235   0.537 -0.1957 -0.0324 -0.3436
   27MOL    N25 9957   2.653   5.281   0.387  0.1164  0.2779  0.8788
   27MOL    C26 9958   2.767   5.288   0.480 -0.1224 -0.1463  0.6538
   27MOL    C27 9959   2.885   5.338   0.394  0.2011 -0.2437 -0.5228
   27MOL    C28 9960   2.807   5.153   0.540  0.5315  0.0368  0.5859
   27MOL    H29 9961   2.371   5.024   0.376 -0.2005 -1.1559  0.2278
   27MOL    H30 9962   2.339   5.042   0.205  1.4032  0.7941 -1.0882
   27MOL    H31 9963   2.482   5.268   0.233  1.2253  0.5581  1.8341
   27MOL    H32 9964   2.672   5.305   0.291  0.0602 -1.1160  0.5088
   27MOL    H33 9965   2.761   5.361   0.561 -2.0918  0.3345  0.1143
   27MOL    H34 9966   2.970   5.377   0.450 -1.1985  1.3407  0.5467
   27MOL    H35 9967   2.855   5.425   0.334 -0.7271  0.3176  0.7279
   27MOL    H36 9968   2.924   5.270   0.319  1.2276 -0.8212  0.5162
   27MOL    H37 9969   2.882   5.160   0.619 -0.6409 -2.4072  1.9821
   27MOL    H38 9970   2.722   5.111   0.595 -0.2781 -0.8197 -1.2749
   27MOL    H39 9971   2.838   5.078   0.467  0.1366  0.0044  0.4462
   27MOL    C40 9972   2.284   5.279   0.327 -0.0261  0.0181 -0.4435
   27MOL    C41 9973   2.285   5.430   0.349 -0.2003 -0.0657  0.4803
   27MOL    C42 9974   2.212   5.475   0.474  0.4219 -0.2809 -0.2030
   27MOL    O43 9975   2.109   5.541   0.464  0.1515  0.1717 -0.4718
   27MOL    N44 9976   2.263   5.427   0.592  0.2679 -0.0460 -0.3098
   27MOL    C45 9977   2.228   5.453   0.731 -0.0052 -0.6029 -0.1701
   27MOL    C46 9978   2.243   5.606   0.760  0.3363  0.3328 -0.2396
   27MOL    C47 9979   2.084   5.413   0.754  0.6965  0.0372  0.7213
   27MOL    H48 9980   2.230   5.234   0.410  0.0347 -1.1389 -1.0199
   27MOL    H49 9981   2.226   5.255   0.238  0.4339 -4.2365  0.3159
   27MOL    H50 9982   2.389   5.462   0.348  0.5411 -2.3945 -1.8618
   27MOL    H51 9983   2.346   5.370   0.589  0.1912 -0.2199  0.6759
   27MOL    H52 9984   2.297   5.399   0.795 -0.2373  2.6169  2.9420
   27MOL    H53 9985   2.179   5.671   0.701  0.4947  0.8016  0.0989
   27MOL    H54 9986   2.349   5.626   0.749  0.7630 -1.2049  0.9251
   27MOL    H55 9987   2.205   5.622   0.862  0.9190  1.1102 -0.1434
   27MOL    H56 9988   2.073   5.306   0.740  1.1479  0.1139 -0.2473
   27MOL    H57 9989   2.015   5.465   0.688  1.0955 -1.7275 -1.1222
   27MOL    H58 9990   2.044   5.439   0.852 -0.5090  0.2824  0.1775
   27MOL    C59 9991   2.248   5.499   0.217  0.1086  0.2979 -0.0975
   27MOL    C60 9992   2.300   5.641   0.205 -0.4479 -0.3864  0.1990
   27MOL    C61 9993   2.193   5.748   0.184  0.3538  0.2974  0.3363
   27MOL    O62 9994   2.185   5.810   0.077 -0.2956  0.0215 -0.4818
   27MOL    N63 9995   2.102   5.763   0.280 -0.1067  0.6279  0.6683
   27MOL    C64 9996   2.007   5.873   0.287 -0.4308  0.0931  0.3706
   27MOL    C65 9997   1.881   5.813   0.347 -0.2956  0.5529  0.3545
   27MOL    C66 9998   2.071   5.979   0.381  0.3991 -1.1238  0.2100
   27MOL    H67 9999   2.279   5.440   0.130  2.7403 -1.8497  2.2189
   27MOL    H6810000   2.139   5.500   0.216  0.0734 -1.7920 -1.7348
   27MOL    H6910001   2.353   5.666   0.297 -0.5906 -2.0821  0.7617
   27MOL    H7010002   2.104   5.692   0.352 -0.5074 -0.1594 -0.0750
   27MOL    H7110003   1.997   5.929   0.193  1.2491  0.3625  0.3452
   27MOL    H7210004   1.824   5.745   0.284 -0.1660  0.8439 -0.0788
   27MOL    H7310005   1.904   5.759   0.439 -2.0935 -0.8720 -0.0267
   27MOL    H7410006   1.808   5.888   0.378 -0.8249 -0.9442  2.8091
   27MOL    H7510007   2.120   5.936   0.468  0.5918 -1.2652  0.0324
   27MOL    H7610008   2.153   6.022   0.323 -0.9303 -1.4711 -2.0259
   27MOL    H7710009   1.995   6.045   0.423 -0.9033 -2.4446 -0.0013
   27MOL    C7810010   2.409   5.646   0.091  0.5664  0.1299  0.4333
   27MOL    C7910011   2.529   5.737   0.110 -0.0554  0.4119  0.1555
   27MOL    C8010012   2.632   5.674   0.201 -0.2210  0.3003 -0.1069
   27MOL    O8110013   2.688   5.570   0.166 -0.3067 -0.0856 -0.0401
   27MOL    N8210014   2.669   5.732   0.315 -0.5583  0.2377 -0.0572
   27MOL    C8310015   2.617   5.840   0.405 -0.6579 -0.5294  0.3059
   27MOL    C8410016   2.495   5.802   0.489  0.0230  0.2014  0.0869
   27MOL    C8510017   2.726   5.885   0.501  0.6000 -0.2866  0.0240
   27MOL    H8610018   2.353   5.671   0.001 -0.3439  1.2894  1.3172
   27MOL    H8710019   2.448   5.549   0.062 -1.0124 -0.1604 -0.7510
   27MOL    H8810020   2.500   5.830   0.160  0.5223 -0.3087  1.8737
   27MOL    H8910021   2.746   5.678   0.352 -0.4321  0.4923  0.0598
   27MOL    H9010022   2.590   5.922   0.340  0.7407 -1.7040 -1.7980
   27MOL    H9110023   2.481   5.866   0.576 -0.1191  0.7786 -0.3525
   27MOL    H9210024   2.399   5.820   0.440 -0.3927 -0.3713  0.6784
   27MOL    H9310025   2.502   5.699   0.525 -1.4117  0.7616  2.0709
   27MOL    H9410026   2.818   5.925   0.458 -0.4132  0.4876 -1.4625
   27MOL    H9510027   2.770   5.795   0.545 -0.1868 -1.4612 -1.5499
   27MOL    H9610028   2.698   5.965   0.569  1.3863  0.6215 -0.7077
   27MOL    C9710029   2.598   5.791   7.812  0.0301 -0.6089  0.3742
   27MOL    C9810030   2.629   5.685   7.709  0.3149 -0.2148 -0.1099
   27MOL    C9910031   2.785   5.669   7.692  0.5286 -0.5360 -0.2551
   27MOL   O10010032   2.849   5.753   7.628  0.2920 -0.0597  0.2099
   27MOL   N10110033   2.841   5.556   7.745  0.2349  0.2661 -0.1019
   27MOL   C10210034   2.981   5.526   7.748  0.5090 -0.5063 -0.4122
   27MOL   C10310035   3.021   5.442   0.040  0.3171  0.6255 -0.7140
   27MOL   C10410036   3.014   5.456   7.617  0.1375 -0.1343 -0.6033
   27MOL   H10510037   2.681   5.859   7.830  0.3901 -0.7943 -0.5680
   27MOL   H10610038   2.512   5.843   7.770  0.1103 -1.1736 -0.4875
   27MOL   H10710039   2.581   5.592   7.742  0.3443  0.4250  1.7904
   27MOL   H10810040   2.775   5.495   7.791 -0.7815  0.9220 -0.6651
   27MOL   H10910041   3.040   5.618   7.742 -1.5822  0.7920 -1.5376
   27MOL   H11010042   3.012   5.511   0.124  1.4723  0.4350 -0.4240
   27MOL   H11110043   2.962   5.351   0.040  2.4356 -0.7773 -1.5254
   27MOL   H11210044   3.123   5.403   0.035 -0.3772 -1.0740 -1.8498
   27MOL   H11310045   3.119   5.434   7.600 -0.3131 -0.4485 -3.2043
   27MOL   H11410046   2.976   5.511   7.531 -2.4889  2.0951  1.8618
   27MOL   H11510047   2.963   5.360   7.623  2.2823 -1.2996 -0.6215
   27MOL   C11610048   2.571   5.729   7.568  0.4131  0.5219 -0.6057
   27MOL   C11710049   2.541   5.614   7.466  0.2976  0.0004  0.0895
   27MOL   C11810050   2.425   5.532   7.520  0.1214 -0.2265 -0.1717
   27MOL   O11910051   2.450   5.437   7.594  0.4050  0.1689  0.2169
   27MOL   N12010052   2.301   5.568   7.488  0.2161 -0.0897 -0.0383
   27MOL   C12110053   2.180   5.484   7.510 -0.2734 -0.1474 -0.7332
   27MOL   C12210054   2.110   5.522   7.641  0.0948 -0.1163 -0.1057
   27MOL   C12310055   2.088   5.506   7.385 -0.0008 -0.4589  0.3347
   27MOL   H12410056   2.638   5.798   7.516 -1.3181  2.0476 -0.8853
   27MOL   H12510057   2.486   5.798   7.570  0.5654  0.6791  0.7723
   27MOL   H12610058   2.511   5.657   7.371 -0.4611  0.5724  0.5740
   27MOL   H12710059   2.293   5.654   7.436  1.5714 -0.4413 -0.8533
   27MOL   H12810060   2.222   5.384   7.521  0.1098  0.1006  0.1519
   27MOL   H12910061   2.062   5.620   7.639 -0.8983 -0.6351 -1.9133
   27MOL   H13010062   2.189   5.521   7.717 -0.1345 -0.3140  0.1299
   27MOL   H13110063   2.040   5.444   7.671 -2.9685  2.7667  0.5265
   27MOL   H13210064   2.085   5.610   7.353 -1.4107 -0.5028  0.3050
   27MOL   H13310065   2.128   5.449   7.302 -0.0424  1.6209 -1.1486
   27MOL   H13410066   1.987   5.468   7.400 -0.2985 -0.0030 -0.4935
   27MOL   C13510067   2.662   5.515   7.447  0.6040 -0.1041  0.7284
   27MOL   C13610068   2.638   5.394   7.353 -0.3596  0.1814 -0.0078
   27MOL   C13710069   2.580   5.441   7.220  0.4231  0.8031 -0.0021
   27MOL   O13810070   2.652   5.474   7.127 -0.2643  0.0925  1.0141
   27MOL   N13910071   2.449   5.427   7.203 -0.0921  0.9834 -0.7440
   27MOL   C14010072   2.370   5.467   7.079  0.6891 -0.2740  0.4746
   27MOL   C14110073   2.417   5.398   6.953  0.5040  0.2119 -0.0458
   27MOL   C14210074   2.369   5.618   7.047 -0.2822  0.1850 -0.7873
   27MOL   H14310075   2.690   5.457   7.535  1.8338  0.8540  0.9716
   27MOL   H14410076   2.752   5.570   7.420 -0.8019  1.6944 -0.3699
   27MOL   H14510077   2.569   5.324   7.400  1.8394 -1.4160  0.9483
   27MOL   H14610078   2.399   5.400   7.286  2.8095  1.4102  1.1929
   27MOL   H14710079   2.268   5.433   7.096  0.3971  0.5236  0.3230
   27MOL   H14810080   2.411   5.290   6.973 -2.1394  0.0958 -1.2335
   27MOL   H14910081   2.360   5.405   6.861  0.5713 -1.5359 -0.2509
   27MOL   H15010082   2.519   5.430   6.935  0.0108  1.5800 -0.4558
   27MOL   H15110083   2.333   5.672   7.134  0.2459  0.6115 -0.8288
   27MOL   H15210084   2.323   5.641   6.951  2.2768 -1.0455 -2.3628
   27MOL   H15310085   2.467   5.662   7.031 -0.0429  0.0742  0.3565
   27MOL   C15410086   2.767   5.318   7.337  0.0321  0.0524  0.1654
   27MOL   C15510087   2.772   5.195   7.236  0.0349 -0.2166 -0.8677
   27MOL   C15610088   2.664   5.097   7.266 -0.3654 -0.3657 -0.1665
   27MOL   O15710089   2.677   5.020   7.364 -0.0815  0.0815 -0.7927
   27MOL   N15810090   2.556   5.103   7.191  0.3516  0.3343 -0.1718
   27MOL   C15910091   2.432   5.021   7.218  1.0298  0.3816 -0.6446
   27MOL   C16010092   2.431   4.904   7.121 -0.1972  0.4073 -0.3899
   27MOL   C16110093   2.305   5.101   7.201  0.2065  0.2702  0.2932
   27MOL   H16210094   2.811   5.279   7.428 -0.6661 -0.5137  0.2647
   27MOL   H16310095   2.843   5.390   7.304  0.9501 -0.7795  0.4755
   27MOL   H16410096   2.760   5.238   7.137  0.9710  0.8274 -0.5451
   27MOL   H16510097   2.562   5.180   7.126 -0.5024  0.5617  0.0170
   27MOL   H16610098   2.434   4.988   7.322  0.0637 -2.7346 -1.5531
   27MOL   H16710099   2.337   4.848   7.118 -0.3169  0.6311 -0.7934
   27MOL   H16810100   2.460   4.926   7.019  1.4044 -1.5552 -0.3773
   27MOL   H16910101   2.505   4.831   7.154 -1.6737 -0.5905  0.7782
   27MOL   H17010102   2.216   5.046   7.232 -1.0297  0.6178 -2.4833
   27MOL   H17110103   2.286   5.135   7.099  0.2975  0.3151  0.2908
   27MOL   H17210104   2.306   5.196   7.254  1.8368  0.6539 -0.4211
   27MOL   C17310105   2.918   5.134   7.253 -1.5496 -0.1049 -0.8075
   27MOL   C17410106   2.962   5.011   7.178  0.0498  0.5605  0.0459
   27MOL   C17510107   2.954   5.030   7.023 -0.0646  0.0515 -0.0397
   27MOL   O17610108   3.041   5.091   6.960 -0.3111  0.0370 -0.4680
   27MOL   N17710109   2.840   4.996   6.957 -0.4456  0.2031 -0.3896
   27MOL   C17810110   2.810   5.020   6.818  0.4825 -0.3036  0.6213
   27MOL   C17910111   2.659   4.992   6.798 -0.0642  0.0458 -0.5437
   27MOL   C18010112   2.897   4.915   6.739  0.2379  0.0815 -0.2338
   27MOL   H18110113   2.945   5.133   7.359 -1.8454 -1.0184 -0.7392
   27MOL   H18210114   2.978   5.215   7.211 -3.2245  1.8257  0.4689
   27MOL   H18310115   2.898   4.932   7.218  2.4864 -0.5424  1.9526
   27MOL   H18410116   2.791   4.920   7.003  2.1644 -0.7670  0.8945
   27MOL   H18510117   2.835   5.121   6.787 -3.7109  0.1097 -1.7748
   27MOL   H18610118   2.632   4.900   6.848 -0.7608  0.6628  0.2181
   27MOL   H18710119   2.638   5.003   6.691 -2.4083 -0.3353 -0.1460
   27MOL   H18810120   2.597   5.070   6.841 -0.6170 -2.1701  2.7847
   27MOL   H18910121   3.000   4.948   6.745 -0.5382  2.8970 -1.5450
   27MOL   H19010122   2.884   4.919   6.631 -0.2315  0.0508 -0.1799
   27MOL   H19110123   2.877   4.819   6.787  0.5954  0.7402  1.2726
   27MOL   C19210124   3.109   4.973   7.226  0.3654 -0.4559  0.3953
   27MOL   C19310125   3.164   4.834   7.196 -0.2485  0.4143  0.1917
   27MOL   C19410126   3.266   4.792   7.311 -0.0309 -0.6544 -0.4209
   27MOL   O19510127   3.368   4.859   7.326 -0.6516 -0.0893  0.2421
   27MOL   N19610128   3.237   4.685   7.387  0.0729 -0.1485 -0.3620
   27MOL   C19710129   3.312   4.630   7.502  0.4481 -0.6241  0.4743
   27MOL   C19810130   3.232   4.505   7.551 -0.1305 -0.9073 -0.1315
   27MOL   C19910131   3.452   4.585   7.452 -0.0078  0.1298  0.5903
   27MOL   H20010132   3.115   4.991   7.334  1.2754  0.4455  0.2021
   27MOL   H20110133   3.181   5.048   7.192 -0.1489 -0.2789 -0.3058
   27MOL   H20210134   3.085   4.759   7.198  1.1085 -1.0702 -0.7529
   27MOL   H20310135   3.145   4.647   7.371 -0.2955 -0.1065  1.6464
   27MOL   H20410136   3.307   4.697   7.588  3.1280 -0.5362  0.6082
   27MOL   H20510137   3.288   4.457   7.631 -1.5414  0.1024  1.4812
   27MOL   H20610138   3.228   4.430   7.472  0.2645 -1.8552  0.7329
   27MOL   H20710139   3.134   4.533   7.588  0.5532  1.1110  0.1967
   27MOL   H20810140   3.502   4.515   7.519 -0.8140  0.0458  1.1037
   27MOL   H20910141   3.509   4.677   7.467 -2.0875  1.7444 -1.1012
   27MOL   H21010142   3.455   4.547   7.350  1.4086  0.3021  0.5476
   27MOL   C21110143   3.219   4.820   7.054  0.0813 -0.0403 -0.4926
   27MOL   C21210144   3.289   4.686   7.018 -0.6776  0.6129 -0.2425
   27MOL   C21310145   3.188   4.568   7.010  0.5212  0.0611 -0.2332
   27MOL   O21410146   3.087   4.586   6.940  0.3367 -0.6796  0.6110
   27MOL   N21510147   3.218   4.463   7.089  0.1203  0.6015  0.9106
   27MOL   C21610148   3.146   4.336   7.084 -0.0813 -0.2057 -0.4058
   27MOL   C21710149   3.167   4.264   7.217 -0.2323  0.2670 -0.6347
   27MOL   C21810150   3.189   4.250   6.969  0.3352 -0.2532  0.0132
   27MOL   H21910151   3.288   4.901   7.029  0.0456  1.0189  2.6128
   27MOL   H22010152   3.133   4.825   6.987 -0.1725  0.1992 -0.1524
   27MOL   H22110153   3.377   4.674   7.081 -0.1272 -1.5409 -1.3556
   27MOL   H22210154   3.302   4.478   7.143  0.3891  1.0037  0.3898
   27MOL   H22310155   3.040   4.361   7.071 -0.1866 -0.4908 -0.1115
   27MOL   H22410156   3.274   4.243   7.224 -0.3988 -0.2600  0.5283
   27MOL   H22510157   3.136   4.321   7.305  1.0871 -1.1777  0.7874
   27MOL   H22610158   3.099   4.181   7.233  2.4864 -1.9965 -0.3778
   27MOL   H22710159   3.168   4.307   6.879 -0.9004  0.3238  0.6499
   27MOL   H22810160   3.130   4.159   6.961  1.0805 -0.6903 -0.5972
   27MOL   H22910161   3.296   4.227   6.970  0.4323  0.1766  1.9175
   27MOL   C23010162   3.338   4.695   6.868 -0.1934  0.5072  0.2552
   27MOL   C23110163   3.464   4.787   6.844 -0.6624  0.3556 -0.1129
   27MOL   C23210164   3.578   4.741   6.936  0.5773 -0.3290  0.2704
   27MOL   O23310165   3.581   4.621   6.962 -0.5199  0.6999  0.0187
   27MOL   N23410166   3.651   4.832   6.995 -0.0151  0.0604  0.0320
   27MOL   C23510167   3.762   4.798   7.083 -0.2497  0.0259  0.0584
   27MOL   C23610168   3.870   4.906   7.063  0.0211 -0.5376  0.1873
   27MOL   C23710169   3.710   4.791   7.233 -0.3355  0.7233  0.8506
   27MOL   H23810170   3.262   4.732   6.799 -1.1814 -0.9726  0.5243
   27MOL   H23910171   3.351   4.598   6.820  0.8787  1.0886 -0.6448
   27MOL   H24010172   3.437   4.889   6.872  0.8257  0.5657  0.6266
   27MOL   H24110173   3.656   4.925   6.957 -1.2049 -0.6402 -1.9167
   27MOL   H24210174   3.801   4.700   7.057 -0.5577  0.6029 -2.6716
   27MOL   H24310175   3.965   4.881   7.111 -0.5353 -2.0893  0.5166
   27MOL   H24410176   3.880   4.912   6.955  2.2609  0.5489  0.4281
   27MOL   H24510177   3.832   5.004   7.092 -0.3522 -0.8229  0.6640
   27MOL   H24610178   3.791   4.774   7.304 -0.9810 -1.8078  1.0448
   27MOL   H24710179   3.635   4.716   7.259 -1.2077  1.3915  0.3034
   27MOL   H24810180   3.669   4.886   7.268  0.6448  1.1732  0.7932
   27MOL   C24910181   3.511   4.777   6.698  0.2529  0.3117  0.6006
   27MOL   C25010182   3.618   4.874   6.648  0.6993  0.2999 -0.2190
   27MOL   C25110183   3.556   5.020   6.631 -0.5761  0.7005  0.9881
   27MOL   O25210184   3.616   5.119   6.668 -0.0370  0.2344  0.4817
   27MOL   N25310185   3.443   5.026   6.575 -0.6384 -0.4564 -0.7209
   27MOL   C25410186   3.363   5.146   6.557 -0.4689  0.1416 -0.8264
   27MOL   C25510187   3.301   5.144   6.414  0.3467  0.5078 -0.9405
   27MOL   C25610188   3.250   5.153   6.666 -0.0196 -0.0221  0.7031
   27MOL   H25710189   3.428   4.788   6.629  0.6834 -0.8211 -0.1191
   27MOL   H25810190   3.540   4.673   6.681 -2.8042 -0.1150 -2.4387
   27MOL   H25910191   3.693   4.879   6.727  1.3835 -1.1912 -0.7576
   27MOL   H26010192   3.414   4.945   6.522 -0.1011 -0.9109 -0.3225
   27MOL   H26110193   3.439   5.223   6.570 -0.5078 -0.0800  0.7361
   27MOL   H26210194   3.383   5.130   6.344  0.1344  2.8114 -1.6686
   27MOL   H26310195   3.227   5.066   6.396  0.1049  0.3888  0.5037
   27MOL   H26410196   3.252   5.239   6.393 -3.4053 -1.2040 -0.2886
   27MOL   H26510197   3.182   5.238   6.652  0.4107  0.3225  0.6870
   27MOL   H26610198   3.184   5.067   6.677 -1.0510  0.2027 -3.0589
   27MOL   H26710199   3.294   5.179   6.763 -0.9833  0.4264  1.0290
   27MOL   C26810200   3.683   4.823   6.519  0.0297  0.5131 -0.0364
   27MOL   C26910201   3.782   4.919   6.453  0.6935  0.1652  0.5416
   27MOL   C27010202   3.902   4.944   6.549 -0.1900 -0.1693  0.1013
   27MOL   O27110203   3.988   4.858   6.564 -0.0106 -0.0743 -0.0279
   27MOL   N27210204   3.903   5.064   6.607  0.1131  0.5962 -0.3442
   27MOL   C27310205   3.995   5.116   6.708 -0.4196  0.2008  0.7944
   27MOL   C27410206   4.127   5.152   6.659 -0.8395 -0.2258  0.3716
   27MOL   C27510207   3.917   5.232   6.774 -0.3959  0.7893 -0.6713
   27MOL   H27610208   3.740   4.735   6.548 -0.4675  0.1728 -0.0836
   27MOL   H27710209   3.612   4.787   6.445  0.0144  0.7767 -0.1487
   27MOL   H27810210   3.733   5.013   6.424 -0.3148 -0.8647 -1.1753
   27MOL   H27910211   3.827   5.128   6.593  1.0978  1.9037  0.1562
   27MOL   H28010212   4.008   5.038   6.783  0.5953  0.4902  0.9248
   27MOL   H28110213   4.195   5.067   6.659  0.0867  0.4943 -1.6484
   27MOL   H28210214   4.123   5.188   6.557 -1.5595 -2.1340 -0.3040
   27MOL   H28310215   4.180   5.231   6.712 -0.5653 -1.7579  2.4366
   27MOL   H28410216   3.974   5.275   6.856 -0.8595 -1.7619  1.0704
   27MOL   H28510217   3.894   5.307   6.698  1.1975  0.2842 -1.6774
   27MOL   H28610218   3.828   5.197   6.826  1.5242 -0.1762  2.1112
   27MOL   C28710219   3.822   4.864   6.317 -0.3276 -1.0795  0.1466
   27MOL   C28810220   3.926   4.945   6.234  0.4263  0.4215 -0.4837
   27MOL   C28910221   3.835   5.040   6.150  0.0904  0.7047 -0.3092
   27MOL   O29010222   3.780   5.004   6.044 -0.2940  0.1350 -0.2847
   27MOL   N29110223   3.821   5.154   6.213  0.0279 -0.0151  0.0219
   27MOL   C29210224   3.738   5.268   6.161  0.2419  0.4887  0.6644
   27MOL   C29310225   3.584   5.244   6.167 -0.0706  0.9321 -0.6242
   27MOL   C29410226   3.792   5.391   6.230  0.2221 -0.4134 -0.6474
   27MOL   H29510227   3.858   4.762   6.332  1.3916 -0.4891  0.1050
   27MOL   H29610228   3.738   4.846   6.249  1.4400  1.4839 -2.8251
   27MOL   H29710229   3.997   4.998   6.297  1.9350 -0.6914 -1.2311
   27MOL   H29810230   3.871   5.166   6.299 -0.5915 -1.6448  0.6147
   27MOL   H29910231   3.767   5.283   6.057  1.4992  0.3041  0.9807
   27MOL   H30010232   3.541   5.238   6.267 -0.3641  1.5385 -0.7109
   27MOL   H30110233   3.529   5.317   6.109 -2.2192  0.3370  0.6335
   27MOL   H30210234   3.548   5.155   6.116 -1.8113  2.3924 -2.0074
   27MOL   H30310235   3.897   5.378   6.251 -0.2342 -2.3423  0.4984
   27MOL   H30410236   3.781   5.473   6.158 -1.8127  0.9377  1.1335
   27MOL   H30510237   3.745   5.420   6.324  1.5317 -0.2782 -0.0246
   27MOL   C30610238   4.020   4.847   6.143  0.5014 -0.9588  0.1139
   27MOL   C30710239   4.127   4.905   6.046  0.9275 -1.0676 -0.9258
   27MOL   C30810240   4.175   4.788   5.955 -0.1151 -0.1406 -0.2734
   27MOL   O30910241   4.229   4.686   6.003  0.0565  0.0730 -0.2124
   27MOL   N31010242   4.138   4.804   5.825 -0.1400 -0.4813  0.1225
   27MOL   C31110243   4.181   4.724   5.709  0.0331 -0.1596  0.2261
   27MOL   C31210244   4.086   4.598   5.701  0.0950 -0.7832  0.1883
   27MOL   C31310245   4.178   4.792   5.572 -0.5286  0.4646 -0.0897
   27MOL   H31410246   4.065   4.771   6.207  2.1429 -0.4113 -0.3903
   27MOL   H31510247   3.945   4.796   6.083  0.3902  0.4004 -0.9192
   27MOL   H31610248   4.085   4.985   5.986 -2.6265 -0.8672  1.7295
   27MOL   H31710249   4.058   4.865   5.814 -0.6064 -1.1588 -0.2953
   27MOL   H31810250   4.282   4.686   5.725 -0.8756 -2.2104  1.3993
   27MOL   H31910251   4.113   4.528   5.781 -1.0829 -0.1441  1.1626
   27MOL   H32010252   4.120   4.529   5.624 -1.5994 -2.0048  0.5084
   27MOL   H32110253   3.979   4.613   5.690  0.4937  0.8388 -1.7140
   27MOL   H32210254   4.073   4.795   5.544 -0.6122  0.5764  0.2292
   27MOL   H32310255   4.225   4.728   5.498  0.2882 -2.1039  2.5450
   27MOL   H32410256   4.222   4.892   5.574  1.3601 -0.3368  0.3612
   27MOL   C32510257   4.253   4.961   6.122 -0.6000  0.2271 -0.1430
   27MOL   C32610258   4.348   5.041   6.029 -1.2168  0.0702 -0.1335
   27MOL   C32710259   4.298   5.180   6.007  0.6371 -0.2601 -0.1621
   27MOL   O32810260   4.324   5.266   6.090 -0.1312  0.0091  1.0668
   27MOL   N32910261   4.214   5.199   5.901  0.1640  0.2874  0.1920
   27MOL   C33010262   4.150   5.321   5.860 -0.9230  0.2607  1.0179
   27MOL   C33110263   4.026   5.349   5.941  0.6557 -0.5099 -0.6732
   27MOL   C33210264   4.120   5.304   5.713 -0.3262 -0.0786 -0.3882
   27MOL   H33310265   4.310   4.876   6.161  0.5561 -0.2353 -2.7253
   27MOL   H33410266   4.230   5.031   6.202  2.9343  1.3141  0.0004
   27MOL   H33510267   4.346   4.992   5.931  0.4634 -2.2460  0.9413
   27MOL   H33610268   4.196   5.120   5.840  1.0172 -0.8005  1.3120
   27MOL   H33710269   4.223   5.402   5.868 -1.7908  1.1301  0.2004
   27MOL   H33810270   4.062   5.375   6.041 -0.3211 -2.1204  0.1180
   27MOL   H33910271   3.965   5.427   5.896  0.7599  1.7213  2.8410
   27MOL   H34010272   3.966   5.258   5.941 -0.1223 -0.0095 -2.2311
   27MOL   H34110273   4.081   5.208   5.680 -1.7155  0.2161  0.3917
   27MOL   H34210274   4.209   5.317   5.650  1.1751 -1.7965  1.2886
   27MOL   H34310275   4.049   5.382   5.683  0.4124  0.7649  0.0176
   27MOL   C34410276   4.496   5.039   6.078 -0.8452 -0.6504  0.3287
   27MOL   C34510277   4.577   4.908   6.049 -0.2613  0.0548 -0.0087
   27MOL   C34610278   4.592   4.870   5.902 -0.1272 -0.0499 -0.0565
   27MOL   O34710279   4.614   4.952   5.809 -0.4460  0.5209 -0.7709
   27MOL   N34810280   4.557   4.746   5.873 -0.2919  0.4157  0.0179
   27MOL   C34910281   4.577   4.666   5.749 -0.1541 -0.5824 -0.1893
   27MOL   C35010282   4.723   4.662   5.710  0.4849 -0.4922  0.1247
   27MOL   C35110283   4.517   4.530   5.765  0.2424 -0.1688 -0.2804
   27MOL   H35210284   4.490   5.050   6.186 -1.3904 -0.8175  0.3188
   27MOL   H35310285   4.548   5.132   6.056 -2.0753  0.5331  2.2374
   27MOL   H35410286   4.510   4.831   6.086 -1.0094 -0.2847 -1.9999
   27MOL   H35510287   4.502   4.703   5.946 -0.7680 -0.1394 -0.6574
   27MOL   H35610288   4.528   4.720   5.668 -3.0286 -0.2741  1.6846
   27MOL   H35710289   4.747   4.589   5.633  0.5102 -0.6668  0.2993
   27MOL   H35810290   4.747   4.766   5.686 -1.5789 -0.0516 -0.1437
   27MOL   H35910291   4.787   4.637   5.795  0.5379  1.9375  0.8361
   27MOL   H36010292   4.435   4.537   5.836  1.3239  0.5051  0.9065
   27MOL   H36110293   4.485   4.484   5.671 -2.2500  1.0571 -0.0869
   27MOL   H36210294   4.594   4.463   5.802  0.5120  0.2070 -0.1659
   27MOL   C36310295   4.711   4.914   6.125 -0.0030 -0.3507 -0.5682
   27MOL   C36410296   4.810   4.796   6.102  0.1924 -0.5912 -0.6115
   27MOL   C36510297   4.953   4.804   6.166 -0.0176 -0.1397  0.2647
   27MOL   O36610298   5.037   4.878   6.117  0.0843 -0.2395  0.1447
   27MOL   N36710299   4.960   4.729   6.277  0.0512  0.2747 -0.4422
   27MOL   C36810300   5.079   4.725   6.364  0.7128  0.0722 -0.2341
   27MOL   C36910301   5.052   4.650   6.498  0.3891 -0.1349  0.4037
   27MOL   C37010302   5.207   4.673   6.294 -0.0915 -0.3656 -0.5817
   27MOL   H37110303   4.693   4.930   6.232 -0.0382 -0.9528 -0.4826
   27MOL   H37210304   4.756   5.011   6.103 -0.9645 -0.9246 -5.4442
   27MOL   H37310305   4.836   4.795   5.996  1.1977 -2.2304 -0.3876
   27MOL   H37410306   4.870   4.691   6.301  0.3161  0.9991  1.7677
   27MOL   H37510307   5.096   4.831   6.385  0.4174  0.5476 -2.1996
   27MOL   H37610308   5.013   4.549   6.487 -3.0347  1.1768  0.1434
   27MOL   H37710309   5.132   4.647   6.573  1.4342  0.8097 -0.6457
   27MOL   H37810310   4.977   4.711   6.549  0.3987  0.3083 -0.1123
   27MOL   H37910311   5.288   4.658   6.366 -0.2711  0.5309 -0.1842
   27MOL   H38010312   5.184   4.580   6.243 -3.5953  0.8540 -1.4354
   27MOL   H38110313   5.249   4.751   6.230  0.4637  0.2998  0.5795
   27MOL   H38210314   4.759   4.700   6.107 -0.5000 -0.1638  0.5365
   28MOL     C110315   2.601   7.237   3.007 -0.0287 -0.6860  0.2478
   28MOL     C210316   2.664   7.137   3.106  0.2375 -0.5068 -0.0601
   28MOL     C310317   2.625   7.182   3.251 -0.2689 -0.1347 -0.0820
   28MOL     O410318   2.540   7.261   3.262 -0.2742  0.0717 -0.4778
   28MOL     N510319   2.705   7.135   3.352 -0.6143 -0.3419  0.6982
   28MOL     C610320   2.698   7.178   3.488 -0.0065 -0.2938  0.1869
   28MOL     C710321   2.594   7.107   3.567  0.0514 -0.3411 -0.0267
   28MOL     C810322   2.836   7.186   3.558  0.7444  0.2180 -0.2054
   28MOL     H910323   2.493   7.252   3.012  0.0057 -0.5398  0.5502
   28MOL    H1010324   2.604   7.199   2.905  0.3090  1.1832 -0.4433
   28MOL    H1110325   2.773   7.145   3.102  0.2299 -0.7679 -0.7724
   28MOL    H1210326   2.768   7.063   3.320 -1.7148 -0.9880 -0.0445
   28MOL    H1310327   2.670   7.282   3.474 -3.1155 -0.9855  0.9665
   28MOL    H1410328   2.600   7.111   3.675 -3.5399  0.7445  0.2236
   28MOL    H1510329   2.581   7.003   3.535  2.7008 -0.3914 -1.0834
   28MOL    H1610330   2.498   7.153   3.540 -2.1341 -5.5482 -1.9450
   28MOL    H1710331   2.828   7.261   3.637 -0.1896 -0.0603 -0.0304
   28MOL    H1810332   2.865   7.096   3.612  0.2375 -0.3681 -0.9041
   28MOL    H1910333   2.919   7.225   3.499  2.0838  0.4865  1.8022
   28MOL    H2010334   2.630   7.341   3.012  1.3780 -1.0192 -0.8334
   28MOL    C2110335   2.629   6.989   3.084 -0.3136  0.0183 -0.2632
   28MOL    C2210336   2.735   6.878   3.054  0.5994  0.0135  0.0371
   28MOL    C2310337   2.809   6.851   3.179  0.1367  0.7085  0.4826
   28MOL    O2410338   2.891   6.934   3.216 -0.4737  0.0105 -0.3941
   28MOL    N2510339   2.781   6.737   3.250  0.3946  0.0945  0.0166
   28MOL    C2610340   2.858   6.690   3.365  0.3658 -1.0061  0.2924
   28MOL    C2710341   2.826   6.542   3.389 -0.0290 -0.2326  0.8262
   28MOL    C2810342   2.827   6.773   3.490  0.6015 -0.9377  0.6405
   28MOL    H2910343   2.554   6.981   3.006 -2.6740 -0.8030  1.9825
   28MOL    H3010344   2.574   6.956   3.173 -0.1822  3.4037  1.1501
   28MOL    H3110345   2.676   6.789   3.031  1.7294 -0.8127  0.3227
   28MOL    H3210346   2.709   6.673   3.221  0.6313  0.1529 -0.7159
   28MOL    H3310347   2.964   6.696   3.339 -0.0719 -1.0387 -1.5593
   28MOL    H3410348   2.720   6.540   3.416 -0.2688  0.6251 -0.0307
   28MOL    H3510349   2.870   6.503   3.481 -0.1545 -1.3104  0.4459
   28MOL    H3610350   2.865   6.483   3.306 -1.3256  0.0836 -0.0277
   28MOL    H3710351   2.844   6.879   3.473 -1.2402 -0.7509 -0.0983
   28MOL    H3810352   2.719   6.767   3.505  0.3455 -1.8719 -1.3201
   28MOL    H3910353   2.881   6.746   3.581 -1.5820  0.7476  2.4820
   28MOL    C4010354   2.828   6.909   2.934  0.2553 -0.0586 -1.0039
   28MOL    C4110355   2.755   6.908   2.796 -0.7165 -0.1251 -0.0941
   28MOL    C4210356   2.762   6.769   2.730  0.0514 -0.2023 -0.2316
   28MOL    O4310357   2.867   6.724   2.690  0.0820  0.3909  0.8946
   28MOL    N4410358   2.644   6.703   2.727  0.1815 -0.4156  0.4775
   28MOL    C4510359   2.608   6.569   2.671  0.3639 -0.0120  0.5111
   28MOL    C4610360   2.685   6.454   2.735 -0.2895  0.2233  0.8678
   28MOL    C4710361   2.458   6.555   2.653  0.5066  0.4522  0.7783
   28MOL    H4810362   2.898   6.827   2.928  1.7849  1.2328 -1.2087
   28MOL    H4910363   2.889   7.000   2.936 -0.3651  0.3573 -0.4493
   28MOL    H5010364   2.652   6.941   2.801 -0.2735  0.9590  2.2600
   28MOL    H5110365   2.559   6.744   2.762  0.9467  0.5925  1.1693
   28MOL    H5210366   2.650   6.568   2.571  1.4099 -1.1537  0.9380
   28MOL    H5310367   2.792   6.460   2.716 -0.9085  1.9615 -2.4776
   28MOL    H5410368   2.650   6.357   2.701 -1.9735  1.4144 -0.8775
   28MOL    H5510369   2.662   6.465   2.841 -0.5926  2.7933  0.5780
   28MOL    H5610370   2.436   6.472   2.587  0.1245  0.8992  0.3419
   28MOL    H5710371   2.415   6.639   2.598 -1.6036 -0.4980  0.9458
   28MOL    H5810372   2.412   6.549   2.752  0.1170 -1.2602  0.4959
   28MOL    C5910373   2.825   7.012   2.697  0.6091  0.0840  0.1835
   28MOL    C6010374   2.788   7.024   2.540  0.2034  0.3393 -0.4181
   28MOL    C6110375   2.874   7.123   2.468  0.3461 -0.2693 -0.1638
   28MOL    O6210376   2.862   7.237   2.501  0.2137 -0.2169 -0.1080
   28MOL    N6310377   2.967   7.078   2.380  0.0269 -0.1485 -0.5686
   28MOL    C6410378   3.079   7.155   2.325 -0.0214 -0.3589 -0.0276
   28MOL    C6510379   3.142   7.077   2.208 -0.3599 -0.3491  0.4301
   28MOL    C6610380   3.023   7.287   2.264  0.1092 -0.2023 -0.1020
   28MOL    H6710381   2.826   7.114   2.735  0.3956 -0.0778  0.6264
   28MOL    H6810382   2.930   6.983   2.705  0.3500 -0.3121  2.9265
   28MOL    H6910383   2.812   6.924   2.505  0.5460  0.4813 -0.5947
   28MOL    H7010384   2.964   6.979   2.362 -0.7935 -0.1286 -0.5643
   28MOL    H7110385   3.147   7.165   2.409 -1.0828 -0.7824  0.8888
   28MOL    H7210386   3.209   7.146   2.157 -1.6271  0.6862  0.1459
   28MOL    H7310387   3.199   6.990   2.242 -0.3306 -0.9964 -1.2477
   28MOL    H7410388   3.073   7.063   2.125  0.5463 -2.0348 -0.0560
   28MOL    H7510389   2.967   7.268   2.172 -0.6700 -0.4095  0.4081
   28MOL    H7610390   2.954   7.344   2.326  0.6877 -0.2337  0.5731
   28MOL    H7710391   3.099   7.360   2.236  0.2030 -0.2456  0.0396
   28MOL    C7810392   2.636   7.045   2.523  0.4217 -0.2034  0.2177
   28MOL    C7910393   2.583   7.026   2.377 -0.2874  0.1894  0.1087
   28MOL    C8010394   2.609   6.888   2.318 -0.2174 -0.1995 -0.0968
   28MOL    O8110395   2.602   6.787   2.386  0.0981  0.5836 -0.5386
   28MOL    N8210396   2.647   6.888   2.192 -0.4862 -0.5755 -0.1369
   28MOL    C8310397   2.715   6.774   2.132 -0.2065  0.0435  1.1243
   28MOL    C8410398   2.639   6.739   2.005  0.1753 -0.3730 -0.0825
   28MOL    C8510399   2.862   6.811   2.098  0.0595  0.3504 -0.5185
   28MOL    H8610400   2.613   7.146   2.555  0.4753 -0.2186  0.3040
   28MOL    H8710401   2.580   6.972   2.582  0.5886 -0.6628 -0.1895
   28MOL    H8810402   2.653   7.091   2.325  0.5601  0.2261  1.2666
   28MOL    H8910403   2.644   6.977   2.145  2.1682 -0.0945  0.5565
   28MOL    H9010404   2.719   6.684   2.194  0.5845 -1.6224 -1.2921
   28MOL    H9110405   2.542   6.692   2.024  0.1288 -0.3274 -0.2113
   28MOL    H9210406   2.638   6.819   1.931 -0.1623 -1.2884 -1.0766
   28MOL    H9310407   2.684   6.659   1.947 -1.5580 -2.9953  2.0596
   28MOL    H9410408   2.862   6.902   2.038 -3.5751  0.0486 -1.0949
   28MOL    H9510409   2.892   6.728   2.035  1.2554  1.1789 -1.0498
   28MOL    H9610410   2.927   6.823   2.184 -0.5425  0.5679 -0.0874
   28MOL    C9710411   2.436   7.081   2.355  0.2228 -0.3271  0.5628
   28MOL    C9810412   2.309   7.000   2.392  0.5191 -0.0864  0.2186
   28MOL    C9910413   2.183   7.071   2.341  0.5249 -0.0499  0.0349
   28MOL   O10010414   2.100   7.007   2.279  0.2835  0.7933  0.1648
   28MOL   N10110415   2.173   7.207   2.342  0.3407 -0.6037 -0.1945
   28MOL   C10210416   2.058   7.287   2.297 -0.1282 -0.2665  0.4261
   28MOL   C10310417   1.987   7.368   2.417 -0.2205  0.4816 -0.1233
   28MOL   C10410418   2.104   7.390   2.193  0.0848  0.2394 -0.6430
   28MOL   H10510419   2.426   7.107   2.250 -1.7277  0.5964  0.9382
   28MOL   H10610420   2.439   7.180   2.403  0.1286 -0.3284  0.5732
   28MOL   H10710421   2.319   6.914   2.327 -2.5520  0.0787 -0.5453
   28MOL   H10810422   2.248   7.261   2.383 -0.6269  1.1291 -0.6715
   28MOL   H10910423   1.985   7.222   2.248 -1.2191  0.4258  1.1010
   28MOL   H11010424   2.041   7.454   2.456  3.1910 -0.7515 -1.8327
   28MOL   H11110425   1.888   7.393   2.381 -0.8442 -0.6414  0.7810
   28MOL   H11210426   1.980   7.295   2.497 -0.3866 -1.3698 -1.7657
   28MOL   H11310427   2.182   7.355   2.125  1.2925 -1.3862  1.5127
   28MOL   H11410428   2.128   7.492   2.223 -0.0560  0.0724  0.0603
   28MOL   H11510429   2.016   7.410   2.131 -0.5013  0.4753  0.2546
   28MOL   C11610430   2.300   6.955   2.543  0.2908  0.0989 -0.1633
   28MOL   C11710431   2.169   6.881   2.581 -0.9643  0.0106  0.8307
   28MOL   C11810432   2.147   6.859   2.730 -0.1290 -0.4999 -0.2572
   28MOL   O11910433   2.244   6.851   2.806  0.3943  0.2661  0.3477
   28MOL   N12010434   2.018   6.861   2.777 -0.6964  0.3644  0.3359
   28MOL   C12110435   1.985   6.826   2.916  0.6003  0.2117  1.1400
   28MOL   C12210436   2.022   6.932   3.010  0.3044 -0.4422 -0.2760
   28MOL   C12310437   1.839   6.789   2.928 -0.0849 -0.0726 -0.6564
   28MOL   H12410438   2.313   7.035   2.617  1.6521 -0.2440 -0.0227
   28MOL   H12510439   2.384   6.892   2.569  0.4644  0.3469 -0.1217
   28MOL   H12610440   2.090   6.952   2.554  0.5618  0.9688 -1.2620
   28MOL   H12710441   1.941   6.871   2.713 -1.3059 -0.3748  0.9527
   28MOL   H12810442   2.026   6.729   2.944  0.9644 -0.2841 -1.0348
   28MOL   H12910443   1.965   7.018   2.975 -0.4271 -0.3440  1.1167
   28MOL   H13010444   2.128   6.958   3.008  0.3326 -0.4880  0.4021
   28MOL   H13110445   1.997   6.917   3.115 -0.8710 -0.3733 -0.5409
   28MOL   H13210446   1.809   6.702   2.870 -0.1290 -0.6711  0.2699
   28MOL   H13310447   1.798   6.762   3.025 -0.4768 -2.5327 -1.4872
   28MOL   H13410448   1.788   6.881   2.899  0.8110  1.2550  1.8501
   28MOL   C13510449   2.151   6.747   2.498  0.0693 -0.0773  0.8525
   28MOL   C13610450   2.001   6.723   2.441  0.0345  0.3234 -0.5209
   28MOL   C13710451   2.005   6.658   2.303  0.0838  0.1890 -0.0029
   28MOL   O13810452   2.046   6.546   2.276 -0.2551  0.0483 -0.1131
   28MOL   N13910453   1.940   6.730   2.216  0.0726  0.0426  0.4101
   28MOL   C14010454   1.866   6.686   2.097  0.0359 -0.5017  0.0493
   28MOL   C14110455   1.955   6.697   1.969  0.3953  0.4837 -0.6343
   28MOL   C14210456   1.734   6.753   2.079 -0.1546  0.5282 -0.5361
   28MOL   H14310457   2.184   6.661   2.556  0.6443 -1.1878 -1.0841
   28MOL   H14410458   2.229   6.746   2.422  0.7619 -0.1132  1.5578
   28MOL   H14510459   1.969   6.826   2.425 -0.8583  0.0986 -0.1739
   28MOL   H14610460   1.934   6.828   2.239  1.5308 -0.0654  1.2459
   28MOL   H14710461   1.846   6.580   2.113  0.6641 -0.9219 -1.7430
   28MOL   H14810462   2.052   6.648   1.978 -0.1385 -0.2538  1.2556
   28MOL   H14910463   1.908   6.662   1.877  0.0055  1.8959 -0.9746
   28MOL   H15010464   1.981   6.801   1.949 -0.1202  0.4259 -1.6545
   28MOL   H15110465   1.683   6.707   1.994 -1.4409  0.8756  0.0277
   28MOL   H15210466   1.761   6.858   2.064  0.3756  0.2440 -1.5813
   28MOL   H15310467   1.669   6.752   2.167  1.0830  1.5556  0.4139
   28MOL   C15410468   1.911   6.632   2.534  0.6326 -0.6375 -1.1856
   28MOL   C15510469   1.763   6.631   2.511 -0.6209 -0.6507  0.2675
   28MOL   C15610470   1.708   6.773   2.526 -1.0024  0.4132  0.1404
   28MOL   O15710471   1.692   6.814   2.639 -0.3414 -0.2621  0.3192
   28MOL   N15810472   1.675   6.842   2.415 -0.7732 -0.0692 -0.1052
   28MOL   C15910473   1.654   6.983   2.412 -0.3412 -0.5290  0.3900
   28MOL   C16010474   1.581   7.024   2.285  0.5196 -0.3213 -0.6689
   28MOL   C16110475   1.780   7.063   2.430 -0.1950 -0.0684  0.2388
   28MOL   H16210476   1.933   6.670   2.634 -2.3835  0.8860 -1.0293
   28MOL   H16310477   1.943   6.528   2.526 -1.7269 -1.8616  3.2212
   28MOL   H16410478   1.750   6.602   2.407 -0.4727  2.2257 -0.6093
   28MOL   H16510479   1.668   6.791   2.328  0.5881  2.1002 -1.5324
   28MOL   H16610480   1.592   7.017   2.495 -0.7287  1.3449 -0.6407
   28MOL   H16710481   1.489   6.972   2.258 -0.8443  0.2168  2.6503
   28MOL   H16810482   1.548   7.128   2.286  0.3382 -0.3827 -0.0944
   28MOL   H16910483   1.650   7.026   2.201 -0.8205 -1.6768 -1.8284
   28MOL   H17010484   1.819   7.040   2.529  1.8996  0.2330 -0.4770
   28MOL   H17110485   1.773   7.171   2.419 -1.8912 -0.2011 -0.0054
   28MOL   H17210486   1.852   7.044   2.350  1.1670  4.8724  0.1507
   28MOL   C17310487   1.695   6.533   2.609  0.3687  0.0630  0.4573
   28MOL   C17410488   1.554   6.486   2.573 -0.1508  0.2097  0.5616
   28MOL   C17510489   1.538   6.463   2.423  0.3527  0.0160 -0.0097
   28MOL   O17610490   1.455   6.537   2.365  0.5133 -0.1758 -0.1904
   28MOL   N17710491   1.601   6.358   2.366  0.6588 -0.4012  0.1822
   28MOL   C17810492   1.573   6.304   2.236 -0.3129 -0.0409 -0.2942
   28MOL   C17910493   1.589   6.153   2.234 -0.9924  0.5238  0.7113
   28MOL   C18010494   1.665   6.373   2.134 -0.1945  0.6116 -0.0679
   28MOL   H18110495   1.687   6.588   2.703  1.5845 -0.6580  0.9956
   28MOL   H18210496   1.754   6.442   2.621  0.6950  0.1202 -0.6583
   28MOL   H18310497   1.486   6.570   2.589 -0.7098  0.1588 -1.3857
   28MOL   H18410498   1.668   6.302   2.416 -0.9126 -0.7890  1.9071
   28MOL   H18510499   1.474   6.330   2.197 -1.1079 -1.6010  0.6317
   28MOL   H18610500   1.586   6.129   2.340  0.2009 -0.2049  0.5790
   28MOL   H18710501   1.690   6.121   2.210 -0.4675  1.7305  1.2469
   28MOL   H18810502   1.520   6.095   2.171  0.5778 -0.9367  0.3109
   28MOL   H18910503   1.771   6.364   2.157 -0.3817  1.4215  1.1347
   28MOL   H19010504   1.639   6.478   2.145 -0.2053  0.4847  1.1459
   28MOL   H19110505   1.659   6.336   2.032 -0.7216  1.3209 -0.2949
   28MOL   C19210506   1.509   6.363   2.657  0.6175  0.4380  0.5527
   28MOL   C19310507   1.422   6.399   2.781 -0.3796  0.6832 -0.2129
   28MOL   C19410508   1.489   6.515   2.857  0.0120  0.5776 -0.2161
   28MOL   O19510509   1.597   6.491   2.917 -0.7395 -0.5948  0.1858
   28MOL   N19610510   1.431   6.631   2.869  0.9056  0.3789  0.1696
   28MOL   C19710511   1.476   6.754   2.935 -0.6814 -0.6796 -0.4867
   28MOL   C19810512   1.446   6.876   2.848 -0.2396 -0.2011 -0.3427
   28MOL   C19910513   1.414   6.758   3.073 -0.0817 -0.1315  0.0887
   28MOL   H20010514   1.596   6.301   2.677 -0.4097 -1.7809 -1.4369
   28MOL   H20110515   1.445   6.290   2.606 -3.7174  1.6430  3.9340
   28MOL   H20210516   1.319   6.423   2.753 -0.4866 -0.4308 -0.7623
   28MOL   H20310517   1.340   6.649   2.829  1.4567  3.2833  0.0810
   28MOL   H20410518   1.582   6.743   2.959 -0.6543 -1.7814 -1.0739
   28MOL   H20510519   1.512   6.958   2.878 -1.5106  0.7639 -0.1552
   28MOL   H20610520   1.345   6.908   2.874 -0.1259 -0.6930  0.6974
   28MOL   H20710521   1.467   6.864   2.742  2.4197 -1.7478  0.2974
   28MOL   H20810522   1.306   6.745   3.076 -0.3794  2.2642  4.9045
   28MOL   H20910523   1.460   6.845   3.120 -1.9356  1.2970 -0.6762
   28MOL   H21010524   1.451   6.679   3.138  0.9316  0.5104  0.3105
   28MOL   C21110525   1.420   6.269   2.863  0.4571  0.0161 -0.1242
   28MOL   C21210526   1.330   6.267   2.990  0.3419 -0.3771 -0.0254
   28MOL   C21310527   1.190   6.322   2.964  0.2429 -0.0771 -0.4508
   28MOL   O21410528   1.117   6.271   2.882  0.1038 -0.4958 -0.4696
   28MOL   N21510529   1.155   6.437   3.029  0.1725 -0.3158 -0.6063
   28MOL   C21610530   1.031   6.506   2.996 -0.1570 -0.0518  0.8317
   28MOL   C21710531   1.031   6.574   2.853  0.5897  0.0426 -0.8425
   28MOL   C21810532   0.984   6.597   3.114 -0.8319 -0.6028  0.1278
   28MOL   H21910533   1.521   6.252   2.900  0.3714  0.6680  0.4231
   28MOL   H22010534   1.393   6.184   2.800 -0.8877 -1.1703  1.9994
   28MOL   H22110535   1.377   6.338   3.059 -0.3293  0.9363 -0.9011
   28MOL   H22210536   1.217   6.493   3.086 -0.7403  0.2751 -0.1907
   28MOL   H22310537   0.949   6.435   2.987 -0.0713 -0.1042  0.4866
   28MOL   H22410538   1.098   6.525   2.783 -0.4796  0.2327 -2.0130
   28MOL   H22510539   0.932   6.563   2.809  1.0114 -1.0413 -1.5188
   28MOL   H22610540   1.063   6.679   2.857 -0.7887  0.4495  0.1812
   28MOL   H22710541   1.049   6.684   3.127 -0.4446 -0.9190  0.3329
   28MOL   H22810542   0.973   6.535   3.203 -2.0179  0.1047  0.4859
   28MOL   H22910543   0.888   6.628   3.073 -0.0135  0.3154 -1.1219
   28MOL   C23010544   1.320   6.134   3.062 -0.4128 -0.2515 -0.1518
   28MOL   C23110545   1.441   6.061   3.126  0.5092  0.2956 -0.2279
   28MOL   C23210546   1.510   5.961   3.037 -1.2201 -0.1213  0.1805
   28MOL   O23310547   1.574   5.870   3.092 -0.1034 -0.0709  0.2667
   28MOL   N23410548   1.498   5.969   2.906  0.1552  0.1889  0.0894
   28MOL   C23510549   1.543   5.863   2.819  0.2945 -0.1308  0.2926
   28MOL   C23610550   1.414   5.769   2.797 -0.1906 -0.3396  0.3866
   28MOL   C23710551   1.589   5.912   2.683  0.5379  0.0042 -0.3401
   28MOL   H23810552   1.267   6.073   2.989 -0.7646  0.3881 -0.4387
   28MOL   H23910553   1.243   6.141   3.139 -1.0893  0.9437 -0.9080
   28MOL   H24010554   1.391   5.998   3.200  0.1071  1.1625  0.2484
   28MOL   H24110555   1.447   6.048   2.869 -2.3014 -0.4497  1.9359
   28MOL   H24210556   1.622   5.802   2.862  0.6477  0.0362 -0.1054
   28MOL   H24310557   1.444   5.685   2.735 -0.8100 -0.0010 -0.3819
   28MOL   H24410558   1.385   5.718   2.889 -0.9945 -1.3572 -0.4278
   28MOL   H24510559   1.325   5.817   2.756  0.2747  1.1078  1.0289
   28MOL   H24610560   1.695   5.937   2.691  0.1495  1.3021  1.0451
   28MOL   H24710561   1.539   5.998   2.639  0.9446  0.7357  0.6039
   28MOL   H24810562   1.580   5.829   2.613  1.4673 -0.0311 -0.4239
   28MOL   C24910563   1.539   6.149   3.202 -0.9711  0.4068  0.3065
   28MOL   C25010564   1.655   6.100   3.295  0.0684 -0.5886 -0.1714
   28MOL   C25110565   1.611   6.005   3.408  0.4389  0.6709 -0.6138
   28MOL   O25210566   1.592   6.039   3.525  0.9064 -0.1745  0.2462
   28MOL   N25310567   1.605   5.872   3.371 -0.3316  0.3662  0.2322
   28MOL   C25410568   1.555   5.760   3.458 -0.2611 -0.0162  0.0763
   28MOL   C25510569   1.473   5.669   3.364  0.3069  0.1463 -0.0569
   28MOL   C25610570   1.668   5.693   3.527 -0.3167  0.2901 -0.1165
   28MOL   H25710571   1.482   6.224   3.255  2.4964  2.8678  0.7658
   28MOL   H25810572   1.593   6.207   3.127  2.6532 -1.7613  1.1120
   28MOL   H25910573   1.719   6.038   3.232  1.0740 -2.2337  2.3857
   28MOL   H26010574   1.612   5.857   3.271  0.0341  1.4358  0.0881
   28MOL   H26110575   1.487   5.799   3.533  0.4852 -0.7040  1.1111
   28MOL   H26210576   1.383   5.719   3.330 -0.8497 -0.2306  2.3747
   28MOL   H26310577   1.525   5.644   3.272 -1.4200 -1.9080 -0.5103
   28MOL   H26410578   1.437   5.576   3.410 -0.1937 -0.4347 -1.5875
   28MOL   H26510579   1.742   5.672   3.450  0.3307  2.4748 -0.1257
   28MOL   H26610580   1.724   5.741   3.608  0.2672 -0.0381 -0.3212
   28MOL   H26710581   1.635   5.599   3.572 -0.1501  0.5335  0.5329
   28MOL   C26810582   1.755   6.212   3.333  0.3392  0.1246  0.5178
   28MOL   C26910583   1.880   6.181   3.412  0.5764  0.7813 -0.6234
   28MOL   C27010584   1.970   6.087   3.340  0.3467  0.9109 -0.6171
   28MOL   O27110585   2.046   6.129   3.251 -0.2362 -0.2190  0.9972
   28MOL   N27210586   1.955   5.958   3.374  0.4769  0.0184  0.3041
   28MOL   C27310587   2.032   5.856   3.299  0.3479  0.2885 -0.0543
   28MOL   C27410588   2.047   5.736   3.388  0.5111 -0.8377  0.8031
   28MOL   C27510589   1.959   5.827   3.169  0.2935  0.1644 -0.1262
   28MOL   H27610590   1.775   6.288   3.258  0.1350 -0.3634 -0.0311
   28MOL   H27710591   1.699   6.272   3.406  0.2395 -0.9891  1.3710
   28MOL   H27810592   1.837   6.132   3.499  0.4747 -0.2472 -1.2474
   28MOL   H27910593   1.874   5.950   3.434 -0.8105  2.5662 -1.0235
   28MOL   H28010594   2.132   5.898   3.293 -0.2033  2.2676  2.9795
   28MOL   H28110595   2.130   5.678   3.347 -1.3666 -3.0171 -0.0515
   28MOL   H28210596   2.076   5.771   3.488  0.9187  0.5029  0.2265
   28MOL   H28310597   1.959   5.672   3.385 -0.3471  0.3699  0.1332
   28MOL   H28410598   1.953   5.906   3.093 -1.0934 -2.2087 -2.5909
   28MOL   H28510599   2.002   5.739   3.123  0.6655  0.2870 -0.0100
   28MOL   H28610600   1.857   5.803   3.199  0.3488 -0.1448 -0.1913
   28MOL   C28710601   1.962   6.305   3.458  0.1122 -0.4889  1.0477
   28MOL   C28810602   2.040   6.290   3.591  0.9660  0.1432 -0.0018
   28MOL   C28910603   1.954   6.245   3.710  0.2189 -0.0476  0.2513
   28MOL   O29010604   1.851   6.308   3.722 -0.1810 -0.0476 -0.6960
   28MOL   N29110605   1.999   6.147   3.787 -0.5550  0.0958 -0.4393
   28MOL   C29210606   1.937   6.069   3.889  0.6891 -0.6088  0.4807
   28MOL   C29310607   1.866   5.953   3.821  0.0367 -0.5863 -0.5628
   28MOL   C29410608   2.039   6.024   4.000  0.4744  0.0741  0.0948
   28MOL   H29510609   2.040   6.325   3.386  0.6363 -4.6855  0.2856
   28MOL   H29610610   1.885   6.381   3.470 -0.7012 -1.4727  2.2326
   28MOL   H29710611   2.104   6.205   3.570  1.2040  0.5469 -0.9475
   28MOL   H29810612   2.084   6.098   3.762 -0.8646 -1.8521  2.0984
   28MOL   H29910613   1.870   6.135   3.943  0.8689  0.2912 -0.3763
   28MOL   H30010614   1.772   5.985   3.777 -0.8516 -1.3478  0.7286
   28MOL   H30110615   1.921   5.905   3.740 -0.8174  1.8327 -2.6345
   28MOL   H30210616   1.845   5.874   3.894  1.6410  0.9123  1.5914
   28MOL   H30310617   1.976   5.996   4.085  1.1202 -0.3048  0.4543
   28MOL   H30410618   2.094   5.941   3.955  1.8149  0.0698  1.6857
   28MOL   H30510619   2.097   6.112   4.028  0.3310  0.0119  0.6052
   28MOL   C30610620   2.128   6.411   3.624 -0.2828 -0.3890  0.1383
   28MOL   C30710621   2.065   6.560   3.638 -0.0101 -0.2063 -0.7688
   28MOL   C30810622   2.026   6.612   3.498  0.1177  0.1133 -0.3590
   28MOL   O30910623   2.113   6.633   3.416 -0.3258  0.6565  0.2280
   28MOL   N31010624   1.898   6.635   3.474  0.0025  0.0967  0.0183
   28MOL   C31110625   1.841   6.697   3.355  0.5843  0.4605  0.0040
   28MOL   C31210626   1.707   6.635   3.308 -0.2665  0.6336  0.1090
   28MOL   C31310627   1.813   6.843   3.379 -0.3401 -0.1459 -0.0103
   28MOL   H31410628   2.161   6.396   3.726 -1.3398  2.4952  0.9559
   28MOL   H31510629   2.215   6.418   3.558  0.1729  3.2693  0.9992
   28MOL   H31610630   1.978   6.555   3.703  1.5525 -0.1304  1.3890
   28MOL   H31710631   1.836   6.600   3.545 -0.0908 -2.7861 -1.3840
   28MOL   H31810632   1.917   6.688   3.277  2.1064  0.5340  1.4686
   28MOL   H31910633   1.630   6.671   3.376  0.0694  0.7471  0.4331
   28MOL   H32010634   1.698   6.527   3.317  0.5496  0.5017 -0.5579
   28MOL   H32110635   1.671   6.673   3.213 -1.2243  1.6666  0.8694
   28MOL   H32210636   1.902   6.906   3.379  0.0746 -0.7205  0.3370
   28MOL   H32310637   1.760   6.868   3.471 -1.1822  1.1953 -0.8543
   28MOL   H32410638   1.754   6.891   3.301  0.4927 -1.5731 -1.5593
   28MOL   C32510639   2.152   6.663   3.725  0.0800 -0.4069 -0.4483
   28MOL   C32610640   2.087   6.801   3.767  0.5510  0.5682  0.0857
   28MOL   C32710641   1.959   6.798   3.853  0.1935  0.4375  0.7956
   28MOL   O32810642   1.966   6.771   3.971 -0.0573 -0.6495 -0.6080
   28MOL   N32910643   1.842   6.834   3.797  0.7601 -0.1801 -0.2500
   28MOL   C33010644   1.711   6.795   3.847  0.1552 -0.0202  0.4855
   28MOL   C33110645   1.686   6.642   3.863  0.4579 -0.5833 -0.0603
   28MOL   C33210646   1.611   6.874   3.766 -0.3797 -0.1305 -0.6580
   28MOL   H33310647   2.249   6.669   3.675  0.4931 -1.8193  0.1607
   28MOL   H33410648   2.174   6.610   3.818  0.3668  2.5784  1.2498
   28MOL   H33510649   2.055   6.858   3.680  1.4809  0.1464 -0.5401
   28MOL   H33610650   1.855   6.879   3.708  2.0602 -1.2015 -0.5925
   28MOL   H33710651   1.704   6.832   3.949 -1.3275 -1.4915  0.9444
   28MOL   H33810652   1.579   6.621   3.855  0.1683  1.3885 -1.7962
   28MOL   H33910653   1.721   6.589   3.775  0.1428  0.3079 -0.7320
   28MOL   H34010654   1.742   6.600   3.947 -0.0157 -2.3115 -0.5980
   28MOL   H34110655   1.519   6.816   3.765 -1.0615  0.8399  1.8888
   28MOL   H34210656   1.639   6.892   3.662  1.7211  0.3435 -0.0157
   28MOL   H34310657   1.601   6.966   3.824 -0.7630 -0.0212 -0.8945
   28MOL   C34410658   2.203   6.891   3.818 -0.7889 -0.1352 -0.3491
   28MOL   C34510659   2.272   6.867   3.950  0.2368 -0.5275 -0.0775
   28MOL   C34610660   2.354   6.743   3.967  0.6043  0.5965 -0.0073
   28MOL   O34710661   2.441   6.709   3.883  0.5138 -0.0115  0.3894
   28MOL   N34810662   2.329   6.674   4.079 -0.3630  0.3126 -0.0936
   28MOL   C34910663   2.385   6.548   4.127  0.2832 -1.0729 -0.0509
   28MOL   C35010664   2.437   6.562   4.270  0.4451 -0.2133 -0.0468
   28MOL   C35110665   2.278   6.437   4.118  0.0629 -0.3173 -0.1529
   28MOL   H35210666   2.160   6.991   3.832  1.6589  0.9132 -0.0170
   28MOL   H35310667   2.271   6.899   3.733 -0.4069 -1.2261 -0.1430
   28MOL   H35410668   2.196   6.873   4.027  0.7868 -3.4440  0.7479
   28MOL   H35510669   2.254   6.714   4.134 -1.3121 -1.0935 -0.3639
   28MOL   H35610670   2.466   6.515   4.062 -1.3620 -3.1056 -1.1429
   28MOL   H35710671   2.457   6.473   4.331  2.6122  0.8168  0.7792
   28MOL   H35810672   2.529   6.620   4.263  1.0440 -0.9413  1.6125
   28MOL   H35910673   2.367   6.625   4.325 -1.1349 -2.6651  0.8527
   28MOL   H36010674   2.317   6.338   4.144 -0.8121 -0.7636 -0.5307
   28MOL   H36110675   2.199   6.470   4.185 -0.9720 -2.0951 -0.4752
   28MOL   H36210676   2.241   6.416   4.018 -0.1819 -1.2802  0.1322
   28MOL   C36310677   2.361   6.990   3.970 -0.6870  0.0420 -0.2687
   28MOL   C36410678   2.414   7.005   4.121  0.6211 -0.0033 -0.1824
   28MOL   C36510679   2.304   7.039   4.223  0.9106  1.0146 -0.6941
   28MOL   O36610680   2.249   6.938   4.274 -0.1550  0.2221  0.6205
   28MOL   N36710681   2.261   7.161   4.253 -0.3604  0.5911 -0.2709
   28MOL   C36810682   2.162   7.187   4.356 -0.3364 -0.2870 -0.0545
   28MOL   C36910683   2.210   7.156   4.502 -0.0419  0.2439  0.5064
   28MOL   C37010684   2.125   7.332   4.341  1.1512 -0.1403  0.3090
   28MOL   H37110685   2.319   7.088   3.950  1.8191  1.5489  1.6187
   28MOL   H37210686   2.452   6.982   3.910 -0.0289  1.8713  0.4548
   28MOL   H37310687   2.488   7.085   4.128  0.5808 -0.1212  1.9034
   28MOL   H37410688   2.307   7.227   4.193 -1.1335  1.1547 -0.2478
   28MOL   H37510689   2.068   7.133   4.341 -0.6468  0.1325  0.3373
   28MOL   H37610690   2.313   7.190   4.519 -0.7585  2.4911  0.6195
   28MOL   H37710691   2.151   7.185   4.589 -0.7347  1.8892 -0.4936
   28MOL   H37810692   2.236   7.051   4.513 -0.4291  0.1494  0.4910
   28MOL   H37910693   2.085   7.358   4.244  0.2002 -0.3921  0.6266
   28MOL   H38010694   2.044   7.344   4.414 -0.5138  0.4998 -1.6032
   28MOL   H38110695   2.216   7.388   4.362  3.3104 -3.3223 -0.1702
   28MOL   H38210696   2.466   6.919   4.162  0.3459  0.3848  1.0334
   29MOL     C110697   2.037   1.679   4.501 -0.6930  0.5574 -0.1782
   29MOL     C210698   2.154   1.615   4.578  0.2939 -0.7705 -0.2923
   29MOL     C310699   2.272   1.626   4.478  0.4028  0.3546  0.5577
   29MOL     O410700   2.304   1.732   4.419 -0.2270  0.3033  0.0625
   29MOL     N510701   2.333   1.514   4.457 -0.2635  0.3079  0.3481
   29MOL     C610702   2.423   1.486   4.346  0.0259  0.2733  0.7204
   29MOL     C710703   2.559   1.544   4.381 -0.1094 -0.3492 -0.0527
   29MOL     C810704   2.436   1.339   4.316 -0.1670  0.2410 -0.3957
   29MOL     H910705   1.945   1.659   4.555 -0.5604 -0.3085 -0.2726
   29MOL    H1010706   2.023   1.626   4.407 -0.4933  1.4537 -0.7230
   29MOL    H1110707   2.123   1.514   4.607  0.4331 -0.3720  1.3319
   29MOL    H1210708   2.316   1.443   4.526 -0.4479  1.4113  1.4590
   29MOL    H1310709   2.380   1.534   4.258  2.4391  1.6443  0.2402
   29MOL    H1410710   2.553   1.649   4.408 -1.4057 -0.5308  0.3992
   29MOL    H1510711   2.636   1.545   4.304  0.1177  3.0103  0.1337
   29MOL    H1610712   2.608   1.492   4.464 -0.6716 -0.5094  0.1799
   29MOL    H1710713   2.505   1.311   4.236 -2.0661  1.2077 -2.4249
   29MOL    H1810714   2.486   1.292   4.400  2.0348  0.0784 -1.7458
   29MOL    H1910715   2.345   1.282   4.301 -0.7138  0.7508  0.8815
   29MOL    H2010716   2.038   1.787   4.485  0.2568  0.3927 -1.3559
   29MOL    C2110717   2.188   1.696   4.703  0.2199  0.3098  0.4474
   29MOL    C2210718   2.267   1.628   4.817 -0.1626 -0.6205  0.0677
   29MOL    C2310719   2.191   1.649   4.954 -0.7583 -0.0622 -0.2118
   29MOL    O2410720   2.208   1.749   5.022 -0.4283  0.2668 -0.0789
   29MOL    N2510721   2.105   1.554   4.992  0.0655 -0.0676 -0.1589
   29MOL    C2610722   2.038   1.551   5.121 -0.0178 -0.0130 -0.5328
   29MOL    C2710723   2.066   1.418   5.199 -0.6352  0.7425  0.2792
   29MOL    C2810724   1.883   1.571   5.094 -0.2455 -0.1597 -0.0644
   29MOL    H2910725   2.095   1.736   4.744  0.2502  1.5543 -0.6597
   29MOL    H3010726   2.228   1.796   4.682 -0.2953  0.4670  0.2042
   29MOL    H3110727   2.271   1.521   4.795 -1.0629 -0.7914  0.7084
   29MOL    H3210728   2.086   1.480   4.926  1.8555  0.1617 -0.9551
   29MOL    H3310729   2.077   1.636   5.175 -0.2106 -0.6155  0.5691
   29MOL    H3410730   2.000   1.338   5.163  1.0465 -0.8903  0.7168
   29MOL    H3510731   2.051   1.437   5.306  0.6779 -0.0122  0.6011
   29MOL    H3610732   2.171   1.389   5.198 -0.4358  1.5198 -1.1942
   29MOL    H3710733   1.834   1.512   5.017 -1.6955  1.4286 -0.3691
   29MOL    H3810734   1.834   1.553   5.190 -0.7083 -1.6448 -0.5599
   29MOL    H3910735   1.858   1.673   5.068 -0.4956 -0.4981 -1.1776
   29MOL    C4010736   2.423   1.669   4.817  0.5283  0.0876 -0.1335
   29MOL    C4110737   2.519   1.580   4.895 -0.0417  0.1732  0.0890
   29MOL    C4210738   2.655   1.655   4.918 -0.3613  0.7309  0.6089
   29MOL    O4310739   2.745   1.657   4.833 -0.3766  0.2875  0.1072
   29MOL    N4410740   2.672   1.699   5.039 -0.1576 -0.1459 -0.3769
   29MOL    C4510741   2.804   1.759   5.077  0.5608 -0.3183 -0.6520
   29MOL    C4610742   2.768   1.850   5.200  0.4772  0.3951  0.2836
   29MOL    C4710743   2.900   1.655   5.125 -0.3844  0.2339 -0.4923
   29MOL    H4810744   2.433   1.772   4.852  0.4809 -0.4182  1.4186
   29MOL    H4910745   2.461   1.677   4.716 -0.8707  0.8080 -0.6212
   29MOL    H5010746   2.475   1.561   4.993  0.3386  0.6772  0.3608
   29MOL    H5110747   2.595   1.691   5.104 -0.2033  1.0567 -0.2657
   29MOL    H5210748   2.853   1.819   5.001 -0.5835  0.1303 -1.0493
   29MOL    H5310749   2.710   1.793   5.273 -1.3576 -1.7262 -2.7001
   29MOL    H5410750   2.704   1.929   5.159 -2.2081 -0.4869  2.5769
   29MOL    H5510751   2.848   1.901   5.252  0.9939 -2.2992  2.2312
   29MOL    H5610752   2.914   1.655   5.234  0.0250 -4.1456 -0.4492
   29MOL    H5710753   2.996   1.670   5.075  0.5336 -0.1452  1.0885
   29MOL    H5810754   2.871   1.553   5.099  0.0399 -0.4630  1.6074
   29MOL    C5910755   2.547   1.441   4.842  0.3101 -0.4006 -1.0058
   29MOL    C6010756   2.601   1.335   4.940 -0.2352  0.4760 -0.0878
   29MOL    C6110757   2.720   1.257   4.882  0.4096 -0.8350 -0.0939
   29MOL    O6210758   2.712   1.142   4.846  0.1643  0.2220  0.2550
   29MOL    N6310759   2.839   1.320   4.890 -0.4120  0.3118  0.3545
   29MOL    C6410760   2.970   1.253   4.874  0.2447 -0.2234 -0.1124
   29MOL    C6510761   3.006   1.245   4.727 -0.3516  0.4885  0.5236
   29MOL    C6610762   3.077   1.317   4.954  0.7390  0.5992  0.0019
   29MOL    H6710763   2.458   1.398   4.798 -2.0260  1.8668  1.3151
   29MOL    H6810764   2.610   1.440   4.753 -0.4908  1.6574 -1.6352
   29MOL    H6910765   2.659   1.385   5.018 -2.2087  0.3399  1.4995
   29MOL    H7010766   2.842   1.401   4.950  0.6526 -0.9364  2.0366
   29MOL    H7110767   2.960   1.157   4.923 -0.6944 -0.3201 -0.4832
   29MOL    H7210768   3.104   1.199   4.728 -0.5509 -0.1974 -3.3324
   29MOL    H7310769   2.947   1.185   4.657 -0.6803  1.5659 -0.1349
   29MOL    H7410770   3.029   1.340   4.679  1.4743 -0.6075 -0.8482
   29MOL    H7510771   3.040   1.342   5.054  0.3921  2.0910 -0.4763
   29MOL    H7610772   3.162   1.251   4.967  0.9916  0.8278 -0.4827
   29MOL    H7710773   3.107   1.408   4.901 -2.9217  1.3549 -0.9707
   29MOL    C7810774   2.488   1.255   5.009 -0.3093 -0.3453  0.2143
   29MOL    C7910775   2.403   1.171   4.911 -0.4159 -0.1018  0.3309
   29MOL    C8010776   2.409   1.020   4.954  0.6226 -0.5937 -0.8017
   29MOL    O8110777   2.310   0.975   5.011  0.1922 -0.0271 -0.2983
   29MOL    N8210778   2.521   0.947   4.933  0.3212  0.3424  0.0370
   29MOL    C8310779   2.543   0.810   4.980 -0.3381 -0.4720 -0.3670
   29MOL    C8410780   2.551   0.719   4.861  0.0119 -0.1145 -1.0100
   29MOL    C8510781   2.678   0.796   5.065 -0.5714 -0.1892 -0.4297
   29MOL    H8610782   2.422   1.329   5.054  1.7947 -0.0314  2.9029
   29MOL    H8710783   2.520   1.200   5.097 -0.2321  1.0100  1.0445
   29MOL    H8810784   2.453   1.177   4.814 -0.6714  0.1075  0.2128
   29MOL    H8910785   2.601   0.997   4.899 -0.2151  0.7495 -0.6298
   29MOL    H9010786   2.450   0.785   5.032 -1.0067  1.6156 -0.5206
   29MOL    H9110787   2.647   0.743   4.814 -0.6025  1.0910 -1.6630
   29MOL    H9210788   2.550   0.614   4.892 -0.1493  0.5316  1.2762
   29MOL    H9310789   2.466   0.741   4.797 -1.3053 -2.1672 -0.0032
   29MOL    H9410790   2.766   0.819   5.006  1.0297 -1.3306  1.4585
   29MOL    H9510791   2.692   0.697   5.108 -0.5761 -0.8162 -1.8394
   29MOL    H9610792   2.666   0.875   5.140  1.2161 -0.6151  0.3135
   29MOL    C9710793   2.256   1.228   4.901  0.0518 -0.1543  0.1099
   29MOL    C9810794   2.160   1.169   4.793 -0.1074  0.1374 -0.0668
   29MOL    C9910795   2.180   1.239   4.652 -0.7617  0.4049 -0.1801
   29MOL   O10010796   2.271   1.315   4.624 -0.2107 -0.0657 -0.1178
   29MOL   N10110797   2.092   1.205   4.565  0.2410 -0.3598  0.1351
   29MOL   C10210798   2.050   1.270   4.448  0.2621  0.0012  0.4392
   29MOL   C10310799   2.052   1.184   4.318 -0.2902  0.2283 -0.9321
   29MOL   C10410800   1.907   1.324   4.481  0.3150  0.3636 -0.5655
   29MOL   H10510801   2.264   1.336   4.906 -1.5957 -0.0310  0.3272
   29MOL   H10610802   2.209   1.209   4.998  0.4227  0.6671  0.4504
   29MOL   H10710803   2.191   1.066   4.782 -3.6415 -1.2505  1.9612
   29MOL   H10810804   2.033   1.128   4.595  0.2650 -0.9598 -1.3438
   29MOL   H10910805   2.118   1.353   4.429  1.0736 -0.6574  0.4757
   29MOL   H11010806   2.005   1.222   4.228  2.7112  1.6046 -1.9896
   29MOL   H11110807   2.156   1.162   4.294 -0.3882 -0.2335 -0.9388
   29MOL   H11210808   1.987   1.099   4.339 -0.9171  1.2867  1.6656
   29MOL   H11310809   1.920   1.397   4.560 -3.8842  0.1041  0.4937
   29MOL   H11410810   1.851   1.245   4.530  1.5271 -0.2628 -0.1819
   29MOL   H11510811   1.859   1.357   4.388  0.1794  1.8892  0.0271
   29MOL   C11610812   2.013   1.180   4.842 -0.6708  0.7187  0.1066
   29MOL   C11710813   1.979   1.075   4.945 -0.1734  0.1280  1.0185
   29MOL   C11810814   1.975   0.935   4.875 -0.2467 -0.3857  0.6512
   29MOL   O11910815   1.877   0.910   4.801 -0.2877  0.4893  1.0817
   29MOL   N12010816   2.076   0.846   4.902 -0.0950  0.4020 -0.1120
   29MOL   C12110817   2.063   0.704   4.882 -0.2460  0.2818  0.2211
   29MOL   C12210818   2.198   0.632   4.861 -0.6307  0.9097  0.0018
   29MOL   C12310819   1.981   0.633   4.991 -0.6820 -0.0325  0.1805
   29MOL   H12410820   1.932   1.186   4.769  0.8052 -1.2023 -1.7461
   29MOL   H12510821   2.006   1.280   4.884 -0.6940  0.0050  1.8458
   29MOL   H12610822   2.052   1.070   5.026 -1.3718 -1.9719  2.0221
   29MOL   H12710823   2.155   0.875   4.959 -0.4046 -0.3348  0.6981
   29MOL   H12810824   2.013   0.684   4.787 -0.9433  3.2232 -0.0935
   29MOL   H12910825   2.246   0.655   4.766 -1.4798 -1.1386 -0.9426
   29MOL   H13010826   2.179   0.527   4.881  0.4026  1.0348  1.8021
   29MOL   H13110827   2.268   0.654   4.942  0.2559  0.6684 -0.7005
   29MOL   H13210828   1.951   0.532   4.962  0.0059 -0.0831 -0.3694
   29MOL   H13310829   2.035   0.619   5.084  0.6670 -0.3396 -0.6323
   29MOL   H13410830   1.893   0.686   5.027 -0.3583  0.5714  0.0822
   29MOL   C13510831   1.842   1.101   5.011  0.2829 -0.1824  0.2516
   29MOL   C13610832   1.793   1.002   5.119 -0.0239 -0.0717 -0.3661
   29MOL   C13710833   1.891   0.997   5.242  0.3407  0.4007  0.4305
   29MOL   O13810834   1.957   1.095   5.287  0.1661  0.1354  0.2318
   29MOL   N13910835   1.897   0.881   5.303 -0.4525 -0.1638  0.5110
   29MOL   C14010836   1.964   0.850   5.431 -0.3803 -0.5593  0.1259
   29MOL   C14110837   2.111   0.825   5.406 -0.0170  0.1965 -0.0478
   29MOL   C14210838   1.896   0.732   5.501 -0.2999 -0.3967  0.0815
   29MOL   H14310839   1.779   1.104   4.922  1.8033  1.0042 -0.8106
   29MOL   H14410840   1.843   1.200   5.056 -1.0433  0.6610 -1.5355
   29MOL   H14510841   1.792   0.905   5.070 -1.5996 -0.9643  1.3944
   29MOL   H14610842   1.844   0.804   5.264 -1.6004  0.8466  0.0419
   29MOL   H14710843   1.963   0.931   5.503 -0.2260 -0.4837  0.0437
   29MOL   H14810844   2.136   0.732   5.354 -0.9545 -0.3855  0.5234
   29MOL   H14910845   2.149   0.910   5.350 -1.1247 -0.1819 -1.4033
   29MOL   H15010846   2.163   0.828   5.502  1.3181  0.4547 -0.7712
   29MOL   H15110847   1.791   0.755   5.518 -0.4735 -2.4027  1.9810
   29MOL   H15210848   1.934   0.720   5.602  1.1406  0.1493 -0.3850
   29MOL   H15310849   1.891   0.638   5.446  0.1818 -0.0120 -0.6224
   29MOL   C15410850   1.640   1.033   5.153  0.1319 -0.1891  0.3883
   29MOL   C15510851   1.563   0.941   5.244 -0.0675 -0.5717 -0.4892
   29MOL   C15610852   1.584   0.799   5.199 -0.0986  0.0786 -0.3755
   29MOL   O15710853   1.671   0.729   5.243 -0.4664 -0.3612  0.0104
   29MOL   N15810854   1.502   0.755   5.101  0.1391 -0.1805 -0.3729
   29MOL   C15910855   1.525   0.632   5.023  0.0323 -0.4651 -0.1995
   29MOL   C16010856   1.528   0.667   4.874 -0.2036 -0.2961  0.0057
   29MOL   C16110857   1.413   0.528   5.040  0.1123 -0.0928 -0.2323
   29MOL   H16210858   1.580   1.049   5.064  0.2201 -0.6830  0.2424
   29MOL   H16310859   1.633   1.129   5.205  0.7833  1.1889 -2.0240
   29MOL   H16410860   1.604   0.948   5.345  0.5973 -3.1575 -0.5372
   29MOL   H16510861   1.424   0.815   5.080 -0.0767  0.3186  1.7717
   29MOL   H16610862   1.618   0.582   5.049  0.3780  0.4949  0.4058
   29MOL   H16710863   1.626   0.714   4.873 -0.6654  0.6745 -0.6623
   29MOL   H16810864   1.522   0.588   4.800  1.3576 -2.0482  1.6831
   29MOL   H16910865   1.452   0.743   4.853  2.3252  2.3962  0.1279
   29MOL   H17010866   1.322   0.550   4.984 -0.0147  2.4581  0.9061
   29MOL   H17110867   1.380   0.511   5.143  0.2545 -2.2757 -0.5250
   29MOL   H17210868   1.468   0.441   5.003 -1.2997 -0.4046 -1.6425
   29MOL   C17310869   1.418   0.981   5.272 -0.0672 -0.8269  0.0833
   29MOL   C17410870   1.337   0.899   5.378 -0.2831  0.2849 -0.9109
   29MOL   C17510871   1.369   0.958   5.517  0.1169 -0.1446  0.3349
   29MOL   O17610872   1.322   1.071   5.546 -0.1890 -0.0524 -0.6316
   29MOL   N17710873   1.443   0.882   5.600  0.3750 -0.4064 -0.0775
   29MOL   C17810874   1.461   0.911   5.744  0.0732 -0.3740 -0.6724
   29MOL   C17910875   1.595   0.855   5.794  0.1673 -0.3635 -0.2812
   29MOL   C18010876   1.339   0.859   5.821  0.6306 -0.0362  0.0317
   29MOL   H18110877   1.356   0.998   5.185  1.1609  0.4244 -0.5731
   29MOL   H18210878   1.428   1.083   5.310  2.9086 -1.5314  1.3349
   29MOL   H18310879   1.366   0.795   5.387 -0.6803  0.2631  0.2916
   29MOL   H18410880   1.467   0.788   5.571 -1.0053 -0.6963 -0.2984
   29MOL   H18510881   1.480   1.018   5.749  0.8835 -0.5039 -0.8936
   29MOL   H18610882   1.597   0.746   5.792 -0.3259 -0.4665  2.4367
   29MOL   H18710883   1.617   0.884   5.896 -1.8670 -1.1171  0.4017
   29MOL   H18810884   1.676   0.899   5.737  1.1134 -1.1180  0.4668
   29MOL   H18910885   1.333   0.752   5.836  0.0926 -0.0922 -0.5598
   29MOL   H19010886   1.242   0.888   5.780 -0.2094 -2.8824 -0.0421
   29MOL   H19110887   1.331   0.917   5.913  0.8269  0.0849 -0.0272
   29MOL   C19210888   1.186   0.888   5.347  0.2377  0.1568 -0.0992
   29MOL   C19310889   1.154   0.790   5.229 -0.4396 -0.2126  0.7280
   29MOL   C19410890   1.159   0.861   5.088  0.0266  0.2262 -0.4333
   29MOL   O19510891   1.199   0.804   4.985 -0.4122  0.3522 -0.0940
   29MOL   N19610892   1.115   0.987   5.096  0.1489 -0.1749  0.2951
   29MOL   C19710893   1.101   1.072   4.982  0.5067 -0.8890 -0.1605
   29MOL   C19810894   0.956   1.100   4.951 -0.0731 -0.3006  0.7996
   29MOL   C19910895   1.177   1.196   5.005 -0.6661 -0.5142 -0.3454
   29MOL   H20010896   1.150   0.990   5.333  0.0004 -0.1970 -2.1256
   29MOL   H20110897   1.135   0.848   5.435  1.4542 -0.7966  0.1918
   29MOL   H20210898   1.239   0.721   5.227  3.0938  3.9494  0.5777
   29MOL   H20310899   1.064   1.018   5.178 -1.0029 -1.5476  0.1259
   29MOL   H20410900   1.147   1.028   4.893  0.8950  0.2825 -0.5404
   29MOL   H20510901   0.899   1.010   4.975  0.5102 -1.3404 -1.5686
   29MOL   H20610902   0.936   1.139   4.852 -1.7741 -0.5826  1.0167
   29MOL   H20710903   0.913   1.175   5.018 -0.0183 -1.6660  2.4177
   29MOL   H20810904   1.284   1.182   4.996 -0.6533  0.1064 -1.1825
   29MOL   H20910905   1.145   1.247   5.096 -0.1805  1.7702 -1.4172
   29MOL   H21010906   1.159   1.276   4.933 -2.4782 -1.6719 -1.2138
   29MOL   C21110907   1.036   0.693   5.261 -0.1023  0.5140 -0.0462
   29MOL   C21210908   0.889   0.755   5.259 -0.1146 -0.5725 -0.2914
   29MOL   C21310909   0.796   0.673   5.169 -0.3733  0.0839 -0.0387
   29MOL   O21410910   0.794   0.552   5.182 -0.4638 -0.0948  0.2389
   29MOL   N21510911   0.731   0.742   5.071 -0.3585 -0.3895  0.9213
   29MOL   C21610912   0.645   0.679   4.972 -0.5116 -0.2921 -0.6549
   29MOL   C21710913   0.722   0.675   4.836  0.4705 -0.2334 -0.1650
   29MOL   C21810914   0.508   0.748   4.962 -0.3207  0.5196  0.6157
   29MOL   H21910915   1.051   0.648   5.359  1.0826  0.1599 -0.3739
   29MOL   H22010916   1.044   0.615   5.186 -0.2865  0.2310  0.2302
   29MOL   H22110917   0.894   0.846   5.199  1.1948 -1.9191 -2.2865
   29MOL   H22210918   0.741   0.843   5.067 -0.0460 -0.4493 -0.0337
   29MOL   H22310919   0.622   0.576   5.000 -1.1087 -0.0406 -0.1911
   29MOL   H22410920   0.777   0.767   4.816  0.0321  0.5299  2.0948
   29MOL   H22510921   0.791   0.592   4.827  0.6075 -0.3612  1.8856
   29MOL   H22610922   0.648   0.670   4.755  0.0379  1.6443  0.0920
   29MOL   H22710923   0.511   0.853   4.932 -1.5747  0.5169  0.4191
   29MOL   H22810924   0.455   0.743   5.057 -1.1131 -2.0559  0.0701
   29MOL   H22910925   0.441   0.685   4.903  0.1621  1.8045 -1.3615
   29MOL   C23010926   0.831   0.791   5.392  0.1265 -0.1138  0.3350
   29MOL   C23110927   0.717   0.900   5.390 -0.0451 -0.3269 -0.0670
   29MOL   C23210928   0.642   0.904   5.528  0.0784  0.4512  0.3000
   29MOL   O23310929   0.694   0.954   5.627 -0.5668  0.2601  0.1274
   29MOL   N23410930   0.514   0.857   5.540  0.6435 -0.1168  0.1475
   29MOL   C23510931   0.418   0.908   5.634  0.2704 -0.0951 -0.7670
   29MOL   C23610932   0.327   1.011   5.556 -0.4708  0.7301 -0.5379
   29MOL   C23710933   0.345   0.802   5.709  0.4887 -0.0310  0.0515
   29MOL   H23810934   0.913   0.818   5.457 -0.6972 -1.5894  2.0453
   29MOL   H23910935   0.789   0.699   5.433 -0.7405  1.4105  2.9781
   29MOL   H24010936   0.638   0.860   5.326  0.9447 -0.4413 -1.2410
   29MOL   H24110937   0.479   0.802   5.463  0.5095  0.9746 -0.5722
   29MOL   H24210938   0.466   0.970   5.710  2.0172 -1.4357 -0.7403
   29MOL   H24310939   0.393   1.084   5.509  1.1139 -1.7064 -2.2207
   29MOL   H24410940   0.271   0.955   5.480  0.6037  1.0251 -1.5591
   29MOL   H24510941   0.257   1.060   5.624 -1.1223 -0.3655 -0.3989
   29MOL   H24610942   0.273   0.756   5.641  0.1792 -0.0972  0.4216
   29MOL   H24710943   0.299   0.846   5.797  1.5727  1.8331 -0.2907
   29MOL   H24810944   0.412   0.721   5.740 -1.6763 -2.1449 -0.6345
   29MOL   C24910945   0.771   1.042   5.344 -0.2112 -0.0562  0.5941
   29MOL   C25010946   0.658   1.142   5.314 -0.5186 -0.7082 -0.2536
   29MOL   C25110947   0.569   1.101   5.199  0.3842 -0.3054  0.6054
   29MOL   O25210948   0.619   1.031   5.105 -0.6545  0.0348  0.7671
   29MOL   N25310949   0.436   1.131   5.207  0.8221 -0.5697  0.0493
   29MOL   C25410950   0.342   1.118   5.097  0.4907 -1.0118  0.1583
   29MOL   C25510951   0.205   1.138   5.144 -0.5726 -0.8832  0.1036
   29MOL   C25610952   0.369   1.217   4.985 -0.0369  0.0227  0.0758
   29MOL   H25710953   0.831   1.039   5.253  0.0253 -0.8284  0.7708
   29MOL   H25810954   0.841   1.085   5.415  2.6443  2.2138 -3.4144
   29MOL   H25910955   0.605   1.143   5.409  1.0466  0.6664  0.6350
   29MOL   H26010956   0.412   1.191   5.285 -1.9771 -1.5758  0.0196
   29MOL   H26110957   0.359   1.021   5.050  1.2211 -1.4394  1.2986
   29MOL   H26210958   0.144   1.110   5.058 -0.5211 -1.2816  0.1998
   29MOL   H26310959   0.180   1.068   5.223  2.0759  1.5145  3.1859
   29MOL   H26410960   0.183   1.242   5.169  1.2546 -0.5980  0.5955
   29MOL   H26510961   0.370   1.319   5.022  0.3999 -0.6193  1.9252
   29MOL   H26610962   0.461   1.196   4.930 -0.0459 -1.2666  0.5248
   29MOL   H26710963   0.290   1.215   4.911 -1.6194  3.9006  1.5618
   29MOL   C26810964   0.711   1.283   5.277  0.3077 -0.2349  0.1233
   29MOL   C26910965   0.658   1.399   5.363 -0.6212 -0.4851 -0.5116
   29MOL   C27010966   0.510   1.417   5.370  0.3377 -0.0575 -0.3959
   29MOL   O27110967   0.443   1.325   5.426  0.2270  0.2435 -0.1283
   29MOL   N27210968   0.464   1.521   5.303  0.4853 -0.2360  0.6016
   29MOL   C27310969   0.329   1.567   5.289 -0.6114  0.5061 -0.5404
   29MOL   C27410970   0.280   1.616   5.422 -0.0019  0.3056  0.0728
   29MOL   C27510971   0.330   1.684   5.191  0.4161 -0.5721 -0.2175
   29MOL   H27610972   0.819   1.281   5.287  0.2929 -1.8508  0.1464
   29MOL   H27710973   0.688   1.309   5.174 -0.7385 -3.6208 -0.5955
   29MOL   H27810974   0.711   1.486   5.322 -0.8713  0.3759  0.9517
   29MOL   H27910975   0.529   1.568   5.243 -1.1507  0.3596 -0.7539
   29MOL   H28010976   0.269   1.481   5.259  1.0839 -1.3526  1.2032
   29MOL   H28110977   0.180   1.655   5.404  0.3922  2.8533  3.0356
   29MOL   H28210978   0.264   1.534   5.492  2.5539 -0.0342  0.2725
   29MOL   H28310979   0.341   1.695   5.464 -1.2934  1.3667 -0.0113
   29MOL   H28410980   0.231   1.723   5.169  0.8416  1.2135  0.9509
   29MOL   H28510981   0.393   1.766   5.224  1.0095 -2.0232  2.4107
   29MOL   H28610982   0.362   1.659   5.089 -1.6094  0.1971 -1.0694
   29MOL   C28710983   0.713   1.388   5.510 -0.5502 -0.2236  0.2100
   29MOL   C28810984   0.683   1.514   5.599  0.5704 -0.2263 -0.4869
   29MOL   C28910985   0.733   1.648   5.547  0.0222 -0.2601  0.5470
   29MOL   O29010986   0.839   1.657   5.482 -0.3560 -0.0766  0.2122
   29MOL   N29110987   0.662   1.758   5.579  0.9965  0.0744 -0.5393
   29MOL   C29210988   0.694   1.892   5.534  0.1236  0.0902 -0.0105
   29MOL   C29310989   0.624   1.921   5.401 -0.2230  0.4925  0.5717
   29MOL   C29410990   0.691   2.006   5.638 -0.5595  0.3528  0.1038
   29MOL   H29510991   0.675   1.297   5.558  0.0465 -0.9512 -0.6839
   29MOL   H29610992   0.822   1.383   5.514 -0.6044  0.2214  3.4451
   29MOL   H29710993   0.577   1.537   5.591  0.7854  0.7035 -0.8255
   29MOL   H29810994   0.580   1.738   5.634 -1.1714  3.1649 -2.4714
   29MOL   H29910995   0.802   1.893   5.522  0.3355 -0.2968  1.6360
   29MOL   H30010996   0.634   2.028   5.383 -0.9505  0.5239  0.3349
   29MOL   H30110997   0.668   1.867   5.317  1.5275  1.8770  0.5716
   29MOL   H30210998   0.518   1.900   5.415 -0.1779  0.8967  1.6210
   29MOL   H30310999   0.586   2.016   5.667 -1.2542 -1.5645 -1.5992
   29MOL   H30411000   0.748   1.977   5.726 -0.5198  0.0859 -0.0089
   29MOL   H30511001   0.732   2.092   5.586 -2.7722  0.2451 -1.9378
   29MOL   C30611002   0.691   1.495   5.754  0.2529 -0.4615  0.7278
   29MOL   C30711003   0.578   1.405   5.802 -0.0242 -0.5725 -1.5567
   29MOL   C30811004   0.441   1.469   5.789  0.4609  1.5787 -0.0017
   29MOL   O30911005   0.436   1.592   5.783 -0.2695  0.3357  0.4572
   29MOL   N31011006   0.337   1.387   5.771 -0.2488 -0.4222 -0.8067
   29MOL   C31111007   0.203   1.426   5.748  0.0335  0.2479  0.3896
   29MOL   C31211008   0.144   1.335   5.641  0.0527  0.1805 -0.1742
   29MOL   C31311009   0.126   1.425   5.880 -0.6275  1.0559 -0.3417
   29MOL   H31411010   0.792   1.459   5.772  1.2919  0.5291 -2.6106
   29MOL   H31511011   0.699   1.585   5.815  1.8669 -0.2474  0.2348
   29MOL   H31611012   0.578   1.317   5.738  0.6670 -2.2098  0.6492
   29MOL   H31711013   0.346   1.288   5.785  1.9663 -0.0096  1.0270
   29MOL   H31811014   0.203   1.533   5.727 -0.4406  0.0438 -0.6826
   29MOL   H31911015   0.195   1.328   5.545 -1.8816 -1.2312 -1.1277
   29MOL   H32011016   0.045   1.372   5.617 -0.2453  1.2040  2.4630
   29MOL   H32111017   0.133   1.231   5.673 -0.2534  0.2260 -0.1345
   29MOL   H32211018   0.090   1.325   5.903  0.1029  0.5882 -1.2027
   29MOL   H32311019   0.045   1.498   5.875 -1.8961 -0.3883 -1.0610
   29MOL   H32411020   0.189   1.469   5.958 -0.5253  0.1416  0.0921
   29MOL   C32511021   0.606   1.371   5.952 -0.2846  0.1467 -0.2336
   29MOL   C32611022   0.601   1.223   6.007  0.4504 -0.1140  0.0224
   29MOL   C32711023   0.457   1.165   5.984  0.8211  0.2719  0.0690
   29MOL   O32811024   0.415   1.144   5.873  0.0319  0.1889  0.5579
   29MOL   N32911025   0.383   1.143   6.093  0.2775 -0.1453  0.1570
   29MOL   C33011026   0.249   1.088   6.086  0.0914  0.8761  0.0276
   29MOL   C33111027   0.162   1.137   6.201  0.4030 -0.1689 -0.0737
   29MOL   C33211028   0.261   0.939   6.097  0.8492 -0.4674 -0.2644
   29MOL   H33311029   0.544   1.429   6.021 -3.9836 -2.1685 -1.4917
   29MOL   H33411030   0.706   1.407   5.975  0.4490 -0.9682 -1.6002
   29MOL   H33511031   0.606   1.242   6.114  0.1718 -0.4701  0.1019
   29MOL   H33611032   0.405   1.166   6.189  0.8682  1.1830 -0.2735
   29MOL   H33711033   0.200   1.114   5.991 -0.4372 -1.4103 -0.3614
   29MOL   H33811034   0.207   1.113   6.298  0.6174 -1.8236 -0.5684
   29MOL   H33911035   0.144   1.244   6.189 -1.1141 -0.5081 -0.8996
   29MOL   H34011036   0.061   1.097   6.208  0.9913 -1.8757 -1.0565
   29MOL   H34111037   0.165   0.890   6.081  0.8325 -0.3148 -0.6332
   29MOL   H34211038   0.287   0.903   6.196 -0.9960  1.6878  1.0827
   29MOL   H34311039   0.323   0.906   6.014 -2.1163  0.8274 -3.1379
   29MOL   C34411040   0.715   1.138   5.947 -0.1510  0.1135 -0.7342
   29MOL   C34511041   0.772   1.032   6.047  0.2433  0.1432 -0.2542
   29MOL   C34611042   0.877   1.089   6.144  0.2439  0.4337  0.0197
   29MOL   O34711043   0.903   1.208   6.156  0.5264 -0.2098  0.1916
   29MOL   N34811044   0.945   0.998   6.222  0.0287 -0.3991 -0.5870
   29MOL   C34911045   1.058   1.022   6.316  0.0097 -0.9490  0.3412
   29MOL   C35011046   1.036   0.933   6.440  0.0648 -0.3834  0.3719
   29MOL   C35111047   1.185   0.967   6.254 -0.2221 -0.6856 -0.0294
   29MOL   H35211048   0.799   1.200   5.915  0.8413 -1.2354 -0.7672
   29MOL   H35311049   0.677   1.098   5.853  2.6769 -1.2035 -1.3515
   29MOL   H35411050   0.833   0.977   5.976  1.0332  1.2990 -0.4821
   29MOL   H35511051   0.903   0.907   6.215  1.7656 -1.2884  0.2606
   29MOL   H35611052   1.062   1.126   6.348 -1.8944 -0.8390  0.3177
   29MOL   H35711053   0.933   0.937   6.476  0.3512  0.9213  1.0383
   29MOL   H35811054   1.056   0.830   6.408 -1.0937 -0.4334 -0.2390
   29MOL   H35911055   1.097   0.961   6.526  0.6132 -1.9039  0.4958
   29MOL   H36011056   1.265   0.973   6.328  1.2656  0.0183 -1.6677
   29MOL   H36111057   1.191   0.862   6.224  1.0445 -0.7826  0.5221
   29MOL   H36211058   1.218   1.031   6.172  0.9009  0.1606  1.0634
   29MOL   C36311059   0.671   0.944   6.129 -0.2650 -0.1119 -0.1174
   29MOL   C36411060   0.591   0.853   6.029  0.8084  1.3091 -0.1867
   29MOL   C36511061   0.676   0.737   5.982 -0.2995  0.3659 -0.2040
   29MOL   O36611062   0.684   0.633   6.050 -0.1205 -0.1052  0.1237
   29MOL   N36711063   0.749   0.756   5.873  1.1592 -0.3119  0.6512
   29MOL   C36811064   0.861   0.676   5.824 -0.0360  0.4954 -0.5527
   29MOL   C36911065   0.819   0.567   5.725 -0.0744 -0.6643 -0.4906
   29MOL   C37011066   0.974   0.758   5.773 -0.8565  0.0966  0.1504
   29MOL   H37111067   0.615   1.018   6.187 -1.9639  0.3201 -2.2637
   29MOL   H37211068   0.717   0.885   6.209 -2.0340 -1.0424  0.2470
   29MOL   H37311069   0.549   0.909   5.945  0.1333  0.2305 -0.5811
   29MOL   H37411070   0.745   0.842   5.819  0.9984 -0.6703  0.0856
   29MOL   H37511071   0.903   0.617   5.906 -1.6038 -0.1596 -0.2078
   29MOL   H37611072   0.744   0.500   5.767 -0.0014  0.3551  1.2975
   29MOL   H37711073   0.767   0.613   5.641  0.7681 -0.2180 -0.7657
   29MOL   H37811074   0.907   0.511   5.693  0.1874  0.8598 -2.5467
   29MOL   H37911075   1.057   0.715   5.717 -2.0353 -2.2007  0.1396
   29MOL   H38011076   0.938   0.843   5.715  0.0594  0.9503  0.8086
   29MOL   H38111077   1.027   0.805   5.856  0.2114  0.1048 -0.5162
   29MOL   H38211078   0.499   0.826   6.080 -0.4350  1.2470 -2.3798
   30MOL     C111079   7.807   4.016   3.863 -0.0368 -0.2431 -0.3110
   30MOL     C211080   7.703   3.911   3.817  0.7769 -0.3395  0.0312
   30MOL     C311081   7.729   3.865   3.671  0.0097  0.3727 -0.3110
   30MOL     O411082   0.004   3.876   3.622  0.1522  0.3710 -0.0185
   30MOL     N511083   7.622   3.828   3.599 -0.2723 -0.2983  0.0254
   30MOL     C611084   7.615   3.803   3.453 -0.0630 -0.0178  0.0887
   30MOL     C711085   7.673   3.657   3.426  0.4669 -0.9469  0.1803
   30MOL     C811086   7.466   3.806   3.410 -0.5678 -1.0064 -0.1891
   30MOL     H911087   0.066   3.975   3.895 -0.4245 -0.9366 -0.0313
   30MOL    H1011088   7.776   4.065   3.955  2.4836 -0.1620  0.5062
   30MOL    H1111089   7.608   3.964   3.825  0.4259 -0.4334 -3.0533
   30MOL    H1211090   7.533   3.844   3.644  0.7838  4.2398  0.8452
   30MOL    H1311091   7.678   3.874   3.401 -0.0712 -0.6153 -0.7488
   30MOL    H1411092   7.773   3.640   3.465  1.1799 -0.7657 -1.5646
   30MOL    H1511093   7.687   3.645   3.319 -2.8062 -0.8981 -0.3027
   30MOL    H1611094   7.617   3.567   3.450 -0.1304 -0.2010  1.7158
   30MOL    H1711095   7.419   3.714   3.446  0.7073 -0.8386  2.0270
   30MOL    H1811096   7.418   3.895   3.450 -0.6030 -2.0144  2.1206
   30MOL    H1911097   7.452   3.804   3.302  0.8484 -0.9511 -0.3714
   30MOL    H2011098   7.823   4.107   3.805  1.3022 -0.0493  0.3618
   30MOL    C2111099   7.707   3.787   3.909 -0.7530  0.5313  0.0288
   30MOL    C2211100   7.569   3.715   3.930  0.1093  0.2413  0.0506
   30MOL    C2311101   7.548   3.696   4.081  0.0099  0.3451 -0.7564
   30MOL    O2411102   7.562   3.585   4.131 -0.7499 -0.3074  0.2677
   30MOL    N2511103   7.524   3.803   4.159  0.1613  0.5155  0.2829
   30MOL    C2611104   7.543   3.807   4.305 -0.1101  0.0197  0.4783
   30MOL    C2711105   7.458   3.923   4.352 -0.6426  1.1568 -0.3307
   30MOL    C2811106   7.687   3.819   4.330  0.0190  0.4225  0.1224
   30MOL    H2911107   7.751   3.810   4.005 -0.3970  2.3787 -0.5663
   30MOL    H3011108   7.778   3.717   3.865 -0.4880  1.3570 -0.8739
   30MOL    H3111109   7.482   3.775   3.903  0.0252  0.4130  0.6816
   30MOL    H3211110   7.528   3.890   4.107 -4.6961  0.2835 -0.6903
   30MOL    H3311111   7.500   3.712   4.335  2.0448 -0.7985  1.0749
   30MOL    H3411112   7.423   3.897   4.452  0.2540 -0.2928 -0.3659
   30MOL    H3511113   7.372   3.942   4.288 -0.8921 -1.1941 -0.7732
   30MOL    H3611114   7.515   4.013   4.371 -0.6591  0.9130  0.9047
   30MOL    H3711115   7.744   3.750   4.268  2.0032  3.1091 -1.2055
   30MOL    H3811116   7.722   3.915   4.292  1.7737 -0.7963 -1.4390
   30MOL    H3911117   7.712   3.817   4.436 -0.9714 -0.9187  0.3331
   30MOL    C4011118   7.564   3.579   3.851  0.2717  0.1864 -0.0793
   30MOL    C4111119   7.426   3.500   3.855  0.2909  0.0438 -0.3586
   30MOL    C4211120   7.465   3.351   3.854  0.2735 -0.4418 -0.8378
   30MOL    O4311121   7.447   3.284   3.755 -0.0680  0.0869  0.2336
   30MOL    N4411122   7.497   3.298   3.972  0.5131  0.6572 -0.0517
   30MOL    C4511123   7.528   3.159   4.006 -0.3860 -0.1245  0.1169
   30MOL    C4611124   7.645   3.165   4.102 -1.0498  0.7071  0.1844
   30MOL    C4711125   7.399   3.111   4.077  0.0400  0.0508  0.5309
   30MOL    H4811126   7.646   3.519   3.891  0.7655  0.0185 -1.3016
   30MOL    H4911127   7.592   3.611   3.750 -0.6434  2.9844  0.5047
   30MOL    H5011128   7.383   3.520   3.953 -2.0738  1.9760 -1.7338
   30MOL    H5111129   7.513   3.368   4.044 -0.1770 -0.7368  1.4873
   30MOL    H5211130   7.534   3.092   3.920 -0.0125  0.0213  0.0291
   30MOL    H5311131   7.685   3.065   4.119  0.8362  0.6576 -3.9115
   30MOL    H5411132   7.619   3.226   4.188  0.9315  1.5479  0.2241
   30MOL    H5511133   7.735   3.204   4.055  0.5077 -1.6262  1.1172
   30MOL    H5611134   7.317   3.091   4.007 -1.1192 -1.1591  2.1909
   30MOL    H5711135   7.358   3.187   4.143 -1.6839 -0.6135  0.2586
   30MOL    H5811136   7.422   3.022   4.136  0.1756  1.2260  2.2778
   30MOL    C5911137   7.337   3.539   3.738 -0.4714  0.1676  0.5723
   30MOL    C6011138   7.187   3.483   3.722 -0.7063 -0.7909  0.5190
   30MOL    C6111139   7.124   3.519   3.583 -0.3702  0.7233  0.0948
   30MOL    O6211140   7.172   3.614   3.519  0.3774 -0.4999 -0.3002
   30MOL    N6311141   7.027   3.439   3.535 -0.0743 -0.5441 -0.7020
   30MOL    C6411142   6.951   3.453   3.413 -0.4093 -0.0310 -0.4647
   30MOL    C6511143   7.003   3.346   3.309  0.0869  0.3039  0.7885
   30MOL    C6611144   6.802   3.446   3.450 -0.5153 -0.2897 -0.5539
   30MOL    H6711145   7.351   3.646   3.725  0.0899  0.0885  0.5087
   30MOL    H6811146   7.396   3.527   3.647  0.3643 -1.6688  1.3216
   30MOL    H6911147   7.188   3.375   3.736 -0.9980 -0.4559  3.4326
   30MOL    H7011148   6.987   3.366   3.592  2.0567  0.4895  2.2218
   30MOL    H7111149   6.964   3.554   3.374 -2.9904  0.3043 -0.5739
   30MOL    H7211150   6.954   3.362   3.213 -0.5487  0.9417  1.2114
   30MOL    H7311151   7.110   3.361   3.293 -0.1912 -0.5235 -1.9885
   30MOL    H7411152   6.982   3.245   3.344 -0.4210  0.1340 -0.0048
   30MOL    H7511153   6.762   3.524   3.513 -0.4543 -0.5216 -0.2275
   30MOL    H7611154   6.734   3.445   3.365  1.6936  1.5736 -2.3961
   30MOL    H7711155   6.784   3.349   3.498 -0.7358  0.8307  1.6634
   30MOL    C7811156   7.094   3.526   3.836 -0.1413  0.1063 -0.5523
   30MOL    C7911157   7.060   3.672   3.833  0.4420  0.3498  0.2557
   30MOL    C8011158   6.915   3.703   3.779  0.9371  0.5580 -0.3663
   30MOL    O8111159   6.814   3.637   3.811  0.2098 -0.0519 -0.3224
   30MOL    N8211160   6.896   3.805   3.689 -0.1374 -0.6220  0.0831
   30MOL    C8311161   6.765   3.856   3.650 -0.3078 -0.0678 -0.8716
   30MOL    C8411162   6.761   4.006   3.701  0.5028 -0.3178  0.1900
   30MOL    C8511163   6.746   3.857   3.493 -0.0492  0.0506  0.0607
   30MOL    H8611164   7.138   3.486   3.928 -0.2105  0.4421 -0.3717
   30MOL    H8711165   7.005   3.466   3.817 -0.5261 -0.1323  1.8652
   30MOL    H8811166   7.124   3.726   3.764 -0.0656 -1.2997 -1.5461
   30MOL    H8911167   6.977   3.842   3.642 -1.0365  0.4392 -0.6467
   30MOL    H9011168   6.685   3.801   3.699  1.3357 -0.5356  1.3720
   30MOL    H9111169   6.662   4.050   3.687  1.0653  0.7991 -0.2737
   30MOL    H9211170   6.768   4.011   3.810  0.6630  0.1777  0.1566
   30MOL    H9311171   6.829   4.076   3.654 -0.4209 -0.4494 -1.3716
   30MOL    H9411172   6.817   3.927   3.451 -1.0136  0.6105 -0.6466
   30MOL    H9511173   6.645   3.894   3.473  0.1479  1.2425  1.1933
   30MOL    H9611174   6.746   3.754   3.455 -1.3315  0.0436  0.0418
   30MOL    C9711175   7.078   3.729   3.978 -0.2568  0.0246  0.3733
   30MOL    C9811176   7.067   3.880   3.991  0.2570 -0.1483  1.0424
   30MOL    C9911177   7.184   3.943   3.909  0.1293 -1.2850  0.6190
   30MOL   O10011178   7.303   3.919   3.924  0.1895 -0.3502  0.2288
   30MOL   N10111179   7.150   4.032   3.810  0.3955 -0.3031  0.0050
   30MOL   C10211180   7.250   4.120   3.759 -0.5565 -0.0741 -0.7508
   30MOL   C10311181   7.187   4.189   3.633 -0.0668  0.4663  0.2123
   30MOL   C10411182   7.283   4.235   3.857  0.4510  0.5393  0.0549
   30MOL   H10511183   7.176   3.707   4.020 -0.7046  0.3684  1.6248
   30MOL   H10611184   7.000   3.682   4.037  0.0979 -2.6628 -1.2294
   30MOL   H10711185   6.977   3.918   3.943  2.0325  1.6352 -1.0281
   30MOL   H10811186   7.055   4.066   3.801  0.1750 -1.0621 -0.6754
   30MOL   H10911187   7.343   4.078   3.721 -1.7798 -2.1007 -1.5849
   30MOL   H11011188   7.092   4.229   3.667  0.3329 -1.0237  3.3167
   30MOL   H11111189   7.249   4.271   3.598  1.3836  0.2540  2.1673
   30MOL   H11211190   7.170   4.122   3.549  1.8707 -1.8315  1.5776
   30MOL   H11311191   7.355   4.197   3.929  0.2555  1.3754  0.7059
   30MOL   H11411192   7.196   4.262   3.917  0.4978 -1.4137  1.0194
   30MOL   H11511193   7.313   4.329   3.809  0.0064  0.4841 -0.3288
   30MOL   C11611194   7.076   3.928   4.135  0.1400  0.0581  0.6999
   30MOL   C11711195   7.041   4.081   4.140  0.4107  0.1728 -1.4192
   30MOL   C11811196   7.129   4.152   4.250  0.0834  0.0038 -0.7139
   30MOL   O11911197   7.094   4.177   4.366 -0.2605  0.4724 -0.4660
   30MOL   N12011198   7.249   4.198   4.200  0.2568 -0.2604  0.1406
   30MOL   C12111199   7.355   4.273   4.264 -0.0103 -0.3510 -0.4535
   30MOL   C12211200   7.469   4.286   4.161 -0.4991 -0.4635 -0.0239
   30MOL   C12311201   7.314   4.413   4.314  0.5774 -0.9460 -0.2868
   30MOL   H12411202   7.172   3.906   4.181  0.0748 -2.6874 -0.3636
   30MOL   H12511203   7.002   3.875   4.194 -0.1206 -0.0549  0.2726
   30MOL   H12611204   7.073   4.134   4.050 -2.3916  1.8885 -1.4732
   30MOL   H12711205   7.265   4.149   4.113  1.5563 -0.6098  0.5599
   30MOL   H12811206   7.385   4.209   4.346 -0.2213  0.3200  0.1556
   30MOL   H12911207   7.442   4.338   4.069  0.1980 -2.5386 -1.4321
   30MOL   H13011208   7.492   4.181   4.140  3.0092  0.0587  0.8885
   30MOL   H13111209   7.559   4.340   4.193  1.2626 -3.0135 -0.5214
   30MOL   H13211210   7.387   4.483   4.353  0.5938 -0.3665 -1.3401
   30MOL   H13311211   7.260   4.464   4.235 -1.0102 -0.6598  0.9555
   30MOL   H13411212   7.234   4.404   4.387  2.0352 -1.7923  1.2583
   30MOL   C13511213   6.893   4.118   4.161  0.8099  0.0016  0.1874
   30MOL   C13611214   6.854   4.268   4.151  0.6644  0.2278 -0.4968
   30MOL   C13711215   6.880   4.335   4.010  0.4180 -0.0727  0.1026
   30MOL   O13811216   6.878   4.267   3.905  0.2401 -0.1957  0.1047
   30MOL   N13911217   6.907   4.466   4.007 -0.5588 -0.8801 -0.4730
   30MOL   C14011218   6.901   4.553   3.891 -0.0329  0.7388  0.0689
   30MOL   C14111219   7.043   4.578   3.840  0.1739  0.4511  0.6179
   30MOL   C14211220   6.826   4.683   3.926  0.6185  0.4795 -0.2469
   30MOL   H14311221   6.860   4.078   4.257 -0.5534  3.1304  1.0960
   30MOL   H14411222   6.831   4.065   4.089  1.4687 -2.2363  1.2335
   30MOL   H14511223   6.911   4.310   4.234  0.1027 -1.2483  0.6526
   30MOL   H14611224   6.917   4.508   4.098  0.1655 -2.4971  0.2053
   30MOL   H14711225   6.851   4.505   3.807  1.1848 -0.9723  0.3101
   30MOL   H14811226   7.103   4.614   3.923  0.9639  0.2880  0.1266
   30MOL   H14911227   7.091   4.488   3.802 -0.4315  0.4286 -0.1089
   30MOL   H15011228   7.046   4.654   3.762 -0.5138 -0.2463 -0.0970
   30MOL   H15111229   6.893   4.728   3.999 -0.6864  1.6472  0.2463
   30MOL   H15211230   6.734   4.660   3.980  1.5480  1.3135  1.7385
   30MOL   H15311231   6.816   4.748   3.840  2.4246  0.2362 -0.6533
   30MOL   C15411232   6.707   4.290   4.192  0.3996  0.4421  0.0491
   30MOL   C15511233   6.648   4.245   4.322 -0.0447 -0.2963 -0.4330
   30MOL   C15611234   6.517   4.320   4.355  0.4715  1.0592 -0.6127
   30MOL   O15711235   6.483   4.416   4.296 -0.0096  0.8259  0.2918
   30MOL   N15811236   6.438   4.280   4.453 -0.3636  0.4458 -0.3141
   30MOL   C15911237   6.312   4.330   4.502 -0.1514  0.2050 -0.0301
   30MOL   C16011238   6.311   4.338   4.654 -0.3838 -0.8496 -0.0354
   30MOL   C16111239   6.197   4.246   4.446 -0.5510  0.5640 -0.1791
   30MOL   H16211240   6.653   4.230   4.118  0.9211 -0.3272  0.2799
   30MOL   H16311241   6.681   4.395   4.184  0.5720  0.4764 -0.0557
   30MOL   H16411242   6.638   4.136   4.323 -1.7908 -0.1614 -1.7247
   30MOL   H16511243   6.476   4.203   4.506  1.0999  1.7965  0.6325
   30MOL   H16611244   6.291   4.428   4.460 -1.6302 -0.9735 -2.1485
   30MOL   H16711245   6.368   4.426   4.684 -1.2167 -0.6468  0.9571
   30MOL   H16811246   6.217   4.361   4.702 -0.4533 -0.6475 -0.2662
   30MOL   H16911247   6.349   4.250   4.706 -0.3527  0.6338  2.5067
   30MOL   H17011248   6.205   4.230   4.338  1.8824  0.2171  0.0253
   30MOL   H17111249   6.102   4.296   4.461 -0.8518  0.1487 -0.6723
   30MOL   H17211250   6.187   4.147   4.492 -0.0732  0.9106  0.6765
   30MOL   C17311251   6.743   4.280   4.447  0.3526 -0.2585 -0.5520
   30MOL   C17411252   6.767   4.440   4.468  0.3131  0.1975 -0.1472
   30MOL   C17511253   6.693   4.495   4.589 -0.2538  0.0081  0.3914
   30MOL   O17611254   6.740   4.478   4.706  0.5099  0.1831 -0.1789
   30MOL   N17711255   6.593   4.580   4.572  0.5264  0.0235  0.2056
   30MOL   C17811256   6.527   4.668   4.672 -0.6116  0.9599 -0.2854
   30MOL   C17911257   6.386   4.715   4.633 -0.2103 -0.7240 -0.1249
   30MOL   C18011258   6.623   4.791   4.699  0.2321 -0.5795 -0.2805
   30MOL   H18111259   6.836   4.228   4.424 -0.4415 -2.1946  0.5304
   30MOL   H18211260   6.708   4.232   4.538  1.2162  1.0750  0.4964
   30MOL   H18311261   6.717   4.482   4.381  0.6025  0.1063 -0.3557
   30MOL   H18411262   6.552   4.574   4.480  0.3428 -2.0518  0.4022
   30MOL   H18511263   6.519   4.608   4.763 -1.8591  0.7775 -0.5001
   30MOL   H18611264   6.339   4.778   4.709 -0.0745 -1.6273  0.7210
   30MOL   H18711265   6.311   4.636   4.624  0.9368 -1.6149 -2.1839
   30MOL   H18811266   6.388   4.776   4.543 -1.0640  0.7715  0.8393
   30MOL   H18911267   6.645   4.852   4.612  2.2148  1.8609  1.8448
   30MOL   H19011268   6.722   4.746   4.712 -0.0568 -1.0491  0.3834
   30MOL   H19111269   6.592   4.855   4.782  4.4161  1.6417 -0.2804
   30MOL   C19211270   6.920   4.473   4.469 -0.3334  0.2472 -0.1130
   30MOL   C19311271   6.961   4.621   4.482  0.8538  0.0338  0.3697
   30MOL   C19411272   6.916   4.697   4.355  0.2444  0.7864 -0.8132
   30MOL   O19511273   6.952   4.660   4.242 -0.1139  0.4219  0.1939
   30MOL   N19611274   6.837   4.799   4.385  0.3130  0.4435 -0.4698
   30MOL   C19711275   6.767   4.884   4.285 -0.3942 -0.0209 -0.7884
   30MOL   C19811276   6.633   4.824   4.241  0.0146 -0.4434  0.7153
   30MOL   C19911277   6.734   5.015   4.357  0.4585  0.0228 -0.1594
   30MOL   H20011278   6.960   4.441   4.373 -1.6605 -0.9919 -0.2748
   30MOL   H20111279   6.968   4.423   4.553  1.8623  1.5348 -0.5670
   30MOL   H20211280   6.910   4.671   4.565  1.1468  0.1765  0.4650
   30MOL   H20311281   6.841   4.827   4.481 -0.3644 -1.4827  0.1459
   30MOL   H20411282   6.838   4.906   4.206 -0.0902  0.6572 -0.3280
   30MOL   H20511283   6.563   4.894   4.195 -0.7668 -2.4968 -1.3345
   30MOL   H20611284   6.579   4.787   4.328 -0.8073 -0.9635 -0.0082
   30MOL   H20711285   6.633   4.737   4.175 -0.8511  0.0632  0.0394
   30MOL   H20811286   6.655   4.994   4.429  0.8813 -1.3851 -0.0867
   30MOL   H20911287   6.698   5.085   4.282 -1.9202 -0.7792  0.1866
   30MOL   H21011288   6.817   5.064   4.408  1.6555 -0.1133 -1.9314
   30MOL   C21111289   7.107   4.646   4.513 -1.1672  0.4826  0.2525
   30MOL   C21211290   7.156   4.789   4.558 -0.4091 -1.1521  0.0981
   30MOL   C21311291   7.063   4.855   4.665 -1.0014 -0.2916  0.2031
   30MOL   O21411292   6.999   4.958   4.640  0.8857 -0.0192 -0.1807
   30MOL   N21511293   7.056   4.794   4.782 -0.2412  0.2186  0.2849
   30MOL   C21611294   6.970   4.845   4.885  0.0374  0.4235  0.1572
   30MOL   C21711295   7.052   4.934   4.980  0.0057 -0.1178 -0.2481
   30MOL   C21811296   6.900   4.729   4.958  0.3637  0.4582  0.5906
   30MOL   H21911297   7.179   4.617   4.437 -3.0181  0.9741 -1.7679
   30MOL   H22011298   7.140   4.579   4.592  2.7242  1.7022 -0.2490
   30MOL   H22111299   7.142   4.860   4.476  3.4205 -1.6047 -1.0530
   30MOL   H22211300   7.086   4.699   4.799  0.1888  0.5384  1.3661
   30MOL   H22311301   6.884   4.896   4.843  0.2369 -0.2468 -1.1011
   30MOL   H22411302   7.128   4.878   5.035  1.1536  0.5981 -1.0731
   30MOL   H22511303   7.105   5.011   4.923  1.1053 -1.8916 -1.6829
   30MOL   H22611304   6.987   4.981   5.053  1.2535  1.7844 -0.3211
   30MOL   H22711305   6.822   4.682   4.898  0.0122  0.1347  1.2882
   30MOL   H22811306   6.854   4.773   5.047  0.7943 -0.4709  1.2798
   30MOL   H22911307   6.975   4.657   4.990 -0.2319 -1.2611 -1.7458
   30MOL   C23011308   7.305   4.781   4.609  0.9964  0.3600  0.0679
   30MOL   C23111309   7.396   4.901   4.573 -0.6219 -0.3338 -0.2720
   30MOL   C23211310   7.435   4.892   4.426 -0.2968  0.2112  0.0866
   30MOL   O23311311   7.411   4.990   4.354 -0.0090 -0.1464  0.2703
   30MOL   N23411312   7.503   4.786   4.378 -0.0355  0.0375 -0.2090
   30MOL   C23511313   7.571   4.779   4.246 -0.2486 -0.4379  0.1536
   30MOL   C23611314   7.689   4.675   4.261  0.5225 -0.6541 -0.2405
   30MOL   C23711315   7.470   4.733   4.135  0.7083 -0.2218  0.3814
   30MOL   H23811316   7.355   4.690   4.575  0.2380  0.5547 -1.6276
   30MOL   H23911317   7.310   4.764   4.716 -0.3455  1.2372  0.2776
   30MOL   H24011318   7.494   4.894   4.621 -0.4781 -1.0271 -0.6590
   30MOL   H24111319   7.510   4.700   4.430  1.5099  0.1624 -0.1784
   30MOL   H24211320   7.613   4.877   4.221 -2.4496  0.8367  1.3558
   30MOL   H24311321   7.757   4.699   4.342 -0.4786 -0.6050  0.5987
   30MOL   H24411322   7.647   4.581   4.296 -3.3060  1.5153  1.4606
   30MOL   H24511323   7.745   4.665   4.168  0.0786 -0.9753 -0.4809
   30MOL   H24611324   7.387   4.682   4.186  1.1851 -0.6260  0.7606
   30MOL   H24711325   7.520   4.666   4.065  0.7554  1.3228 -1.0988
   30MOL   H24811326   7.433   4.817   4.076 -2.3832  0.0039  2.4982
   30MOL   C24911327   7.338   5.037   4.630  0.5749 -0.4606 -0.0807
   30MOL   C25011328   7.407   5.175   4.602 -0.4311  0.4169  0.8117
   30MOL   C25111329   7.553   5.157   4.616 -0.6642  0.0223 -0.4817
   30MOL   O25211330   7.601   5.139   4.724 -0.5165  0.5131  0.1986
   30MOL   N25311331   7.627   5.168   4.503 -0.2817 -0.2749  0.4418
   30MOL   C25411332   7.778   5.151   4.502  0.2369 -0.5177 -0.3580
   30MOL   C25511333   7.828   5.007   4.492 -0.3895 -0.1671  0.2754
   30MOL   C25611334   0.014   5.237   4.399  0.4578 -0.0845  0.9234
   30MOL   H25711335   7.310   5.018   4.733 -0.6146  1.4717 -0.0253
   30MOL   H25811336   7.244   5.048   4.576 -0.4619  1.2256  2.0028
   30MOL   H25911337   7.372   5.202   4.502 -1.1188  1.1778  1.2455
   30MOL   H26011338   7.571   5.183   4.421 -3.4827 -1.0036  2.3931
   30MOL   H26111339   7.813   5.173   4.603  1.8483 -0.7384 -0.8650
   30MOL   H26211340   7.807   4.968   4.392  0.0444  1.7874 -0.6179
   30MOL   H26311341   0.097   4.996   4.518 -0.7726  0.0110  1.9670
   30MOL   H26411342   7.779   4.941   4.563  2.3796 -0.1370  2.2970
   30MOL   H26511343   7.833   5.343   4.415 -1.3142 -0.0754 -0.8545
   30MOL   H26611344   0.122   5.222   4.406  0.5193 -1.0136 -1.4989
   30MOL   H26711345   7.822   5.210   4.297 -2.6312 -0.0456  1.7119
   30MOL   C26811346   7.366   5.296   4.685 -0.5301  0.2384  0.0260
   30MOL   C26911347   7.229   5.368   4.668  0.3801  0.2841  0.2601
   30MOL   C27011348   7.215   5.459   4.539  0.2720  0.3442 -0.4366
   30MOL   O27111349   7.292   5.444   4.447  0.5179  1.2657  0.2041
   30MOL   N27211350   7.114   5.549   4.535 -0.6321  0.1092 -1.1248
   30MOL   C27311351   7.103   5.654   4.440  0.0589  0.3844 -0.0902
   30MOL   C27411352   6.972   5.712   4.459 -0.1021 -0.3946  0.0930
   30MOL   C27511353   7.209   5.759   4.473  0.2056 -0.1571  0.0513
   30MOL   H27611354   7.385   5.276   4.790  1.6870  2.0526  0.0048
   30MOL   H27711355   7.439   5.374   4.666  0.6794 -0.7339  0.5683
   30MOL   H27811356   7.226   5.442   4.748 -0.5349 -0.5193  0.9991
   30MOL   H27911357   7.067   5.558   4.625  0.2779 -0.0016 -0.6352
   30MOL   H28011358   7.108   5.617   4.338 -1.8188  0.3829 -0.2042
   30MOL   H28111359   6.937   5.729   4.561  0.7714 -1.6145  0.6071
   30MOL   H28211360   6.971   5.808   4.408 -0.9184  0.2829  1.3440
   30MOL   H28311361   6.894   5.652   4.413 -0.8789  1.1283 -0.6214
   30MOL   H28411362   7.312   5.726   4.457  0.7185  1.5304 -0.2853
   30MOL   H28511363   7.193   5.846   4.408  0.3676 -0.9700 -1.0972
   30MOL   H28611364   7.202   5.804   4.572 -1.3086 -0.9989  0.3355
   30MOL   C28711365   7.110   5.262   4.691 -0.5367 -0.6041 -0.5016
   30MOL   C28811366   6.966   5.318   4.719  0.1828  0.4082 -0.0308
   30MOL   C28911367   6.967   5.393   4.854 -0.1632  0.0370 -0.3721
   30MOL   O29011368   7.011   5.334   4.956 -0.0727  0.3140 -0.1628
   30MOL   N29111369   6.937   5.524   4.859  0.1615  0.7614 -0.1314
   30MOL   C29211370   6.955   5.608   4.975 -0.0191  0.4781  0.0710
   30MOL   C29311371   6.942   5.755   4.919  0.1238 -0.3079 -0.1550
   30MOL   C29411372   6.852   5.587   5.086  0.2774  0.1981  0.5096
   30MOL   H29511373   7.098   5.207   4.598 -0.4012 -0.3365 -0.6785
   30MOL   H29611374   7.127   5.190   4.771 -2.6535 -0.2222  0.3258
   30MOL   H29711375   6.931   5.389   4.644 -1.4628  1.2831  1.5101
   30MOL   H29811376   6.889   5.565   4.781  0.2034  0.6575 -0.2125
   30MOL   H29911377   7.054   5.600   5.019  0.0708  0.5205 -0.1230
   30MOL   H30011378   6.839   5.778   4.890 -0.8553 -2.1890  1.6423
   30MOL   H30111379   6.958   5.821   5.005 -0.2805 -0.2652 -0.1088
   30MOL   H30211380   7.021   5.772   4.847  0.4946  0.1709  0.3531
   30MOL   H30311381   6.748   5.598   5.055  0.3102  0.2978  0.4338
   30MOL   H30411382   6.865   5.487   5.127  1.8555  0.3334  0.3683
   30MOL   H30511383   6.863   5.670   5.156 -2.1037  1.5771 -0.6582
   30MOL   C30611384   6.847   5.215   4.719  0.3723  0.1362 -0.2545
   30MOL   C30711385   6.706   5.272   4.726  0.1962 -0.1529 -0.4986
   30MOL   C30811386   6.618   5.189   4.820  0.5808  0.7581  0.0025
   30MOL   O30911387   6.527   5.118   4.779  0.0456  0.9891 -0.1262
   30MOL   N31011388   6.654   5.198   4.954 -0.6450  0.4049  0.2807
   30MOL   C31111389   6.587   5.157   5.074  0.1229  1.0311 -0.1724
   30MOL   C31211390   6.446   5.193   5.080 -0.3054  0.0969  0.1424
   30MOL   C31311391   6.590   5.004   5.096  1.0797 -0.1677 -0.6851
   30MOL   H31411392   6.859   5.167   4.622 -1.7637  2.4154 -1.7122
   30MOL   H31511393   6.863   5.138   4.795 -1.1031 -0.5161 -0.5653
   30MOL   H31611394   6.729   5.369   4.769  0.2403 -0.8795  1.1428
   30MOL   H31711395   6.735   5.257   4.966  0.3107 -0.8987  0.2622
   30MOL   H31811396   6.634   5.201   5.162 -0.4104  1.3094 -0.0274
   30MOL   H31911397   6.398   5.172   5.176 -1.1749  0.6164 -0.1758
   30MOL   H32011398   6.394   5.132   5.005  0.1678  0.2021 -0.2716
   30MOL   H32111399   6.435   5.298   5.053 -3.4069 -0.2274 -0.1344
   30MOL   H32211400   6.539   4.949   5.016 -1.9224  1.6288 -0.0711
   30MOL   H32311401   6.534   4.976   5.185 -1.5671  0.0861 -2.2003
   30MOL   H32411402   6.690   4.961   5.109  0.6729 -0.3636  1.9779
   30MOL   C32511403   6.640   5.318   4.592 -0.3810 -0.0980  0.2703
   30MOL   C32611404   6.528   5.422   4.608  0.3715  0.4955  0.7699
   30MOL   C32711405   6.567   5.555   4.677 -0.1236 -0.1529 -0.5452
   30MOL   O32811406   6.675   5.617   4.662  0.4808  0.2487  0.9567
   30MOL   N32911407   6.469   5.589   4.764  0.5156 -0.1759 -0.4583
   30MOL   C33011408   6.481   5.709   4.849 -0.1473  0.1300 -0.4200
   30MOL   C33111409   6.433   5.685   4.993  0.7719 -0.6117  0.0061
   30MOL   C33211410   6.396   5.817   4.776 -0.9022  0.8353 -0.1923
   30MOL   H33311411   6.615   5.227   4.537 -1.1448  0.9904 -1.2122
   30MOL   H33411412   6.720   5.363   4.532 -1.6402  2.1577  0.2512
   30MOL   H33511413   6.456   5.365   4.667 -0.8786  1.1104 -0.1135
   30MOL   H33611414   6.383   5.538   4.776  0.0927  0.6856  0.3195
   30MOL   H33711415   6.583   5.742   4.866  0.5791 -1.7432 -1.0082
   30MOL   H33811416   6.455   5.775   5.051 -1.0085 -0.5655  0.6318
   30MOL   H33911417   6.325   5.677   4.990  0.7873 -1.5298  1.7250
   30MOL   H34011418   6.463   5.592   5.039 -3.2431 -2.3506 -0.6856
   30MOL   H34111419   6.431   5.843   4.677 -0.7752  0.3947 -0.2673
   30MOL   H34211420   6.392   5.915   4.824 -1.8151  0.6212  0.1901
   30MOL   H34311421   6.292   5.784   4.768  0.1108 -3.2328  1.9640
   30MOL   C34411422   6.443   5.453   4.481 -0.3086 -0.2007  0.0735
   30MOL   C34511423   6.511   5.549   4.380  0.0543 -0.1922  0.4022
   30MOL   C34611424   6.600   5.469   4.286  0.0961 -0.0869 -0.5777
   30MOL   O34711425   6.558   5.376   4.220  0.3817 -0.1286 -0.1728
   30MOL   N34811426   6.726   5.510   4.268  0.0545 -0.6840 -0.0144
   30MOL   C34911427   6.840   5.434   4.204  0.3144 -0.6954 -0.1047
   30MOL   C35011428   6.927   5.529   4.121 -0.2248 -0.3764  0.7771
   30MOL   C35111429   6.921   5.357   4.311  0.1127  0.9858 -0.2222
   30MOL   H35211430   6.338   5.473   4.503 -0.1483  1.0496 -0.2800
   30MOL   H35311431   6.422   5.359   4.429  0.8024 -1.6729  2.2287
   30MOL   H35411432   6.571   5.623   4.432  2.1533 -1.5803  0.0055
   30MOL   H35511433   6.750   5.596   4.314  1.7032 -1.6228  0.9113
   30MOL   H35611434   6.792   5.368   4.132 -1.4229  0.4426 -0.0334
   30MOL   H35711435   6.949   5.610   4.191 -0.5037 -1.9226  2.7072
   30MOL   H35811436   7.019   5.487   4.081  0.1528  0.6923  0.5076
   30MOL   H35911437   6.870   5.568   4.037  0.6457  2.5116  1.4802
   30MOL   H36011438   7.017   5.316   4.281 -0.0108  1.7456 -1.7056
   30MOL   H36111439   6.952   5.415   4.398  0.7203  0.4542 -0.0895
   30MOL   H36211440   6.864   5.269   4.341 -1.0608  1.3522 -1.3264
   30MOL   C36311441   6.407   5.623   4.292  0.0186 -0.3070  0.3931
   30MOL   C36411442   6.326   5.729   4.359  0.5881  0.0688 -0.8856
   30MOL   C36511443   6.399   5.857   4.401 -0.1983 -0.2586 -0.1155
   30MOL   O36611444   6.518   5.859   4.414  0.1810  0.9189 -0.6815
   30MOL   N36711445   6.312   5.961   4.416  0.3940  0.1486 -0.2000
   30MOL   C36811446   6.351   6.103   4.450 -0.8204 -0.1154  0.5632
   30MOL   C36911447   6.286   6.205   4.348 -0.0034  0.2509  0.8587
   30MOL   C37011448   6.295   6.141   4.593 -0.2162 -0.1389 -0.0640
   30MOL   H37111449   6.343   5.544   4.252 -1.4880  0.3994  1.3754
   30MOL   H37211450   6.451   5.663   4.200 -0.3179 -3.6483 -1.2947
   30MOL   H37311451   6.279   5.698   4.453 -2.6257  3.0648 -1.3974
   30MOL   H37411452   6.216   5.943   4.392  0.0083  1.2565  0.4445
   30MOL   H37511453   6.458   6.114   4.465 -0.2460 -0.5756 -2.8062
   30MOL   H37611454   6.303   6.310   4.371  0.2391  0.7028 -1.3583
   30MOL   H37711455   6.331   6.195   4.250 -0.3802 -0.0274  0.7099
   30MOL   H37811456   6.182   6.183   4.321  0.3798 -2.8675  1.7318
   30MOL   H37911457   6.309   6.053   4.655 -1.3980  0.2875  0.8315
   30MOL   H38011458   6.333   6.234   4.636  3.2735 -0.7930 -1.5534
   30MOL   H38111459   6.188   6.162   4.584 -0.0808  0.0457 -1.3710
   30MOL   H38211460   6.246   5.765   4.295  2.0138  0.9945 -2.1736
   31MOL     C111461   1.262   6.822   7.092 -0.2561 -0.2049  0.0623
   31MOL     C211462   1.267   6.840   7.246 -0.6029 -0.0045  0.4226
   31MOL     C311463   1.218   6.987   7.273  0.1972  0.3122  0.5893
   31MOL     O411464   1.099   7.012   7.271  0.0487 -0.3313 -0.1834
   31MOL     N511465   1.312   7.077   7.296 -0.5182 -0.0145  0.3405
   31MOL     C611466   1.298   7.210   7.345  0.2161 -0.3219  0.3849
   31MOL     C711467   1.261   7.215   7.498  0.0031 -0.1532  0.6781
   31MOL     C811468   1.426   7.287   7.310 -0.3140 -0.8002 -0.1828
   31MOL     H911469   1.293   6.905   7.030  0.0917 -0.5638 -0.2480
   31MOL    H1011470   1.157   6.815   7.065 -0.4202  0.3598  0.5421
   31MOL    H1111471   1.370   6.825   7.280 -0.9985 -1.9276  0.8231
   31MOL    H1211472   1.407   7.045   7.285 -0.7109 -0.0624 -1.3477
   31MOL    H1311473   1.211   7.245   7.289 -0.2770 -2.4577 -0.2164
   31MOL    H1411474   1.240   7.319   7.524 -1.2063  0.0945 -1.1856
   31MOL    H1511475   1.339   7.177   7.565 -0.3277 -2.1686 -0.0597
   31MOL    H1611476   1.176   7.149   7.515 -0.0974 -0.0538  0.5550
   31MOL    H1711477   1.511   7.232   7.348 -0.6401 -1.4853 -0.4380
   31MOL    H1811478   1.431   7.288   7.201 -2.6393  0.2891 -0.3299
   31MOL    H1911479   1.428   7.387   7.353 -0.8251 -0.1810 -1.5547
   31MOL    H2011480   1.319   6.731   7.073 -0.9930 -0.8329  0.8070
   31MOL    C2111481   1.176   6.738   7.318 -0.9234 -0.2970 -0.2943
   31MOL    C2211482   1.152   6.755   7.473  0.3519  0.6934  0.8591
   31MOL    C2311483   1.272   6.747   7.565  0.2783 -0.1195  0.5968
   31MOL    O2411484   1.320   6.640   7.590 -0.2849 -0.1084 -0.5704
   31MOL    N2511485   1.317   6.865   7.610 -0.8046  0.0568  0.2821
   31MOL    C2611486   1.428   6.885   7.703 -0.0940  0.0204 -0.0586
   31MOL    C2711487   1.406   6.986   7.805  0.1874 -0.5922  0.1867
   31MOL    C2811488   1.559   6.925   7.633 -0.1007  0.3616 -0.8257
   31MOL    H2911489   1.207   6.639   7.285 -0.8144 -0.1351 -0.6835
   31MOL    H3011490   1.078   6.739   7.270 -1.3498 -1.0655  0.5342
   31MOL    H3111491   1.107   6.853   7.488 -2.2964 -0.0086 -1.9343
   31MOL    H3211492   1.272   6.945   7.571  0.2891  0.1863 -0.7440
   31MOL    H3311493   1.441   6.786   7.746  0.8627 -1.3323 -3.2749
   31MOL    H3411494   1.323   6.962   0.035 -2.4326 -1.8662 -3.4145
   31MOL    H3511495   1.372   7.072   7.747  0.3414 -0.7171 -0.0836
   31MOL    H3611496   1.495   7.009   0.027  0.5692 -0.2261 -0.5388
   31MOL    H3711497   1.645   6.919   7.700 -1.0164 -1.2033  0.2118
   31MOL    H3811498   1.577   6.860   7.548 -0.1392 -1.2557  0.3880
   31MOL    H3911499   1.561   7.022   7.583  0.1643  0.0803 -1.3643
   31MOL    C4011500   1.044   6.652   7.521  0.6060  0.2061 -0.2908
   31MOL    C4111501   0.980   6.678   7.657 -0.3101  0.6643 -0.5362
   31MOL    C4211502   0.890   6.560   7.712 -0.3233 -0.5216  0.3023
   31MOL    O4311503   0.822   6.566   7.822  0.2395 -0.1856  0.0818
   31MOL    N4411504   0.870   6.455   7.627  0.1356  0.0453  0.5581
   31MOL    C4511505   0.825   6.322   7.666  0.3363  0.3454 -0.2611
   31MOL    C4611506   0.786   6.256   7.540 -0.3277  0.3874  0.3776
   31MOL    C4711507   0.931   6.242   7.733  0.3395 -0.0872 -0.1568
   31MOL    H4811508   1.092   6.554   7.509 -2.0657 -1.1436 -0.4404
   31MOL    H4911509   0.961   6.647   7.450  0.2319  0.2429  0.1405
   31MOL    H5011510   1.063   6.701   7.725 -1.7501  0.3898  1.3586
   31MOL    H5111511   0.915   6.461   7.537  1.7176 -1.2498  1.2322
   31MOL    H5211512   0.739   6.325   7.734  1.0706 -0.2099  0.7056
   31MOL    H5311513   0.714   6.320   7.489  0.7507  2.6836  1.6823
   31MOL    H5411514   0.734   6.162   7.560  0.2568  0.5124  2.5760
   31MOL    H5511515   0.879   6.244   7.484 -0.1562  1.3271  0.4494
   31MOL    H5611516   0.957   6.293   7.826  0.0535 -1.2526  0.5717
   31MOL    H5711517   1.023   6.226   7.677 -1.0087 -0.4218 -2.3045
   31MOL    H5811518   0.892   6.147   7.770  0.1717 -0.6450 -1.7544
   31MOL    C5911519   0.887   6.805   7.658  0.5865 -0.0098  0.3026
   31MOL    C6011520   0.881   6.881   7.793  0.2726 -0.0511 -0.1870
   31MOL    C6111521   0.731   6.901   0.001 -0.6035 -0.3205  0.8975
   31MOL    O6211522   0.665   6.981   7.763  0.2639  0.5545  0.2950
   31MOL    N6311523   0.687   6.820   0.100  0.3484  0.5430  0.3037
   31MOL    C6411524   0.564   6.841   0.165  0.6101  0.5680 -0.4102
   31MOL    C6511525   0.519   6.706   0.208 -0.4214  0.0280 -1.2845
   31MOL    C6611526   0.582   6.941   0.280  0.3481  0.1102  0.6019
   31MOL    H6711527   0.907   6.878   7.579 -0.8892 -1.8371 -1.8483
   31MOL    H6811528   0.786   6.778   7.629 -0.6279  3.9294  0.5678
   31MOL    H6911529   0.920   6.819   0.038  1.4859  0.4984 -0.3406
   31MOL    H7011530   0.742   6.737   0.116 -0.2513 -0.0031 -0.4640
   31MOL    H7111531   0.485   6.887   0.105  0.9408  0.3117 -1.0564
   31MOL    H7211532   0.413   6.701   0.234  0.0916  0.0587  0.9803
   31MOL    H7311533   0.529   6.627   0.134  0.6195 -0.3571 -0.7373
   31MOL    H7411534   0.568   6.664   0.296  0.3477  0.4957 -1.4873
   31MOL    H7511535   0.597   7.041   0.238 -1.3889  0.8452  1.6635
   31MOL    H7611536   0.493   6.945   0.342  0.9293 -0.4431  1.4788
   31MOL    H7711537   0.659   6.908   0.349 -0.2809 -1.1472  0.7256
   31MOL    C7811538   0.964   7.014   7.795 -0.0091  0.1892 -0.6390
   31MOL    C7911539   0.951   7.102   0.089  0.9137  0.1296 -0.2807
   31MOL    C8011540   1.030   7.028   0.191 -0.0900  0.2662 -0.4257
   31MOL    O8111541   1.150   7.045   0.199  0.1624  0.6030 -0.1173
   31MOL    N8211542   0.960   6.951   0.278 -0.8795 -0.0514  0.4446
   31MOL    C8311543   1.017   6.856   0.371 -0.0663  0.2908  0.0785
   31MOL    C8411544   1.069   6.905   0.505  0.3380 -0.0397  0.2376
   31MOL    C8511545   0.909   6.755   0.386  1.1591  1.1450  0.0003
   31MOL    H8611546   0.939   7.079   7.710  1.2639  0.5288 -0.7675
   31MOL    H8711547   1.068   6.994   7.769 -0.0795  1.6732 -2.1855
   31MOL    H8811548   0.849   7.089   0.124  2.1214 -2.7641  2.3662
   31MOL    H8911549   0.860   6.943   0.284 -0.7029 -1.1775  2.7380
   31MOL    H9011550   1.099   6.800   0.326  0.2689  2.1201 -1.6274
   31MOL    H9111551   1.096   6.819   0.566  0.7435 -0.2424 -0.2208
   31MOL    H9211552   1.161   6.962   0.491  0.9734 -1.3955 -1.2320
   31MOL    H9311553   0.990   6.962   0.554 -0.0074 -0.1114 -0.2318
   31MOL    H9411554   0.815   6.791   0.427  1.9700  1.1703  1.8633
   31MOL    H9511555   0.954   6.676   0.446  1.1581  0.3368 -1.0392
   31MOL    H9611556   0.876   6.706   0.294 -1.1373 -1.7798  2.3311
   31MOL    C9711557   0.997   7.249   0.076  1.1323  0.6206 -0.2673
   31MOL    C9811558   0.881   7.339   0.019  0.6104  0.2628  0.2515
   31MOL    C9911559   0.884   7.341   7.700 -0.4801  0.4561 -0.1706
   31MOL   O10011560   0.986   7.376   7.642 -0.2260  0.0182 -0.1048
   31MOL   N10111561   0.768   7.303   7.641 -0.2869  0.4291  0.3083
   31MOL   C10211562   0.747   7.280   7.504  0.4727  0.0142 -0.5225
   31MOL   C10311563   0.619   7.198   7.487  0.0825  0.4584  0.7053
   31MOL   C10411564   0.746   7.416   7.428  0.1777  0.1341  0.1104
   31MOL   H10511565   1.088   7.267   0.018  1.0613 -3.4799 -1.7884
   31MOL   H10611566   1.028   7.293   0.170  3.0487 -2.7126  0.7368
   31MOL   H10711567   0.790   7.287   0.050  0.2443  1.2878  0.9264
   31MOL   H10811568   0.697   7.264   7.701  1.2659 -3.3720 -0.2092
   31MOL   H10911569   0.822   7.218   7.455 -0.9374 -2.3615  0.2691
   31MOL   H11011570   0.545   7.232   7.559  0.2446  0.7980  0.7104
   31MOL   H11111571   0.580   7.223   7.389  1.2116  0.7348  0.3266
   31MOL   H11211572   0.635   7.091   7.501 -0.6490 -0.0159 -1.8244
   31MOL   H11311573   0.850   7.448   7.437  0.3297 -0.7238  1.6459
   31MOL   H11411574   0.677   7.480   7.484  1.0884  1.5429 -0.3459
   31MOL   H11511575   0.717   7.384   7.328 -1.2655  1.7833 -0.0310
   31MOL   C11611576   0.882   7.483   0.075 -0.4793 -0.5851 -0.0002
   31MOL   C11711577   0.845   7.495   0.223 -0.0573  0.0707  0.5220
   31MOL   C11811578   0.707   7.433   0.259  1.2160 -0.1549 -0.0748
   31MOL   O11911579   0.603   7.453   0.192  0.3135 -0.3369  0.3723
   31MOL   N12011580   0.716   7.365   0.374  0.4714 -0.4123 -0.3785
   31MOL   C12111581   0.602   7.294   0.428  0.1249  0.3453  0.2573
   31MOL   C12211582   0.664   7.176   0.507  0.4616  0.2322  0.2418
   31MOL   C12311583   0.523   7.381   0.522  0.0459 -0.4301 -0.5002
   31MOL   H12411584   0.805   7.542   0.025 -0.5667 -1.0907 -0.4685
   31MOL   H12511585   0.970   7.545   0.064  0.1354 -1.3825  0.3377
   31MOL   H12611586   0.926   7.455   0.283  0.9802  1.2500 -0.0759
   31MOL   H12711587   0.808   7.353   0.415 -0.1464 -1.7337  0.6664
   31MOL   H12811588   0.546   7.248   0.347  0.0456 -1.7115  1.4298
   31MOL   H12911589   0.583   7.106   0.526  0.6490 -0.1436 -0.3341
   31MOL   H13011590   0.702   7.219   0.600 -0.6210  1.2529  0.2165
   31MOL   H13111591   0.738   7.126   0.444 -0.0127 -1.6487  1.1360
   31MOL   H13211592   0.419   7.351   0.513 -0.1568  0.4327 -1.0912
   31MOL   H13311593   0.562   7.379   0.624  0.6564 -2.9905 -0.7515
   31MOL   H13411594   0.521   7.480   0.476 -1.8302  0.1259  0.7047
   31MOL   C13511595   0.840   7.647   0.268 -0.3875  0.1796 -0.1052
   31MOL   C13611596   0.790   7.700   0.405  0.1551  0.3098 -0.0813
   31MOL   C13711597   0.847   7.625   0.527  0.4964  0.2642  0.5546
   31MOL   O13811598   0.951   7.562   0.517 -0.1347 -0.3368 -0.1585
   31MOL   N13911599   0.780   7.626   0.643  0.1118 -0.4554  0.2550
   31MOL   C14011600   0.837   7.592   0.774 -0.5037 -0.3792  0.7214
   31MOL   C14111601   0.818   7.437   0.791  0.2636  0.0082  0.1800
   31MOL   C14211602   0.773   7.665   0.891 -0.1772 -0.1628 -0.3129
   31MOL   H14311603   0.774   7.696   0.196 -1.4906 -0.4090  0.4805
   31MOL   H14411604   0.933   7.700   0.246 -1.4323  1.6662 -1.0839
   31MOL   H14511605   0.682   7.688   0.411  0.2544  0.1886  1.9102
   31MOL   H14611606   0.697   7.683   0.634  0.8905  0.4519 -1.4374
   31MOL   H14711607   0.944   7.611   0.776 -0.3992 -1.0409  1.9154
   31MOL   H14811608   0.873   7.407   0.880  1.9822 -1.5104 -1.3580
   31MOL   H14911609   0.719   7.391   0.794  0.8515 -1.3608 -0.6673
   31MOL   H15011610   0.871   7.381   0.714 -0.4887 -0.5487  0.0696
   31MOL   H15111611   0.792   7.636   0.994 -0.0120  1.8798  0.2569
   31MOL   H15211612   0.666   7.647   0.876 -0.3689 -0.4458  1.3167
   31MOL   H15311613   0.797   7.772   0.884 -0.6375  0.0075  0.6426
   31MOL   C15411614   0.807   0.015   0.421  0.0369 -0.7381  0.1722
   31MOL   C15511615   0.952   0.077   0.448 -0.2706 -0.6603 -0.1179
   31MOL   C15611616   0.955   0.154   0.577 -0.2529 -0.1069 -0.5039
   31MOL   O15711617   0.887   0.255   0.582  0.5552 -0.2707 -0.2882
   31MOL   N15811618   1.035   0.114   0.677  0.3024  0.2034 -0.2167
   31MOL   C15911619   1.035   0.162   0.815 -0.2918 -0.1078 -0.0501
   31MOL   C16011620   1.129   0.281   0.806  0.5728  0.5671  0.4064
   31MOL   C16111621   1.085   0.045   0.905  0.0592  0.9975  0.0302
   31MOL   H16211622   0.752   0.029   0.514 -1.3566  2.0039 -1.0110
   31MOL   H16311623   0.754   0.069   0.343  0.0068 -0.7224  0.2033
   31MOL   H16411624   1.025   7.833   0.456 -4.0393 -4.3650 -1.0397
   31MOL   H16511625   1.080   0.026   0.659 -1.0788 -0.3693 -0.9994
   31MOL   H16611626   0.938   0.199   0.849  0.1813 -1.2226  2.6098
   31MOL   H16711627   1.223   0.249   0.761 -0.3296 -1.6283  0.0339
   31MOL   H16811628   1.098   0.369   0.750  1.7644  1.6089  1.3299
   31MOL   H16911629   1.162   0.321   0.902  2.0093  3.0830 -1.0523
   31MOL   H17011630   1.047   7.783   0.876  1.6233  0.9467 -1.9664
   31MOL   H17111631   1.053   0.076   1.004  1.0506  0.6610  0.4586
   31MOL   H17211632   1.192   0.028   0.913  0.2648  1.5622 -1.3025
   31MOL   C17311633   1.014   0.160   0.329  0.3830 -0.2205  0.0055
   31MOL   C17411634   1.168   0.182   0.317 -0.1496  0.5466 -0.0726
   31MOL   C17511635   1.255   0.060   0.342  0.4766 -0.0742  0.1924
   31MOL   O17611636   1.259   7.811   0.260  0.0855 -0.3032 -0.3447
   31MOL   N17711637   1.313   0.062   0.464 -0.2209 -0.2711  0.4895
   31MOL   C17811638   1.395   7.791   0.519  0.2759  0.5984  0.1949
   31MOL   C17911639   1.328   7.706   0.629  0.4530  0.1358  0.8115
   31MOL   C18011640   1.537   0.011   0.563 -0.4064 -0.2471  0.5715
   31MOL   H18111641   0.959   0.251   0.304  0.5594 -0.1140  0.0097
   31MOL   H18211642   0.988   0.105   0.238  1.5479  0.0121 -0.4680
   31MOL   H18311643   1.203   0.245   0.399  0.8423  0.5531 -0.4801
   31MOL   H18411644   1.300   0.148   0.516 -1.1820  1.0004 -1.8099
   31MOL   H18511645   1.408   7.717   0.440  0.7167  0.9594 -0.0734
   31MOL   H18611646   1.350   7.757   0.723  0.7629 -1.7633  1.7857
   31MOL   H18711647   1.371   7.606   0.626 -0.1509 -0.0973 -0.7110
   31MOL   H18811648   1.220   7.713   0.618  0.3309 -0.9375  1.2964
   31MOL   H18911649   1.524   0.091   0.636 -1.9459  0.2719 -0.2410
   31MOL   H19011650   1.587   0.059   0.478 -0.4666 -0.8342  0.2003
   31MOL   H19111651   1.598   7.768   0.606 -1.3513 -1.2637  0.0608
   31MOL   C19211652   1.198   0.247   0.176 -0.1376  0.3490  0.0578
   31MOL   C19311653   1.342   0.289   0.152 -0.3134 -0.8665  0.0898
   31MOL   C19411654   1.373   0.404   0.248 -0.3310  0.5918  0.8896
   31MOL   O19511655   1.341   0.521   0.215 -0.4759 -0.2043 -0.2483
   31MOL   N19611656   1.441   0.372   0.361  0.3551  0.3694  0.1380
   31MOL   C19711657   1.477   0.466   0.470  0.7592 -0.7191 -0.0089
   31MOL   C19811658   1.393   0.445   0.595 -0.0322 -0.8280 -0.3205
   31MOL   C19911659   1.626   0.455   0.492  0.0679  0.1321  0.4678
   31MOL   H20011660   1.128   0.325   0.146  0.0145  0.8259  0.9274
   31MOL   H20111661   1.174   0.168   0.106  0.6876  1.9433 -2.0919
   31MOL   H20211662   1.405   0.201   0.168  0.5448 -0.0170  1.5267
   31MOL   H20311663   1.480   0.280   0.376 -0.1571 -0.0043 -0.7329
   31MOL   H20411664   1.450   0.568   0.441 -2.2493 -1.6932 -0.7855
   31MOL   H20511665   1.438   0.359   0.643 -2.7442 -2.3357 -0.3849
   31MOL   H20611666   1.285   0.444   0.580 -0.0874  1.3530 -0.3589
   31MOL   H20711667   1.408   0.536   0.654  0.5715 -0.9788 -0.2439
   31MOL   H20811668   1.674   0.476   0.397 -1.3391  1.3623  0.0087
   31MOL   H20911669   1.647   0.353   0.524 -0.4031  0.8544  3.2270
   31MOL   H21011670   1.645   0.520   0.577  1.2627 -0.1656  0.4421
   31MOL   C21111671   1.378   0.318   0.008  0.2446 -0.2406  0.4101
   31MOL   C21211672   1.524   0.368   7.813 -0.5562  0.6421 -0.1754
   31MOL   C21311673   1.640   0.259   7.830  0.0032 -0.2701  0.4796
   31MOL   O21411674   1.699   0.236   0.098  0.2722 -0.2418 -0.9961
   31MOL   N21511675   1.669   0.188   7.719  0.1719 -0.2032  0.1127
   31MOL   C21611676   1.756   0.077   7.704 -0.8324  0.6951 -0.5316
   31MOL   C21711677   1.895   0.132   7.649  0.5364  0.2349  0.2670
   31MOL   C21811678   1.711   7.791   7.624 -0.5214 -0.3780 -0.1127
   31MOL   H21911679   1.311   0.399   7.814  1.3120  0.5803  0.2407
   31MOL   H22011680   1.374   0.224   7.788  0.1498  0.1833 -0.2912
   31MOL   H22111681   1.552   0.443   0.050  1.8629 -1.3114  0.9859
   31MOL   H22211682   1.613   0.200   7.635 -0.3777 -1.3294  0.3082
   31MOL   H22311683   1.760   0.033   7.804 -1.9696  0.9755 -0.3506
   31MOL   H22411684   1.890   0.201   7.565  1.6004  0.0837  0.0743
   31MOL   H22511685   1.956   0.173   7.729  0.7372 -1.0407  0.7740
   31MOL   H22611686   1.955   0.048   7.614  0.2565 -0.4889  1.5234
   31MOL   H22711687   1.796   7.727   7.599 -1.4346 -1.5396 -0.2547
   31MOL   H22811688   1.648   7.820   7.540  1.7405  0.7922 -1.4567
   31MOL   H22911689   1.641   7.729   7.680 -0.5446  1.0711  1.5052
   31MOL   C23011690   1.534   0.440   7.675  0.2955  0.9125 -0.4671
   31MOL   C23111691   1.473   0.580   7.662  0.4302 -0.0964 -0.4098
   31MOL   C23211692   1.541   0.685   7.755 -0.1644  1.0755  0.0778
   31MOL   O23311693   1.644   0.743   7.719 -0.6933 -0.4955 -0.6231
   31MOL   N23411694   1.492   0.697   0.041 -0.0853  0.0636  0.3726
   31MOL   C23511695   1.543   0.788   0.140 -0.4768 -0.2841  0.4624
   31MOL   C23611696   1.434   0.849   0.218 -0.6774  0.5201 -0.1836
   31MOL   C23711697   1.640   0.721   0.230 -0.3675 -0.2030  0.2690
   31MOL   H23811698   1.490   0.377   7.598 -1.4545 -1.6866  2.5573
   31MOL   H23911699   1.638   0.449   7.643 -0.1563 -0.5037 -2.4652
   31MOL   H24011700   1.371   0.574   7.699  0.5965 -0.3559  0.0166
   31MOL   H24111701   1.423   0.628   0.069 -1.6194  1.7014  0.6673
   31MOL   H24211702   1.608   0.865   0.098 -1.8347 -0.6704 -2.5326
   31MOL   H24311703   1.369   0.779   0.270 -0.9152 -0.1018 -1.2832
   31MOL   H24411704   1.486   0.901   0.298  0.0097  0.6826 -0.7320
   31MOL   H24511705   1.362   0.904   0.157 -0.3695  2.5510  1.2372
   31MOL   H24611706   1.667   0.785   0.314  0.4167 -0.4117  0.1787
   31MOL   H24711707   1.731   0.706   0.173  0.0886 -0.5307  1.0693
   31MOL   H24811708   1.605   0.624   0.266 -1.3872 -0.2170 -0.7364
   31MOL   C24911709   1.472   0.616   7.517 -0.3356 -0.2068 -0.0838
   31MOL   C25011710   1.401   0.749   7.481 -0.3293 -0.0043  0.6361
   31MOL   C25111711   1.259   0.745   7.527 -0.8822 -0.0780 -0.4870
   31MOL   O25211712   1.178   0.675   7.465 -0.3293 -0.0876 -0.1193
   31MOL   N25311713   1.237   0.802   7.642  0.2709  0.7959 -0.1726
   31MOL   C25411714   1.108   0.778   7.713 -0.7173 -0.2014 -0.2194
   31MOL   C25511715   1.130   0.698   0.003 -0.3000  0.4650 -0.0649
   31MOL   C25611716   1.042   0.914   7.737 -0.0207  0.2145 -0.8517
   31MOL   H25711717   1.418   0.536   7.467 -4.5443  0.3863  3.2100
   31MOL   H25811718   1.575   0.611   7.483  0.1595  2.0857  0.9474
   31MOL   H25911719   1.459   0.833   7.521 -0.5976  0.5584 -0.1512
   31MOL   H26011720   1.315   0.851   7.682  0.6343  1.2208 -1.4076
   31MOL   H26111721   1.031   0.737   7.648 -1.2107  1.7624 -0.8944
   31MOL   H26211722   1.041   0.692   0.065 -0.3498 -0.5769 -0.2278
   31MOL   H26311723   1.157   0.594   7.822  0.0285  0.6907 -0.9435
   31MOL   H26411724   1.210   0.742   0.062 -0.7401  0.7320  0.3315
   31MOL   H26511725   1.004   0.954   7.642 -0.6192  1.6537 -0.0278
   31MOL   H26611726   0.946   0.900   7.788 -0.2332  0.5114 -1.1629
   31MOL   H26711727   1.104   0.991   7.783 -0.1847  0.6833 -1.3985
   31MOL   C26811728   1.410   0.763   7.322  0.5797 -0.3828 -0.6574
   31MOL   C26911729   1.325   0.876   7.254 -0.3018  0.1761  1.1044
   31MOL   C27011730   1.380   1.013   7.292 -0.1777 -0.1446  0.2499
   31MOL   O27111731   1.497   1.022   7.323  0.1476  0.1055 -0.3006
   31MOL   N27211732   1.298   1.120   7.283 -0.7267 -0.4771  0.5809
   31MOL   C27311733   1.332   1.259   7.291 -0.9424  0.3364 -0.1450
   31MOL   C27411734   1.323   1.318   7.152  0.9324  0.0059  0.5756
   31MOL   C27511735   1.242   1.328   7.400  0.6038 -0.9427  1.2575
   31MOL   H27611736   1.516   0.777   7.304  0.1032  0.3592 -3.0373
   31MOL   H27711737   1.390   0.665   7.278 -0.0729  0.7504 -2.9833
   31MOL   H27811738   1.223   0.873   7.291 -1.1198 -1.8174 -1.1822
   31MOL   H27911739   1.204   1.104   7.250 -0.1222  0.2520 -1.6484
   31MOL   H28011740   1.440   1.264   7.307 -0.5430 -2.4085 -1.5683
   31MOL   H28111741   1.375   1.411   7.175 -0.7267  1.3032 -0.7909
   31MOL   H28211742   1.383   1.266   7.077  2.5693 -1.6003  2.9599
   31MOL   H28311743   1.224   1.348   7.117  0.8470 -0.3531  0.5036
   31MOL   H28411744   1.259   1.278   7.496  0.9470 -2.2325  0.5362
   31MOL   H28511745   1.258   1.436   7.405 -1.0461 -0.3805 -3.3831
   31MOL   H28611746   1.136   1.313   7.381  0.5377  1.6331 -0.6469
   31MOL   C28711747   1.319   0.854   7.097  0.4594 -0.5512 -0.3548
   31MOL   C28811748   1.176   0.841   7.030  0.4798  0.3776  0.1538
   31MOL   C28911749   1.081   0.961   7.043 -0.0996  0.4932 -0.0673
   31MOL   O29011750   1.028   0.987   7.151  0.2064  0.1697  0.5499
   31MOL   N29111751   1.052   1.021   6.929  0.7094  0.2128  0.1622
   31MOL   C29211752   0.999   1.150   6.917 -0.1823 -0.2241 -0.7066
   31MOL   C29311753   1.111   1.243   6.856  0.5178  0.3920 -0.0588
   31MOL   C29411754   0.885   1.136   6.817 -0.6614 -0.5043  0.2446
   31MOL   H29511755   1.365   0.934   7.039 -0.8089 -0.4522 -1.2418
   31MOL   H29611756   1.378   0.764   7.077 -2.4743 -2.2439 -1.7973
   31MOL   H29711757   1.206   0.834   6.925  3.1849  1.3010  0.8414
   31MOL   H29811758   1.080   0.970   6.846  0.4864 -0.7005  0.6339
   31MOL   H29911759   0.965   1.196   7.010  1.2880  1.4884 -0.9918
   31MOL   H30011760   1.093   1.347   6.883 -0.9166 -0.3198  1.8577
   31MOL   H30111761   1.207   1.217   6.900  0.4801  0.6975  0.2027
   31MOL   H30211762   1.105   1.248   6.747 -0.2007  0.0029 -0.0405
   31MOL   H30311763   0.920   1.077   6.732  1.3180  0.3437  0.4631
   31MOL   H30411764   0.808   1.072   6.862 -0.4170 -0.9767  0.0024
   31MOL   H30511765   0.845   1.230   6.778  0.3783 -0.5592 -0.9904
   31MOL   C30611766   1.111   0.701   7.067  0.4642 -0.8858  0.4456
   31MOL   C30711767   1.013   0.633   6.963 -0.0749 -0.3275 -0.0623
   31MOL   C30811768   1.082   0.586   6.831  0.3168 -0.5501 -0.4409
   31MOL   O30911769   1.089   0.672   6.738 -0.3854  0.3650  0.4184
   31MOL   N31011770   1.132   0.466   6.826  0.2910  0.7766 -0.0817
   31MOL   C31111771   1.201   0.409   6.707 -0.5122 -0.4027 -0.8406
   31MOL   C31211772   1.354   0.389   6.742 -0.0110 -0.3149 -0.1216
   31MOL   C31311773   1.124   0.287   6.666 -0.3453  0.0020 -0.1617
   31MOL   H31411774   1.192   0.629   7.081  2.8781  1.8302  1.1036
   31MOL   H31511775   1.063   0.715   7.163  0.3311  3.1809 -0.1140
   31MOL   H31611776   0.989   0.547   7.025 -1.8441  0.6883  0.7009
   31MOL   H31711777   1.143   0.403   6.904 -2.8845  0.5746  0.2639
   31MOL   H31811778   1.202   0.485   6.628  1.9915 -0.9076 -1.3222
   31MOL   H31911779   1.401   0.476   6.788 -0.6837  0.2349 -0.4541
   31MOL   H32011780   1.404   0.354   6.651 -2.4539 -0.0665 -1.6091
   31MOL   H32111781   1.351   0.312   6.818  0.0009 -1.3322 -1.1338
   31MOL   H32211782   1.162   0.227   6.583  0.4964  1.2347 -0.6757
   31MOL   H32311783   1.023   0.321   6.644 -0.8800 -0.0869  2.0246
   31MOL   H32411784   1.122   0.208   6.742 -1.6834  0.4918  0.3305
   31MOL   C32511785   0.885   0.721   6.940 -0.7080 -0.1154 -0.5873
   31MOL   C32611786   0.778   0.665   6.848 -0.8316 -0.4285  0.6961
   31MOL   C32711787   0.669   0.590   6.931 -0.2501 -0.2448  0.6955
   31MOL   O32811788   0.576   0.642   6.985  0.1627  0.5150 -0.6024
   31MOL   N32911789   0.696   0.458   6.943 -0.8086  0.2835 -0.4132
   31MOL   C33011790   0.630   0.372   7.039 -0.0274  0.2181  0.2469
   31MOL   C33111791   0.722   0.253   7.064  0.1706  0.5076  0.4272
   31MOL   C33211792   0.494   0.340   6.984 -0.8274 -0.1213  0.1358
   31MOL   H33311793   0.924   0.813   6.897  0.9427 -0.3364  0.4197
   31MOL   H33411794   0.849   0.757   7.036  1.6204 -0.9031  0.6253
   31MOL   H33511795   0.833   0.605   6.776 -1.1755  2.4424 -2.0782
   31MOL   H33611796   0.772   0.411   6.895  1.2019  2.1618  0.8136
   31MOL   H33711797   0.626   0.425   7.134 -1.0948 -1.1043  0.9542
   31MOL   H33811798   0.710   0.203   7.160 -1.7101  0.7309  0.3210
   31MOL   H33911799   0.706   0.173   6.991  0.2114 -1.1148  2.1730
   31MOL   H34011800   0.827   0.283   7.067  0.6611 -1.0749 -0.3981
   31MOL   H34111801   0.431   0.306   7.066 -0.6143 -0.0518  0.3284
   31MOL   H34211802   0.511   0.269   6.903  0.6476  0.7029 -0.2949
   31MOL   H34311803   0.436   0.426   6.954  1.3851  1.8200  1.2222
   31MOL   C34411804   0.728   0.774   6.746 -0.3358  0.0482  0.2838
   31MOL   C34511805   0.661   0.716   6.618  0.1607  0.2352  0.2045
   31MOL   C34611806   0.573   0.823   6.555 -0.3050  0.6644 -0.1655
   31MOL   O34711807   0.625   0.921   6.500 -0.3605  0.9453  0.0072
   31MOL   N34811808   0.439   0.807   6.549 -0.4681 -0.0167  0.3840
   31MOL   C34911809   0.351   0.908   6.495 -0.7451 -0.2771  0.9910
   31MOL   C35011810   0.220   0.848   6.451 -0.7427 -0.6938  0.5411
   31MOL   C35111811   0.344   1.032   6.595  0.3200  0.0927  0.5873
   31MOL   H35211812   0.799   0.849   6.710  0.4508 -0.0522  1.5519
   31MOL   H35311813   0.664   0.842   6.802 -0.2548 -0.7348  1.3560
   31MOL   H35411814   0.595   0.634   6.646 -0.8016  0.4348 -1.3570
   31MOL   H35511815   0.397   0.728   6.595 -0.8610 -0.6736 -1.0769
   31MOL   H35611816   0.398   0.941   6.402  2.0685  0.4242  2.6163
   31MOL   H35711817   0.168   0.799   6.533  0.0997 -0.3823  1.2672
   31MOL   H35811818   0.156   0.932   6.425 -0.1356 -0.5670 -0.5987
   31MOL   H35911819   0.225   0.789   6.359 -1.6220  0.9923 -0.6128
   31MOL   H36011820   0.278   1.112   6.561  3.2399  1.7826 -1.3497
   31MOL   H36111821   0.305   0.985   6.686 -0.6356 -0.0954  0.0906
   31MOL   H36211822   0.438   1.080   6.621  1.1331 -0.1807 -1.6954
   31MOL   C36311823   0.762   0.656   6.522 -0.5567 -0.7172  0.8867
   31MOL   C36411824   0.704   0.622   6.383 -0.3399 -0.0529 -0.3804
   31MOL   C36511825   0.610   0.512   6.372  0.1122 -0.4194  0.0652
   31MOL   O36611826   0.556   0.468   6.473  0.1985  0.2737 -0.3274
   31MOL   N36711827   0.579   0.463   6.246  0.7889  0.1512 -0.7364
   31MOL   C36811828   0.517   0.329   6.216  0.2928  0.6808  0.2322
   31MOL   C36911829   0.540   0.299   6.068  0.1031 -0.6737  0.6026
   31MOL   C37011830   0.571   0.212   6.300  0.5590 -0.3717 -0.1278
   31MOL   H37111831   0.798   0.563   6.566 -0.7976 -1.5712 -0.6903
   31MOL   H37211832   0.846   0.724   6.517 -1.6656  0.6321 -0.0667
   31MOL   H37311833   0.793   0.616   6.320 -0.7054 -2.9836 -0.6688
   31MOL   H37411834   0.611   0.520   6.169 -0.9241 -1.0862 -2.4052
   31MOL   H37511835   0.408   0.333   6.226  0.2453  0.5945 -0.2231
   31MOL   H37611836   0.644   0.274   6.045  0.0859 -1.2342  1.1278
   31MOL   H37711837   0.485   0.207   6.047 -1.1795  0.4395 -1.0184
   31MOL   H37811838   0.515   0.380   5.999  1.1697 -2.6631 -2.2468
   31MOL   H37911839   0.569   0.223   6.409  1.2279  0.9169 -0.2314
   31MOL   H38011840   0.495   0.134   6.299 -2.4793  2.3922  1.6572
   31MOL   H38111841   0.665   0.185   6.254  0.9622  1.6796 -0.5762
   31MOL   H38211842   0.647   0.706   6.343  2.5360  2.9768  1.6175
   32MOL     C111843   5.508   3.657   1.260 -0.3377  0.2205  0.2594
   32MOL     C211844   5.662   3.683   1.268  0.2704  0.9058  0.6304
   32MOL     C311845   5.693   3.815   1.339 -0.0269  1.0112  0.3490
   32MOL     O411846   5.656   3.820   1.459 -0.0220  0.1669 -0.1765
   32MOL     N511847   5.749   3.924   1.284  0.0409  0.5181 -0.1649
   32MOL     C611848   5.791   4.038   1.354  0.3247  0.1558  0.2931
   32MOL     C711849   5.922   4.091   1.297  0.0508 -0.0418 -0.7003
   32MOL     C811850   5.683   4.144   1.362 -0.2491 -0.2734 -1.0005
   32MOL     H911851   5.461   3.659   1.358  0.6134 -0.9854  0.7510
   32MOL    H1011852   5.488   3.559   1.217 -0.7897  0.3703  0.1315
   32MOL    H1111853   5.716   3.697   1.175 -1.6794 -0.7249 -0.7915
   32MOL    H1211854   5.778   3.924   1.187  0.7062 -0.3390  0.0342
   32MOL    H1311855   5.815   4.006   1.455 -0.6274  1.1720  0.8498
   32MOL    H1411856   6.006   4.026   1.275 -1.1481 -1.1428 -2.0926
   32MOL    H1511857   5.957   4.168   1.366  2.2085 -2.9302  1.5532
   32MOL    H1611858   5.907   4.142   1.202 -2.2584 -0.6741 -0.6988
   32MOL    H1711859   5.671   4.204   1.272 -1.5441 -0.5122 -0.9967
   32MOL    H1811860   5.589   4.093   1.381 -0.0720 -0.2415  0.0047
   32MOL    H1911861   5.697   4.208   1.449 -0.4281 -0.2227 -1.0107
   32MOL    H2011862   5.456   3.726   1.194 -2.1943 -0.7457  0.7025
   32MOL    C2111863   5.749   3.563   1.324  0.4071  0.2105  0.2059
   32MOL    C2211864   5.694   3.452   1.422 -0.1707  0.8939  0.0352
   32MOL    C2311865   5.755   3.481   1.565 -0.4022  0.0415 -0.4589
   32MOL    O2411866   5.800   3.391   1.633 -0.0015  0.1831 -0.0720
   32MOL    N2511867   5.736   3.606   1.613  0.0362 -0.2152 -0.9818
   32MOL    C2611868   5.814   3.664   1.727  0.3033  0.2911  0.2971
   32MOL    C2711869   5.745   3.657   1.865 -0.6060 -0.4719  0.2818
   32MOL    C2811870   5.854   3.807   1.692  0.5675  0.0212 -0.2272
   32MOL    H2911871   5.841   3.603   1.367  0.3831  0.6845 -0.1836
   32MOL    H3011872   5.781   3.505   1.238 -1.3713 -0.6456  0.0864
   32MOL    H3111873   5.586   3.468   1.420  0.1033  2.7170 -1.7972
   32MOL    H3211874   5.685   3.673   1.558  3.1260  2.6532 -0.5119
   32MOL    H3311875   5.900   3.600   1.744  0.5825  1.5320  4.0535
   32MOL    H3411876   5.649   3.709   1.855 -0.6398 -0.8614 -1.6373
   32MOL    H3511877   5.822   3.701   1.928  1.8163 -0.7481 -2.4078
   32MOL    H3611878   5.731   3.555   1.900 -2.0355 -0.4723 -0.2403
   32MOL    H3711879   5.901   3.812   1.593  0.6525  1.2855 -0.1275
   32MOL    H3811880   5.769   3.874   1.685 -1.0354 -1.6836  2.2936
   32MOL    H3911881   5.914   3.845   1.774 -0.9355  1.0596  0.4191
   32MOL    C4011882   5.738   3.317   1.373 -0.6974 -0.2221  0.2070
   32MOL    C4111883   5.660   3.189   1.427 -0.7800 -0.3017  0.1159
   32MOL    C4211884   5.754   3.065   1.416  0.1455 -0.6128 -0.0067
   32MOL    O4311885   5.791   3.023   1.305  0.4147  0.3343 -0.0498
   32MOL    N4411886   5.788   3.005   1.533 -0.1830  0.0598  0.1412
   32MOL    C4511887   5.875   2.898   1.552  0.1995 -0.5055  0.5003
   32MOL    C4611888   6.012   2.935   1.604 -0.2574  0.1713 -0.1113
   32MOL    C4711889   5.799   2.794   1.639 -0.3510  0.1444  1.0720
   32MOL    H4811890   5.845   3.312   1.395 -0.6069 -1.2633 -0.4708
   32MOL    H4911891   5.736   3.307   1.265 -1.6745  0.1214  0.1927
   32MOL    H5011892   5.637   3.214   1.531 -2.2793 -1.0783 -0.0165
   32MOL    H5111893   5.741   3.033   1.618  0.3762  3.6050 -0.6517
   32MOL    H5211894   5.885   2.848   1.455 -0.8792  1.4112 -0.6277
   32MOL    H5311895   6.068   2.994   1.531  1.3156 -1.6257 -0.3821
   32MOL    H5411896   6.069   2.846   1.630  2.1371  1.3737 -1.0973
   32MOL    H5511897   6.002   2.988   1.699  0.2326  0.9613 -0.4914
   32MOL    H5611898   5.842   2.694   1.644  1.2849  0.6330 -1.9568
   32MOL    H5711899   5.703   2.774   1.589  0.6373 -0.3654 -0.6730
   32MOL    H5811900   5.789   2.835   1.739  5.5135 -1.2358  2.3679
   32MOL    C5911901   5.526   3.170   1.356 -0.1646 -0.6826  0.1778
   32MOL    C6011902   5.447   3.050   1.410  0.2168 -0.4948 -0.3410
   32MOL    C6111903   5.416   2.953   1.294  0.4958 -0.1723 -0.7465
   32MOL    O6211904   5.312   2.970   1.232 -0.5876 -0.4876 -0.3661
   32MOL    N6311905   5.510   2.859   1.263 -0.4094 -0.0756 -0.0540
   32MOL    C6411906   5.496   2.736   1.170  0.8282 -0.0796  0.0055
   32MOL    C6511907   5.610   2.644   1.193 -0.0920  0.3682  0.1612
   32MOL    C6611908   5.358   2.662   1.198 -0.3288 -0.3373  0.4244
   32MOL    H6711909   5.464   3.259   1.366 -0.3714 -0.6233 -1.4096
   32MOL    H6811910   5.553   3.162   1.250  0.7591  2.8333  0.0803
   32MOL    H6911911   5.509   2.993   1.479 -1.1061 -0.4038  0.9542
   32MOL    H7011912   5.574   2.844   1.339 -2.7987  0.7880  2.1975
   32MOL    H7111913   5.504   2.765   1.066  1.5214  1.5524  0.5061
   32MOL    H7211914   5.594   2.546   1.148  0.2841  0.2719  0.2332
   32MOL    H7311915   5.705   2.681   1.152 -0.1157  0.3685  0.1068
   32MOL    H7411916   5.616   2.617   1.299 -1.5175  2.1801  0.7378
   32MOL    H7511917   5.280   2.734   1.177  0.8940  0.6237 -0.9425
   32MOL    H7611918   5.351   2.583   1.124  2.3766 -0.0257 -0.2196
   32MOL    H7711919   5.345   2.621   1.298  1.2530 -1.1670  0.3139
   32MOL    C7811920   5.333   3.098   1.503  0.5190 -0.6640  0.7605
   32MOL    C7911921   5.238   2.989   1.559 -0.1311  0.4579  0.0631
   32MOL    C8011922   5.306   2.882   1.638  0.2025 -0.0442 -0.3105
   32MOL    O8111923   5.354   2.912   1.748 -0.3868  0.1675  0.1661
   32MOL    N8211924   5.308   2.753   1.597  0.7052 -0.3939  0.2060
   32MOL    C8311925   5.304   2.641   1.689  0.7290 -0.6204 -0.2407
   32MOL    C8411926   5.174   2.558   1.674 -0.3625 -0.1562  0.1035
   32MOL    C8511927   5.418   2.543   1.665  0.7181  0.1323 -0.0299
   32MOL    H8611928   5.269   3.168   1.450 -1.6470 -3.2997 -0.2257
   32MOL    H8711929   5.376   3.148   1.590 -1.4764 -0.0021  1.3995
   32MOL    H8811930   5.195   2.946   1.469 -0.6068  2.6740 -0.7926
   32MOL    H8911931   5.265   2.732   1.508  2.3841  1.1191 -1.0105
   32MOL    H9011932   5.317   2.670   1.794  0.0646 -2.2236  0.3020
   32MOL    H9111933   5.088   2.614   1.712 -0.9406 -1.0262  0.0833
   32MOL    H9211934   5.155   2.514   1.576  0.0752 -0.6490  0.2375
   32MOL    H9311935   5.168   2.462   1.725 -1.9657 -0.0882  0.0789
   32MOL    H9411936   5.435   2.470   1.744  0.5945 -1.4287 -1.4225
   32MOL    H9511937   5.520   2.580   1.650  0.3298  0.3931 -2.1301
   32MOL    H9611938   5.399   2.481   1.578 -2.9964  0.8833  0.2014
   32MOL    C9711939   5.117   3.043   1.639 -0.0859 -0.1942 -0.0214
   32MOL    C9811940   4.990   2.957   1.665  1.3835  0.1258  0.0104
   32MOL    C9911941   4.915   2.941   1.530 -0.0190  0.4356 -0.0804
   32MOL   O10011942   4.839   3.032   1.496 -0.1229 -0.3157  0.1315
   32MOL   N10111943   4.931   2.828   1.460  0.7566  0.0233  0.0959
   32MOL   C10211944   4.876   2.814   1.329 -0.0060  0.0080  0.5110
   32MOL   C10311945   4.968   2.727   1.239 -0.9866 -0.0267 -0.4006
   32MOL   C10411946   4.729   2.758   1.337 -0.2728 -0.6789  0.3079
   32MOL   H10511947   5.084   3.134   1.588  0.2031 -0.6389 -1.0220
   32MOL   H10611948   5.145   3.078   1.738  1.5653 -0.1005 -0.5123
   32MOL   H10711949   5.023   2.854   1.684 -2.1427 -1.4195 -1.7801
   32MOL   H10811950   4.967   2.748   1.509  1.2526 -1.1520 -2.1395
   32MOL   H10911951   4.887   2.914   1.287 -2.1731  0.5283  1.1421
   32MOL   H11011952   5.067   2.772   1.250 -2.3082  3.2270 -1.1401
   32MOL   H11111953   4.965   2.629   1.286  0.7894 -0.6037 -1.4388
   32MOL   H11211954   4.927   2.730   1.138 -0.2664 -1.7670 -0.7645
   32MOL   H11311955   4.709   2.713   1.240  0.2538  0.0429 -0.1435
   32MOL   H11411956   4.652   2.833   1.358  0.1968  0.0976 -0.6765
   32MOL   H11511957   4.717   2.681   1.413 -0.1433 -0.9229  0.0781
   32MOL   C11611958   4.901   2.995   1.790  0.0761  0.1532 -0.3474
   32MOL   C11711959   4.791   2.888   1.815 -0.1569  0.6955 -1.2352
   32MOL   C11811960   4.674   2.953   1.887 -0.0726 -0.3926 -0.7671
   32MOL   O11911961   4.663   2.955   2.012 -0.3273  0.1757  0.0165
   32MOL   N12011962   4.583   3.012   1.811 -0.4763  0.4928  0.8215
   32MOL   C12111963   4.460   3.079   1.851  1.2798  0.0647 -0.6208
   32MOL   C12211964   4.405   3.152   1.734  0.3102  0.6575  0.4767
   32MOL   C12311965   4.356   2.977   1.898 -0.2054 -0.2299 -0.1302
   32MOL   H12411966   4.867   3.095   1.765 -0.2755 -0.0476 -0.6838
   32MOL   H12511967   4.959   2.997   1.882 -0.3666 -2.3528  0.0227
   32MOL   H12611968   4.747   2.850   1.722 -0.2521  1.0974 -1.3536
   32MOL   H12711969   4.593   3.012   1.711  3.6517 -0.6950  1.1650
   32MOL   H12811970   4.472   3.139   1.941 -0.2479  0.2929 -0.5637
   32MOL   H12911971   4.470   3.224   1.685 -0.8117  0.2671 -1.6445
   32MOL   H13011972   4.323   3.210   1.777 -1.1177 -0.9339 -0.0267
   32MOL   H13111973   4.368   3.083   1.658  0.1698  0.1400  1.0152
   32MOL   H13211974   4.306   2.937   1.810 -0.9219  0.9209 -0.2523
   32MOL   H13311975   4.392   2.889   1.952  3.3173  0.1811 -1.6188
   32MOL   H13411976   4.281   3.019   1.964 -1.1040 -0.0076 -1.2956
   32MOL   C13511977   4.839   2.759   1.883  0.2007  0.2463  0.1651
   32MOL   C13611978   4.734   2.647   1.907  0.7320 -0.2467 -0.1406
   32MOL   C13711979   4.645   2.618   1.782  0.1280  0.0548 -0.6359
   32MOL   O13811980   4.692   2.573   1.677  0.0398 -0.1258 -0.3287
   32MOL   N13911981   4.512   2.645   1.801 -0.4360 -0.3343  0.0657
   32MOL   C14011982   4.414   2.618   1.694  0.0070 -0.1077  0.9123
   32MOL   C14111983   4.426   2.712   1.568 -0.4235  0.1891 -0.1871
   32MOL   C14211984   4.273   2.622   1.754 -1.2322  0.0609  0.0596
   32MOL   H14311985   4.874   2.788   1.982 -1.0785  3.8699 -0.3673
   32MOL   H14411986   4.914   2.711   1.819  0.4789 -0.1002  0.7465
   32MOL   H14511987   4.666   2.680   1.986 -0.1768 -1.6905 -0.3040
   32MOL   H14611988   4.490   2.692   1.888 -0.1838 -1.7439  0.9018
   32MOL   H14711989   4.435   2.518   1.657  1.5537  0.7117 -0.5141
   32MOL   H14811990   4.345   2.685   1.500 -2.5099  0.6970  2.0101
   32MOL   H14911991   4.398   2.813   1.600  0.4699  0.4768 -0.2917
   32MOL   H15011992   4.524   2.709   1.520 -0.3205 -1.5553  0.1175
   32MOL   H15111993   4.245   2.717   1.797 -0.3035 -0.0938  1.0198
   32MOL   H15211994   4.264   2.544   1.829 -0.6998 -0.1102 -0.0477
   32MOL   H15311995   4.203   2.597   1.674 -0.2216 -1.7906 -0.2885
   32MOL   C15411996   4.798   2.517   1.966  0.0154 -0.3751  1.2198
   32MOL   C15511997   4.699   2.398   2.003 -0.6528 -0.4224 -0.0168
   32MOL   C15611998   4.599   2.436   2.113 -0.1121 -0.1667 -0.0991
   32MOL   O15711999   4.639   2.434   2.229 -0.5789 -0.9202  0.2911
   32MOL   N15812000   4.472   2.476   2.082  0.3044 -0.7218  0.6562
   32MOL   C15912001   4.374   2.507   2.185 -0.2572 -0.0743  0.6965
   32MOL   C16012002   4.247   2.423   2.155  0.4949 -0.2608 -0.1122
   32MOL   C16112003   4.346   2.657   2.191 -0.1344  0.0055 -0.1098
   32MOL   H16212004   4.866   2.548   2.045  0.7772  1.6364 -0.1663
   32MOL   H16312005   4.867   2.474   1.893 -0.9257 -1.2599  0.8360
   32MOL   H16412006   4.643   2.389   1.910 -1.6538 -2.4888  0.7577
   32MOL   H16512007   4.456   2.492   1.984  2.9265 -0.5301  0.2209
   32MOL   H16612008   4.403   2.479   2.287  2.4456  1.8755  0.5287
   32MOL   H16712009   4.173   2.434   2.234 -1.6611  1.0790 -2.2446
   32MOL   H16812010   4.199   2.439   2.059 -1.0519  0.6575  0.7978
   32MOL   H16912011   4.269   2.318   2.174 -0.5786 -0.6012 -0.7408
   32MOL   H17012012   4.267   2.682   2.261 -2.4684  0.3773 -2.8061
   32MOL   H17112013   4.319   2.688   2.090 -0.3242  0.6377  0.1352
   32MOL   H17212014   4.432   2.705   2.239 -0.4955  1.1741 -0.6222
   32MOL   C17312015   4.780   2.266   2.022  0.5346 -0.0437  0.4833
   32MOL   C17412016   4.703   2.134   2.015 -0.8591 -0.4327 -0.0791
   32MOL   C17512017   4.621   2.123   1.889 -0.2584  0.0616 -0.1681
   32MOL   O17612018   4.671   2.136   1.779  0.8648 -0.1411  0.0622
   32MOL   N17712019   4.492   2.092   1.908  0.4166  0.6214 -0.3580
   32MOL   C17812020   4.385   2.109   1.806  0.6313 -0.1580 -0.2369
   32MOL   C17912021   4.335   2.255   1.807 -0.0524  0.3255  0.2819
   32MOL   C18012022   4.266   2.008   1.819 -1.2806 -0.3506 -0.0644
   32MOL   H18112023   4.826   2.270   2.121  0.8042  1.6430  0.3098
   32MOL   H18212024   4.865   2.243   1.958 -0.3501 -2.1287  0.0089
   32MOL   H18312025   4.642   2.133   2.105  1.9450  1.0643  1.9329
   32MOL   H18412026   4.466   2.049   1.995  1.2548  1.5264  0.3520
   32MOL   H18512027   4.427   2.100   1.706 -0.1518 -0.4889 -0.5416
   32MOL   H18612028   4.420   2.320   1.782 -0.0655  0.7293  1.2666
   32MOL   H18712029   4.289   2.271   1.904  1.6872 -1.2006  1.3903
   32MOL   H18812030   4.274   2.289   1.724 -1.1935  0.3612  1.1322
   32MOL   H18912031   4.306   1.907   1.808  2.4602  1.1615 -1.1135
   32MOL   H19012032   4.194   2.030   1.739 -0.6749  0.2374 -0.4519
   32MOL   H19112033   4.206   2.001   1.910 -0.0068 -1.1664  0.7221
   32MOL   C19212034   4.810   2.012   2.027  0.1788 -0.1649  0.3249
   32MOL   C19312035   4.758   1.868   2.011  0.5392  0.2495 -0.2696
   32MOL   C19412036   4.645   1.833   2.105  0.2443  0.6116 -0.6771
   32MOL   O19512037   4.669   1.839   2.223  0.1493  0.4385 -0.5795
   32MOL   N19612038   4.529   1.788   2.051 -0.3009  0.3513  0.5281
   32MOL   C19712039   4.404   1.760   2.120  0.0489 -0.1090  0.1490
   32MOL   C19812040   4.423   1.649   2.226  0.3009  0.7705 -0.6087
   32MOL   C19912041   4.347   1.892   2.177 -0.7470 -0.1121  0.1617
   32MOL   H20012042   4.844   2.013   2.130  1.0050 -1.0917  0.0621
   32MOL   H20112043   4.898   2.035   1.968  0.1911  1.9698  1.1315
   32MOL   H20212044   4.721   1.871   1.908 -0.9262  1.4236  0.2716
   32MOL   H20312045   4.521   1.775   1.951  1.1369 -2.8918  0.7926
   32MOL   H20412046   4.333   1.732   2.042  0.9964  0.2272 -0.8472
   32MOL   H20512047   4.511   1.672   2.286  1.0509 -0.3261 -1.2768
   32MOL   H20612048   4.457   1.559   2.175 -0.4329  0.9104 -1.3669
   32MOL   H20712049   4.335   1.626   2.286 -1.3748 -0.2849 -3.3912
   32MOL   H20812050   4.416   1.940   2.246 -0.1445 -0.0483 -0.4842
   32MOL   H20912051   4.261   1.863   2.237 -0.3037 -1.8906 -0.0334
   32MOL   H21012052   4.319   1.969   2.104  2.4047  2.3503  1.4492
   32MOL   C21112053   4.886   1.768   2.015  0.2095  0.0785  1.1290
   32MOL   C21212054   4.860   1.636   1.936 -0.1309  0.0329  0.8373
   32MOL   C21312055   4.917   1.634   1.791  0.7209  0.0389  0.4740
   32MOL   O21412056   4.976   1.732   1.748 -0.1651 -0.2391 -0.0204
   32MOL   N21512057   4.890   1.525   1.711 -0.8442 -0.4525 -0.6763
   32MOL   C21612058   4.939   1.518   1.573  0.1519 -0.4023  0.1718
   32MOL   C21712059   4.822   1.467   1.478 -0.0699 -0.0292  0.3189
   32MOL   C21812060   5.070   1.436   1.571 -0.0666 -0.4653  0.8259
   32MOL   H21912061   4.879   1.733   2.118  1.2773  2.0575  1.8965
   32MOL   H22012062   4.980   1.812   1.984  0.3361 -1.6675 -1.0700
   32MOL   H22112063   4.755   1.623   1.911  0.8048 -0.3119 -3.3071
   32MOL   H22212064   4.834   1.451   1.751 -0.1068 -1.0823 -0.7886
   32MOL   H22312065   4.979   1.614   1.541  0.0454 -0.9842 -1.7734
   32MOL   H22412066   4.733   1.529   1.475  0.8271  1.2664  0.1785
   32MOL   H22512067   4.850   1.451   1.373  0.0384 -2.9361  0.7544
   32MOL   H22612068   4.790   1.373   1.523 -0.1607 -0.5237 -0.7523
   32MOL   H22712069   5.152   1.493   1.615  1.2403  0.8373 -3.0531
   32MOL   H22812070   5.105   1.393   1.476  0.7051  0.7484  0.5515
   32MOL   H22912071   5.038   1.347   1.626  0.7851 -1.4758 -0.2706
   32MOL   C23012072   4.902   1.513   2.021 -0.7528  0.4194 -0.3432
   32MOL   C23112073   4.785   1.426   2.074 -0.5505  0.5584 -0.2125
   32MOL   C23212074   4.692   1.374   1.961  0.1583 -0.1662 -0.1755
   32MOL   O23312075   4.736   1.328   1.862 -0.1744 -0.3428 -0.2324
   32MOL   N23412076   4.563   1.390   1.988 -0.8931 -0.3429  0.2372
   32MOL   C23512077   4.446   1.335   1.927  0.9314 -0.8820 -0.3655
   32MOL   C23612078   4.318   1.372   2.007 -0.6837  0.1358 -0.1535
   32MOL   C23712079   4.431   1.394   1.785 -0.2861  0.1056 -0.0621
   32MOL   H23812080   4.958   1.552   2.106  1.2501 -0.3137 -1.2887
   32MOL   H23912081   4.970   1.445   1.970 -1.8748 -3.0868  2.5768
   32MOL   H24012082   4.734   1.503   2.131 -1.6614 -0.2820 -0.0630
   32MOL   H24112083   4.546   1.411   2.085  0.7105 -0.8908  0.6525
   32MOL   H24212084   4.459   1.228   1.944  1.8288 -0.4066  2.1714
   32MOL   H24312085   4.277   1.473   1.995  0.2744  0.8772  2.4489
   32MOL   H24412086   4.235   1.303   1.990 -1.7618  0.7219  2.4825
   32MOL   H24512087   4.343   1.361   2.112 -0.8579  2.8489  0.2084
   32MOL   H24612088   4.432   1.503   1.782 -1.8238  0.1457  0.4353
   32MOL   H24712089   4.337   1.373   1.734 -1.0434  2.6280  0.2206
   32MOL   H24812090   4.511   1.354   1.724  0.5313 -1.2770  1.8505
   32MOL   C24912091   4.842   1.307   2.152 -0.0121  0.1945  0.0321
   32MOL   C25012092   4.737   1.234   2.236 -0.5242 -0.0127  0.8879
   32MOL   C25112093   4.654   1.327   2.315  0.5138  0.1876 -0.2063
   32MOL   O25212094   4.528   1.326   2.298  0.0477  0.3862  0.3145
   32MOL   N25312095   4.705   1.418   2.395 -0.2221  0.0965  0.1699
   32MOL   C25412096   4.629   1.501   2.489  0.0155 -0.0228 -0.3255
   32MOL   C25512097   4.606   1.412   2.613 -0.4587 -0.6798  0.1448
   32MOL   C25612098   4.703   1.624   2.514  0.8328  0.0574 -0.4012
   32MOL   H25712099   4.913   1.334   2.230 -0.6378  1.7893  0.0491
   32MOL   H25812100   4.891   1.242   2.079 -1.9985 -0.1516 -1.0230
   32MOL   H25912101   4.682   1.174   2.164  1.0010  0.2141 -0.4960
   32MOL   H26012102   4.806   1.426   2.400 -0.3782  2.6601 -0.0308
   32MOL   H26112103   4.531   1.530   2.452 -0.3303 -1.4979 -0.5876
   32MOL   H26212104   4.696   1.400   2.674  0.5381 -0.0233 -1.1831
   32MOL   H26312105   4.517   1.436   2.671  0.0844  1.4472  0.1249
   32MOL   H26412106   4.583   1.309   2.586 -0.4332 -1.2628  2.2448
   32MOL   H26512107   4.652   1.684   2.589  1.1775  1.2297 -1.0808
   32MOL   H26612108   4.807   1.603   2.537  0.7903 -0.5194 -0.7196
   32MOL   H26712109   4.699   1.683   2.422  0.6825 -0.1657 -0.5357
   32MOL   C26812110   4.811   1.141   2.339  0.2460  0.7073 -0.5093
   32MOL   C26912111   4.731   1.051   2.425 -0.2624  0.6114  0.2359
   32MOL   C27012112   4.627   0.968   2.339 -0.2745 -0.2186  0.4996
   32MOL   O27112113   4.669   0.900   2.247  0.0293  0.4443 -0.0091
   32MOL   N27212114   4.497   0.979   2.366  0.3386 -0.1843 -0.4602
   32MOL   C27312115   4.381   0.943   2.288 -0.2786 -0.3366  0.2322
   32MOL   C27412116   4.252   0.948   2.359  0.0377 -0.0495 -0.0372
   32MOL   C27512117   4.381   1.035   2.163  0.1397  0.4722  0.3559
   32MOL   H27612118   4.878   1.076   2.281 -0.4929 -0.6244  0.1031
   32MOL   H27712119   4.884   1.191   2.402 -0.3765 -1.8795  2.3915
   32MOL   H27812120   4.686   1.121   2.496  2.8479  1.1386  1.7663
   32MOL   H27912121   4.478   1.035   2.447  1.5144  0.0977 -0.3614
   32MOL   H28012122   4.395   0.843   2.245  3.1305  0.3703 -0.4793
   32MOL   H28112123   4.224   1.039   2.412 -2.6805 -2.2889  2.5557
   32MOL   H28212124   4.170   0.942   2.288 -0.0985  0.8606  0.0409
   32MOL   H28312125   4.249   0.869   2.434 -1.2772  0.6093  0.6165
   32MOL   H28412126   4.474   1.038   2.107 -0.8181  0.1100 -1.2612
   32MOL   H28512127   4.315   0.993   2.088 -0.8058  0.7258  1.0360
   32MOL   H28612128   4.347   1.135   2.190 -0.7954 -0.0492  1.1115
   32MOL   C28712129   4.827   0.958   2.501  0.3272 -0.1456 -0.0883
   32MOL   C28812130   4.783   0.913   2.640 -0.1115 -0.3495 -0.4100
   32MOL   C28912131   4.665   0.813   2.644  0.5954  0.0359 -0.8004
   32MOL   O29012132   4.566   0.831   2.717 -0.2223  0.0680  0.9004
   32MOL   N29112133   4.675   0.703   2.569  0.0231 -0.0263  0.1847
   32MOL   C29212134   4.583   0.585   2.572  0.2412 -0.5629 -0.1042
   32MOL   C29312135   4.447   0.615   2.515  0.1167 -0.1632 -0.0521
   32MOL   C29412136   4.650   0.464   2.507  0.1470  0.5311 -0.0583
   32MOL   H29512137   4.864   0.869   2.451 -0.2249 -1.9831  2.6597
   32MOL   H29612138   4.928   1.000   2.504 -0.0461  0.7178  0.8337
   32MOL   H29712139   4.865   0.864   2.691  0.1300  2.2297  1.8096
   32MOL   H29812140   4.757   0.699   2.511  0.6811  0.4426  1.0569
   32MOL   H29912141   4.573   0.552   2.676  0.2822 -0.1147  0.0432
   32MOL   H30012142   4.448   0.630   2.407 -1.5909 -1.9099 -0.3581
   32MOL   H30112143   4.373   0.539   2.541  0.5874  0.4708  3.3762
   32MOL   H30212144   4.406   0.699   2.570 -1.3427 -0.0228 -1.2954
   32MOL   H30312145   4.652   0.469   2.398  2.8611  1.7964  0.0087
   32MOL   H30412146   4.753   0.444   2.536 -0.1289  0.1385  0.6648
   32MOL   H30512147   4.598   0.371   2.529  1.0045 -0.1360 -0.8332
   32MOL   C30612148   4.755   1.034   2.733 -0.5597 -0.0079 -0.4888
   32MOL   C30712149   4.768   1.009   2.889  0.4286 -0.1913  0.2859
   32MOL   C30812150   4.655   1.089   2.970 -0.7718 -0.1883 -0.1576
   32MOL   O30912151   4.685   1.171   3.058  0.1542 -0.0830 -0.1361
   32MOL   N31012152   4.532   1.073   2.925 -0.2522  0.4141 -0.2897
   32MOL   C31112153   4.413   1.166   2.943 -0.7633 -0.0421  0.4588
   32MOL   C31212154   4.363   1.200   2.802 -0.1110  0.9730  0.8537
   32MOL   C31312155   4.307   1.094   3.022 -1.2489 -0.5650 -0.1226
   32MOL   H31412156   4.818   1.116   2.697 -0.4061  0.2945  0.4558
   32MOL   H31512157   4.653   1.069   2.719 -0.2385  0.5983 -1.3659
   32MOL   H31612158   4.726   0.909   2.901 -0.1519 -0.2317 -1.9287
   32MOL   H31712159   4.516   1.006   2.851 -0.4698  1.1867 -0.9527
   32MOL   H31812160   4.446   1.261   2.986  0.6047 -0.0370 -0.5595
   32MOL   H31912161   4.315   1.113   2.755 -1.0515  1.6784  0.4931
   32MOL   H32012162   4.448   1.219   2.736 -1.1602 -0.8514 -1.1225
   32MOL   H32112163   4.290   1.279   2.786  0.9307  1.3575 -2.4763
   32MOL   H32212164   4.281   0.994   2.987  0.2387 -1.2269  0.6420
   32MOL   H32312165   4.214   1.151   3.023 -1.3361 -0.7015 -0.3242
   32MOL   H32412166   4.329   1.101   3.128  1.4006  0.2888 -0.7069
   32MOL   C32512167   4.907   1.024   2.949 -0.2744  0.3665 -0.0951
   32MOL   C32612168   4.940   0.944   3.076 -0.2761 -0.2867 -0.4181
   32MOL   C32712169   4.927   0.795   3.049 -0.8003  0.0554 -0.0599
   32MOL   O32812170   4.979   0.741   2.946 -0.2567 -0.3332 -0.6687
   32MOL   N32912171   4.861   0.724   3.140 -0.0769  0.1543  0.5454
   32MOL   C33012172   4.847   0.579   3.130 -0.0893  0.3344 -0.0212
   32MOL   C33112173   4.740   0.530   3.237 -0.1029  0.0118 -0.3442
   32MOL   C33212174   4.979   0.517   3.166  0.7194 -0.7301 -0.8768
   32MOL   H33312175   4.916   1.130   2.973  0.1793  0.7678 -1.9555
   32MOL   H33412176   4.989   1.004   2.880 -0.9102 -1.2294 -0.3964
   32MOL   H33512177   4.867   0.962   3.155  0.3865 -1.5147  0.4919
   32MOL   H33612178   4.825   0.773   3.220 -0.2804  1.1136 -0.1255
   32MOL   H33712179   4.823   0.538   3.031  0.0707  1.2930 -0.4614
   32MOL   H33812180   4.794   0.536   3.332  0.0601  1.6297 -0.5340
   32MOL   H33912181   4.654   0.597   3.247  1.4762  1.7841  2.1935
   32MOL   H34012182   4.709   0.426   3.229  0.9562 -0.4774  1.5658
   32MOL   H34112183   5.021   0.568   3.253  1.3151 -1.9060 -0.4676
   32MOL   H34212184   5.036   0.512   3.073  0.3677 -3.1703 -0.9896
   32MOL   H34312185   4.961   0.414   3.196  1.9852 -1.7528 -3.4264
   32MOL   C34412186   5.082   0.976   3.128 -0.4227 -0.1767  0.5346
   32MOL   C34512187   5.101   1.105   3.201 -0.0462 -0.3938 -0.5468
   32MOL   C34612188   5.014   1.103   3.329  0.1046  0.3290 -0.4286
   32MOL   O34712189   5.052   1.046   3.430  0.5271 -0.2598 -0.2586
   32MOL   N34812190   4.900   1.174   3.318  0.1344  0.0600 -0.3388
   32MOL   C34912191   4.805   1.190   3.431 -0.6603 -1.0818 -0.1985
   32MOL   C35012192   4.716   1.315   3.401 -0.8172  0.0561 -0.3484
   32MOL   C35112193   4.714   1.061   3.439 -0.1786  0.1260  0.3968
   32MOL   H35212194   5.158   0.973   3.050 -0.5403  0.4059  0.3979
   32MOL   H35312195   5.125   0.901   3.195  0.1473 -0.5291 -0.2226
   32MOL   H35412196   5.066   1.183   3.133 -1.4093  0.1903  0.7985
   32MOL   H35512197   4.877   1.225   3.233  0.0727 -2.0566 -1.6199
   32MOL   H35612198   4.860   1.209   3.524  0.4056 -1.0651 -0.8256
   32MOL   H35712199   4.775   1.406   3.412  0.4690 -0.6559 -1.3400
   32MOL   H35812200   4.647   1.304   3.318 -2.7954 -0.0533  1.2603
   32MOL   H35912201   4.636   1.320   3.476 -0.0960 -1.3159  0.5436
   32MOL   H36012202   4.762   0.972   3.479  0.4696 -1.2446 -3.1584
   32MOL   H36112203   4.633   1.083   3.508  0.7308 -0.3348  1.6359
   32MOL   H36212204   4.667   1.035   3.344  0.0311  1.2192 -0.0211
   32MOL   C36312205   5.248   1.139   3.229 -0.3126  0.0774 -0.0374
   32MOL   C36412206   5.261   1.281   3.299  0.2146  0.6129  0.6154
   32MOL   C36512207   5.293   1.391   3.195 -0.1532  0.0379 -0.4536
   32MOL   O36612208   5.265   1.377   3.077 -0.1189 -0.4137 -0.1299
   32MOL   N36712209   5.361   1.494   3.237 -0.1462 -0.5382 -0.0561
   32MOL   C36812210   5.410   1.608   3.165  0.2356  1.0347  0.6496
   32MOL   C36912211   5.306   1.664   3.058  0.0029 -0.0118  0.0517
   32MOL   C37012212   5.443   1.709   3.278 -0.4080  0.5643  0.7836
   32MOL   H37112213   5.295   1.146   3.132 -0.9796  0.4319 -0.3382
   32MOL   H37212214   5.302   1.059   3.281  0.2371  0.2011 -0.4188
   32MOL   H37312215   5.347   1.267   3.364  1.6185  0.3316 -1.2477
   32MOL   H37412216   5.387   1.484   3.334 -1.5714 -1.8906  0.2057
   32MOL   H37512217   5.506   1.596   3.116 -0.2950  0.6687 -0.3205
   32MOL   H37612218   5.340   1.759   3.018 -0.9927 -0.6348 -2.3883
   32MOL   H37712219   5.300   1.602   2.968  0.6672  0.5829 -0.4085
   32MOL   H37812220   5.208   1.664   3.104  0.0659 -1.8018  0.2258
   32MOL   H37912221   5.444   1.811   3.240 -2.7326  0.3371  0.0060
   32MOL   H38012222   5.370   1.703   3.359 -2.2926 -0.3000 -0.9349
   32MOL   H38112223   5.534   1.689   3.334 -0.2718  0.3086  0.4700
   32MOL   H38212224   5.178   1.307   3.365  0.8755 -1.1757  2.2100
   33MOL     C112225   0.025   4.355   3.069  0.4953  0.0792  0.1611
   33MOL     C212226   7.714   4.310   3.051 -0.1482  0.3192 -0.4289
   33MOL     C312227   7.660   4.377   2.922  0.3732  0.0575 -0.3339
   33MOL     O412228   7.735   4.371   2.827  0.0598 -0.5390  0.0107
   33MOL     N512229   7.538   4.429   2.927 -0.1013 -0.7126 -0.0907
   33MOL     C612230   7.470   4.489   2.816 -0.3695 -0.2936  0.1318
   33MOL     C712231   7.335   4.552   2.847  0.4606 -0.3405  0.3603
   33MOL     C812232   7.558   4.593   2.737  0.1175  0.0114  0.0218
   33MOL     H912233   0.065   4.312   3.161  2.0745 -0.6940 -0.8700
   33MOL    H1012234   0.029   4.464   3.070  1.2269  0.0650 -1.2089
   33MOL    H1112235   7.653   4.339   3.137 -1.5928 -0.2249 -1.2532
   33MOL    H1212236   7.482   4.431   3.011 -0.8037 -1.1920 -0.5480
   33MOL    H1312237   7.456   4.402   2.752 -2.7137 -1.0397  1.5903
   33MOL    H1412238   7.307   4.603   2.755  0.9930 -0.4806  0.1141
   33MOL    H1512239   7.347   4.622   2.929 -1.5500 -0.4148  0.7361
   33MOL    H1612240   7.250   4.488   2.869 -0.5240  0.6996 -0.3871
   33MOL    H1712241   7.525   4.602   2.633 -1.6517  0.3698  0.6055
   33MOL    H1812242   7.545   4.697   2.768  1.1070  0.2906 -0.4576
   33MOL    H1912243   7.662   4.568   2.717  0.6622  1.2014  1.3103
   33MOL    H2012244   0.074   4.312   2.982  1.4722  2.5166 -0.5254
   33MOL    C2112245   7.702   4.159   3.046 -0.6576 -0.9298 -1.2319
   33MOL    C2212246   7.566   4.093   3.009 -0.1178  0.3436 -0.1221
   33MOL    C2312247   7.450   4.135   3.105 -0.7634  0.5167  0.1961
   33MOL    O2412248   7.447   4.107   3.222 -0.1508 -0.0882 -0.6432
   33MOL    N2512249   7.340   4.193   3.047 -0.2512  0.2040  0.0481
   33MOL    C2612250   7.221   4.239   3.120 -0.4399  1.2560 -0.3680
   33MOL    C2712251   7.111   4.269   3.018 -0.1276  0.3371 -0.2938
   33MOL    C2812252   7.248   4.372   3.195  0.9043 -0.0101 -0.2037
   33MOL    H2912253   7.732   4.122   3.145 -0.6704 -3.5598 -2.1766
   33MOL    H3012254   7.767   4.127   2.965  0.7509 -0.6195 -0.2415
   33MOL    H3112255   7.533   4.123   2.909  2.3997  0.8797 -0.8359
   33MOL    H3212256   7.342   4.201   2.946  0.3295  1.6930  0.1538
   33MOL    H3312257   7.192   4.154   3.182  2.3354  1.1124  0.7998
   33MOL    H3412258   7.136   4.358   2.961 -2.8931  0.5899 -1.1829
   33MOL    H3512259   7.014   4.290   3.063  0.4887  0.3902  1.0276
   33MOL    H3612260   7.094   4.188   2.947 -1.1293  1.4411 -1.3500
   33MOL    H3712261   7.322   4.436   3.147  0.3968  0.7328 -0.0093
   33MOL    H3812262   7.159   4.431   3.217 -0.8609 -1.9008 -1.9996
   33MOL    H3912263   7.293   4.346   3.291  0.8818  1.8352  0.3266
   33MOL    C4012264   7.593   3.937   3.009 -0.2557 -0.4194 -0.2418
   33MOL    C4112265   7.469   3.848   2.991  0.2885  0.4949  0.3085
   33MOL    C4212266   7.491   3.705   3.046  0.4157 -0.7393 -0.1160
   33MOL    O4312267   7.597   3.673   3.097  0.3549 -0.7730  0.3009
   33MOL    N4412268   7.392   3.616   3.033  0.4630 -0.4313 -0.7310
   33MOL    C4512269   7.394   3.477   3.078 -0.4481  0.3231  0.0712
   33MOL    C4612270   7.257   3.418   3.030 -0.8481  0.1266  0.3934
   33MOL    C4712271   7.500   3.395   3.008 -0.6411 -0.3562 -0.3617
   33MOL    H4812272   7.652   3.913   3.097 -2.9634  2.4409  2.4885
   33MOL    H4912273   7.665   3.917   2.930 -0.2133 -1.1287 -0.0310
   33MOL    H5012274   7.394   3.881   3.063 -0.0663  0.2118  0.0662
   33MOL    H5112275   7.305   3.653   2.998  1.5894  1.1432 -1.9288
   33MOL    H5212276   7.408   3.476   3.186 -0.0262  1.4703  0.0316
   33MOL    H5312277   7.256   3.429   2.922  2.7771 -2.2179  0.0201
   33MOL    H5412278   7.172   3.468   3.077  0.5466  2.3116  0.6402
   33MOL    H5512279   7.248   3.311   3.053 -0.3198 -0.1947 -0.8902
   33MOL    H5612280   7.601   3.429   3.030 -0.0481 -1.7875 -0.8115
   33MOL    H5712281   7.485   3.395   2.900 -0.9345 -0.7310 -0.3233
   33MOL    H5812282   7.504   3.296   3.052 -1.0219 -0.0343  0.4037
   33MOL    C5912283   7.410   3.855   2.848 -0.6235  0.2083  0.2403
   33MOL    C6012284   7.277   3.926   2.827  0.4057  0.1242 -0.1718
   33MOL    C6112285   7.172   3.862   2.919  0.2230 -0.1818  0.0929
   33MOL    O6212286   7.135   3.747   2.896  0.3164 -0.3945 -0.5433
   33MOL    N6312287   7.139   3.927   3.025  0.1594  0.0346  0.9045
   33MOL    C6412288   7.046   3.880   3.131  0.9715 -0.3337  0.0460
   33MOL    C6512289   7.136   3.859   3.259  1.0335  0.1833  0.0301
   33MOL    C6612290   6.934   3.988   3.149  0.2588 -0.2090  0.3180
   33MOL    H6712291   7.481   3.895   2.775 -0.3768 -0.5821  0.0391
   33MOL    H6812292   7.390   3.752   2.818  1.2915 -0.3155  0.6834
   33MOL    H6912293   7.291   4.030   2.857 -1.2171  0.1793  0.4439
   33MOL    H7012294   7.178   4.020   3.029  1.0440 -0.3785  2.4539
   33MOL    H7112295   6.992   3.791   3.100  0.3597  0.3485 -0.9125
   33MOL    H7212296   7.209   3.784   3.231 -1.0093 -1.1656 -1.8784
   33MOL    H7312297   7.202   3.942   3.283 -0.0659  0.1730  3.3482
   33MOL    H7412298   7.090   3.819   3.349 -0.6118  0.5819 -0.5964
   33MOL    H7512299   6.882   3.962   3.241 -2.4994  1.2486 -0.7614
   33MOL    H7612300   6.978   4.085   3.174 -1.4907 -0.0721  3.0198
   33MOL    H7712301   6.864   4.004   3.067 -0.1751 -2.1180  0.2881
   33MOL    C7812302   7.222   3.924   2.682 -0.1310 -0.5077 -0.1395
   33MOL    C7912303   7.098   4.006   2.647 -0.6831  0.5051 -0.2496
   33MOL    C8012304   7.134   4.150   2.599  0.3292 -0.4323  0.2022
   33MOL    O8112305   7.183   4.224   2.682 -0.3838 -0.3996 -0.4532
   33MOL    N8212306   7.093   4.183   2.475  0.3882 -0.5648 -0.2896
   33MOL    C8312307   7.089   4.316   2.410 -0.3046 -0.4471  0.3694
   33MOL    C8412308   7.013   4.304   2.272 -0.3001 -0.3251  0.2901
   33MOL    C8512309   7.016   4.425   2.492 -0.4261  0.5850 -0.0073
   33MOL    H8612310   7.232   3.828   2.633  1.3587  0.1198 -1.1131
   33MOL    H8712311   7.305   3.962   2.623 -0.1555  0.3964  0.4009
   33MOL    H8812312   7.048   4.014   2.743 -0.2505  2.7551 -0.1993
   33MOL    H8912313   7.057   4.104   2.424 -1.0176  0.9382 -1.6915
   33MOL    H9012314   7.191   4.347   2.387 -0.3756 -0.0807  0.5451
   33MOL    H9112315   6.906   4.290   2.283 -0.3900  0.0389 -0.1138
   33MOL    H9212316   7.033   4.396   2.216  0.5985 -1.0494 -0.6070
   33MOL    H9312317   7.051   4.219   2.216  0.9160  0.7371 -0.5431
   33MOL    H9412318   7.069   4.442   2.586  1.1428  0.4862 -0.8592
   33MOL    H9512319   6.918   4.386   2.522 -0.3683 -0.9562 -1.7401
   33MOL    H9612320   6.991   4.514   2.435 -1.4523 -0.9142 -1.9890
   33MOL    C9712321   7.005   3.928   2.552 -0.3067 -0.9412  0.2931
   33MOL    C9812322   6.855   3.977   2.532 -0.0856  0.0670 -1.0283
   33MOL    C9912323   6.776   4.001   2.661  0.2852  0.0945 -0.1309
   33MOL   O10012324   6.771   3.916   2.751 -0.4779 -0.7407 -0.2245
   33MOL   N10112325   6.741   4.130   2.672 -0.1874  0.6066  0.8124
   33MOL   C10212326   6.683   4.196   2.789 -0.5823 -0.7388  0.6777
   33MOL   C10312327   6.788   4.283   2.859 -0.5936 -0.7897  0.1924
   33MOL   C10412328   6.553   4.283   2.760 -0.4263 -0.1720 -0.1350
   33MOL   H10512329   7.003   3.829   2.597 -1.1060 -0.8775  0.4153
   33MOL   H10612330   7.060   3.902   2.462 -1.5640  0.1075 -0.8008
   33MOL   H10712331   6.862   4.068   2.471 -1.7735  0.4751 -0.6298
   33MOL   H10812332   6.773   4.197   2.604 -2.1987  1.3261  0.5358
   33MOL   H10912333   6.659   4.118   2.861 -0.2183 -1.1537  0.3495
   33MOL   H11012334   6.759   4.275   2.964 -1.2568 -1.0286 -0.0045
   33MOL   H11112335   6.888   4.242   2.851  0.9050  2.5154  0.9383
   33MOL   H11212336   6.785   4.390   2.835 -1.0820 -1.0447 -0.9106
   33MOL   H11312337   6.474   4.219   2.719 -1.1865  1.0159 -0.5416
   33MOL   H11412338   6.565   4.369   2.694  1.0933 -0.6288 -0.4678
   33MOL   H11512339   6.518   4.310   2.860  0.2244  1.3529 -0.3182
   33MOL   C11612340   6.788   3.866   2.446 -0.5240  0.2115  0.1724
   33MOL   C11712341   6.661   3.904   2.374 -0.7210  1.1301 -0.1518
   33MOL   C11812342   6.701   4.005   2.262  0.5502 -0.7576 -0.3701
   33MOL   O11912343   6.810   4.019   2.211 -0.0306 -0.3853  0.0087
   33MOL   N12012344   6.602   4.086   2.229  0.2321 -0.1623  0.1511
   33MOL   C12112345   6.608   4.212   2.151  0.3850 -0.0148 -0.0298
   33MOL   C12212346   6.501   4.205   2.046 -0.3386 -0.6332  0.4382
   33MOL   C12312347   6.578   4.334   2.239 -0.1205  1.0042  0.4696
   33MOL   H12412348   6.765   3.780   2.508 -2.9613  0.8406  0.1889
   33MOL   H12512349   6.870   3.833   2.382  0.5404  0.9761  1.1304
   33MOL   H12612350   6.638   3.809   2.324 -0.6161  0.4202  1.1287
   33MOL   H12712351   6.509   4.063   2.260  0.4041 -1.0177  0.0635
   33MOL   H12812352   6.706   4.227   2.104  0.5863 -2.0400 -0.2841
   33MOL   H12912353   6.404   4.183   2.090 -0.0073  1.9827  2.5638
   33MOL   H13012354   6.529   4.121   1.982  2.5345  1.1011 -0.6827
   33MOL   H13112355   6.490   4.291   1.981  1.4508 -0.7233 -0.0195
   33MOL   H13212356   6.481   4.323   2.288  0.6458 -1.7460  1.4829
   33MOL   H13312357   6.650   4.323   2.321  1.8909 -2.9241 -1.6566
   33MOL   H13412358   6.576   4.429   2.185 -1.4632  0.1187 -1.0944
   33MOL   C13512359   6.532   3.936   2.453 -0.0072 -0.5153  0.3278
   33MOL   C13612360   6.496   3.831   2.558  0.6735  0.0559  0.8929
   33MOL   C13712361   6.390   3.892   2.658  0.5521  1.0901 -0.3773
   33MOL   O13812362   6.285   3.932   2.610  0.9121  0.1536  0.1974
   33MOL   N13912363   6.442   3.896   2.780  0.7944  0.2204 -0.4995
   33MOL   C14012364   6.355   3.929   2.901 -0.4849  0.5149  0.3592
   33MOL   C14112365   6.322   4.077   2.916 -0.0898 -0.1040 -0.6521
   33MOL   C14212366   6.426   3.877   3.029 -0.1814  0.3051  1.0095
   33MOL   H14312367   6.450   3.949   2.383  1.5879  0.2072 -1.4502
   33MOL   H14412368   6.546   4.031   2.505 -2.8113  0.9134 -1.4477
   33MOL   H14512369   6.588   3.806   2.611  1.6974 -0.2885 -0.9882
   33MOL   H14612370   6.531   3.855   2.801  0.5830 -1.0447 -1.9477
   33MOL   H14712371   6.263   3.873   2.885  0.1599 -0.9542  1.6269
   33MOL   H14812372   6.273   4.123   2.830 -1.8716  0.4700  0.6244
   33MOL   H14912373   6.256   4.089   3.002  1.4311 -1.3192  0.7079
   33MOL   H15012374   6.413   4.132   2.940  0.6124 -1.0323 -1.1534
   33MOL   H15112375   6.455   3.772   3.019 -0.9550  0.1713  0.0840
   33MOL   H15212376   6.349   3.884   3.105 -1.6297  2.1547 -0.5518
   33MOL   H15312377   6.504   3.950   3.051  0.2658  0.2462 -0.3035
   33MOL   C15412378   6.451   3.698   2.493 -0.5351 -0.9106 -0.2511
   33MOL   C15512379   6.431   3.579   2.598  0.0699  0.1552  0.0878
   33MOL   C15612380   6.573   3.520   2.640  0.6329  0.5826  0.5511
   33MOL   O15712381   6.649   3.478   2.547  0.3932  0.2722  0.8267
   33MOL   N15812382   6.603   3.503   2.770 -0.1020  0.4760 -0.1104
   33MOL   C15912383   6.724   3.453   2.832  0.4205 -0.1779  0.1828
   33MOL   C16012384   6.691   3.436   2.978  0.6502  0.6795 -0.3918
   33MOL   C16112385   6.840   3.550   2.813 -0.5347 -0.4307  0.3613
   33MOL   H16212386   6.535   3.673   2.428  0.5769  1.0483  0.3875
   33MOL   H16312387   6.359   3.719   2.438 -0.0840  1.6435 -0.1149
   33MOL   H16412388   6.390   3.621   2.690  0.8963 -0.1588  0.6049
   33MOL   H16512389   6.527   3.512   2.836  0.9319  3.8856  0.7479
   33MOL   H16612390   6.740   3.368   2.766 -1.0779  0.9859 -1.7253
   33MOL   H16712391   6.685   3.531   3.032  2.3718  1.2406 -1.1591
   33MOL   H16812392   6.600   3.379   2.995 -0.8859  3.2966  0.5069
   33MOL   H16912393   6.781   3.388   3.015  1.6297  1.5809 -1.5782
   33MOL   H17012394   6.808   3.647   2.778  1.5316  0.1668  0.0423
   33MOL   H17112395   6.894   3.518   2.724  1.8285  0.6178  1.3709
   33MOL   H17212396   6.915   3.563   2.892 -0.0349 -0.0214 -0.1759
   33MOL   C17312397   6.307   3.483   2.572 -0.6449  0.0769  0.1675
   33MOL   C17412398   6.225   3.424   2.690  0.3048 -0.2134 -0.1361
   33MOL   C17512399   6.308   3.305   2.747 -0.1777  0.7501  0.0567
   33MOL   O17612400   6.371   3.317   2.856 -0.2934  0.3561  0.5319
   33MOL   N17712401   6.324   3.190   2.684 -0.2772  0.6950 -0.2084
   33MOL   C17812402   6.375   3.070   2.743  0.9269  0.1156 -0.2237
   33MOL   C17912403   6.404   2.967   2.634 -0.5810  0.3603  0.4303
   33MOL   C18012404   6.287   3.010   2.849  0.5651  0.1413 -0.4049
   33MOL   H18112405   6.335   3.402   2.504  2.2611 -0.4828  1.9641
   33MOL   H18212406   6.248   3.541   2.500 -0.5478 -1.5809 -1.2862
   33MOL   H18312407   6.132   3.375   2.658  0.3571  0.7783 -1.8405
   33MOL   H18412408   6.291   3.178   2.590 -2.2585 -0.1448  0.5714
   33MOL   H18512409   6.471   3.086   2.791  0.6876 -1.5732  0.8690
   33MOL   H18612410   6.310   2.934   2.590 -0.0279 -0.4424 -0.1670
   33MOL   H18712411   6.460   2.881   2.670 -1.3053 -1.4114 -2.4839
   33MOL   H18812412   6.458   3.007   2.548 -1.1952 -0.3737 -0.3060
   33MOL   H18912413   6.268   3.085   2.926 -1.9010  0.6886 -1.5027
   33MOL   H19012414   6.319   2.912   2.885  4.2147  1.9508  1.5531
   33MOL   H19112415   6.192   2.984   2.802  0.5443 -2.2332  0.8403
   33MOL   C19212416   6.187   3.530   2.803 -0.2257  0.8755  0.0945
   33MOL   C19312417   6.064   3.493   2.893  0.1452 -0.9459  0.0369
   33MOL   C19412418   5.949   3.605   2.883  0.6459 -0.0030 -0.6992
   33MOL   O19512419   5.839   3.575   2.840  0.7351 -0.3760 -0.1310
   33MOL   N19612420   5.979   3.723   2.936  0.5934  0.0392 -0.7464
   33MOL   C19712421   5.900   3.848   2.950 -1.1429 -0.1412 -0.1806
   33MOL   C19812422   5.812   3.853   3.071  0.4735 -0.0521 -0.5739
   33MOL   C19912423   5.997   3.967   2.948 -0.0343 -0.2214  0.9456
   33MOL   H20012424   6.161   3.623   2.752 -0.8277  0.7449  0.1530
   33MOL   H20112425   6.277   3.557   2.857 -1.0717  0.4751  1.7131
   33MOL   H20212426   6.013   3.403   2.858  0.5374 -1.8193  1.6501
   33MOL   H20312427   6.057   3.716   2.999  0.5952  0.9011 -0.6392
   33MOL   H20412428   5.836   3.853   2.862  1.2033 -1.8016 -2.0433
   33MOL   H20512429   5.741   3.771   3.060  0.7679 -0.3827 -0.0432
   33MOL   H20612430   5.743   3.936   3.058  1.5142  0.6604 -1.7663
   33MOL   H20712431   5.871   3.862   3.162 -1.9304  2.2137  0.8400
   33MOL   H20812432   6.083   3.942   3.011 -0.7181  0.4466  2.1697
   33MOL   H20912433   5.953   4.062   2.979  0.4770 -0.1497  1.4573
   33MOL   H21012434   6.035   3.970   2.846 -0.7064 -2.4490  0.6023
   33MOL   C21112435   6.108   3.477   3.044 -0.2580  0.1213  0.1814
   33MOL   C21212436   6.001   3.418   3.135  0.0530 -0.3212  0.2811
   33MOL   C21312437   5.967   3.268   3.118  0.6737 -0.5570 -0.3699
   33MOL   O21412438   6.043   3.184   3.171 -0.0810 -0.5523 -0.9157
   33MOL   N21512439   5.855   3.240   3.045  0.9985 -0.2162  0.5475
   33MOL   C21612440   5.813   3.110   3.006  0.4174  0.3909  0.4145
   33MOL   C21712441   5.889   3.072   2.879 -0.2805 -0.1293 -0.0977
   33MOL   C21812442   5.665   3.124   2.979 -0.1342  0.3062  0.0476
   33MOL   H21912443   6.141   3.576   3.075 -2.7553  1.5061 -1.3895
   33MOL   H22012444   6.192   3.408   3.040  1.4581  2.1465  0.8490
   33MOL   H22112445   5.918   3.480   3.102  0.1276 -0.0260  0.6477
   33MOL   H22212446   5.809   3.314   2.994 -0.1879 -0.5901  1.0571
   33MOL   H22312447   5.832   3.045   3.092  0.0229  0.8500  0.8544
   33MOL   H22412448   5.880   3.138   2.793 -0.6911 -0.8272 -0.5952
   33MOL   H22512449   5.994   3.055   2.904 -0.8950 -2.5492  0.9468
   33MOL   H22612450   5.845   2.978   2.845  0.0500 -0.6908  1.0008
   33MOL   H22712451   5.623   3.207   2.922  0.6040  0.6189 -0.0403
   33MOL   H22812452   5.607   3.107   3.070 -0.5771  2.9940  0.3190
   33MOL   H22912453   5.645   3.044   2.907  2.8364 -1.1419  0.7748
   33MOL   C23012454   6.015   3.460   3.279 -1.0248  0.3740 -1.1320
   33MOL   C23112455   5.884   3.437   3.360 -0.5405 -0.2714 -0.5053
   33MOL   C23212456   5.918   3.474   3.505  0.0425  0.3438 -0.1296
   33MOL   O23312457   5.963   3.582   3.539 -0.9240  0.3451  0.0201
   33MOL   N23412458   5.891   3.382   3.598  0.2097 -1.0188  0.0473
   33MOL   C23512459   5.888   3.400   3.748 -0.2302  0.9447  0.3455
   33MOL   C23612460   5.794   3.292   3.807  0.3555 -0.5782 -0.2378
   33MOL   C23712461   6.027   3.382   3.810 -0.4495  0.0121  0.3856
   33MOL   H23812462   6.039   3.567   3.280  1.1273 -0.0666 -1.9755
   33MOL   H23912463   6.098   3.397   3.313  0.7177  1.1758 -3.7133
   33MOL   H24012464   5.857   3.332   3.349 -0.2377 -0.1054 -3.0198
   33MOL   H24112465   5.855   3.298   3.555 -1.6786 -0.8298  1.1594
   33MOL   H24212466   5.843   3.498   3.767  0.2271  1.2523 -0.1540
   33MOL   H24312467   5.791   3.297   3.916  2.4242 -0.5827 -0.1693
   33MOL   H24412468   5.694   3.298   3.763  0.3080 -0.7048 -0.1456
   33MOL   H24512469   5.829   3.191   3.784  0.7385  0.0192 -2.4093
   33MOL   H24612470   6.053   3.277   3.795 -1.1541  0.0238 -1.0075
   33MOL   H24712471   6.023   3.404   3.917  2.2021 -0.2878  0.5696
   33MOL   H24812472   6.104   3.449   3.773  1.5450 -1.8468  1.0280
   33MOL   C24912473   5.762   3.528   3.321  0.1191  0.1801  0.1861
   33MOL   C25012474   5.625   3.517   3.407 -0.1423  0.1658  0.2248
   33MOL   C25112475   5.575   3.375   3.407 -0.1148  0.0686  0.2163
   33MOL   O25212476   5.592   3.310   3.300  0.0652 -0.3095 -0.0400
   33MOL   N25312477   5.525   3.330   3.521 -0.0672 -0.1846  0.4427
   33MOL   C25412478   5.471   3.197   3.541 -0.1093  1.1578 -0.1683
   33MOL   C25512479   5.582   3.090   3.516 -0.2366 -0.1413  0.3569
   33MOL   C25612480   5.406   3.185   3.680 -0.5689  0.3366  0.3900
   33MOL   H25712481   5.739   3.508   3.217  0.9768 -2.9336  0.5564
   33MOL   H25812482   5.791   3.634   3.322  0.0892  0.2062 -1.1416
   33MOL   H25912483   5.647   3.544   3.510  1.9677 -0.6282  0.0205
   33MOL   H26012484   5.515   3.395   3.598  1.6053 -2.6652  2.8768
   33MOL   H26112485   5.398   3.166   3.466  0.5021 -2.0512  0.5171
   33MOL   H26212486   5.673   3.109   3.573 -1.3988 -1.1500  2.6213
   33MOL   H26312487   5.546   2.995   3.556 -2.1813 -0.6764 -2.5217
   33MOL   H26412488   5.596   3.082   3.409 -2.2784  1.2921 -0.0402
   33MOL   H26512489   5.470   3.228   3.756  0.4725 -1.8797  0.7955
   33MOL   H26612490   5.309   3.234   3.672  0.5611  2.3429 -1.5982
   33MOL   H26712491   5.378   3.085   3.713 -1.8356 -0.6565 -3.3751
   33MOL   C26812492   5.506   3.600   3.350  0.0703  0.5919 -0.5955
   33MOL   C26912493   5.473   3.743   3.412 -0.1766 -0.3146  0.2250
   33MOL   C27012494   5.411   3.735   3.549  0.0916 -0.4489 -0.3047
   33MOL   O27112495   5.484   3.753   3.649 -0.4524  0.1726 -0.3083
   33MOL   N27212496   5.280   3.711   3.563 -0.6947 -0.7001  0.4328
   33MOL   C27312497   5.199   3.708   3.691  0.0788 -0.4357 -0.3027
   33MOL   C27412498   5.052   3.757   3.677  0.4326  0.0205  0.0953
   33MOL   C27512499   5.186   3.560   3.747  0.5248  0.4606  0.3296
   33MOL   H27612500   5.533   3.622   3.246 -0.4990 -0.8779 -1.0642
   33MOL   H27712501   5.414   3.542   3.345  0.3627  0.2643 -2.7976
   33MOL   H27812502   5.402   3.798   3.351 -2.6899 -0.6927  2.7048
   33MOL   H27912503   5.220   3.692   3.484  1.0489 -0.4031 -0.9925
   33MOL   H28012504   5.254   3.774   3.759  0.3509 -0.2393 -0.7126
   33MOL   H28112505   5.052   3.843   3.610  0.2639  0.2308  0.3681
   33MOL   H28212506   4.989   3.686   3.623  2.4865 -2.5645  0.9537
   33MOL   H28312507   5.002   3.791   3.767 -0.7167  0.4195 -0.6841
   33MOL   H28412508   5.276   3.499   3.750  0.4513  0.3641  0.6738
   33MOL   H28512509   5.158   3.562   3.853  0.5394  2.6637  0.3104
   33MOL   H28612510   5.111   3.517   3.681  1.8445  0.3132 -1.0853
   33MOL   C28712511   5.609   3.823   3.405  0.2747 -0.2995  0.1243
   33MOL   C28812512   5.632   3.973   3.454  0.1864 -0.2545  0.1636
   33MOL   C28912513   5.508   4.058   3.424 -0.0174  0.9513  0.2521
   33MOL   O29012514   5.510   4.135   3.327  0.6780 -0.1470  0.1362
   33MOL   N29112515   5.402   4.052   3.507 -0.3831  0.6410  0.9016
   33MOL   C29212516   5.272   4.119   3.479  0.0135  0.3580 -0.9091
   33MOL   C29312517   5.191   4.045   3.372  0.5944 -0.6356  0.3275
   33MOL   C29412518   5.189   4.136   3.611  0.1489  0.3673  0.4677
   33MOL   H29512519   5.684   3.767   3.461  0.5932  1.2276  1.2634
   33MOL   H29612520   5.640   3.818   3.301  0.6908 -0.6343  0.2658
   33MOL   H29712521   5.639   3.966   3.562  1.0999 -0.2855  0.1098
   33MOL   H29812522   5.407   3.985   3.582 -2.0903  1.4114  1.7343
   33MOL   H29912523   5.287   4.220   3.442 -3.3235  2.3629  2.8373
   33MOL   H30012524   5.143   3.948   3.387 -0.5856 -0.5509 -2.6569
   33MOL   H30112525   5.102   4.095   3.334  1.0316 -1.3960 -1.7493
   33MOL   H30212526   5.260   4.030   3.289 -0.2378  1.1228 -0.7185
   33MOL   H30312527   5.098   4.193   3.594  0.4466  0.8362  0.4301
   33MOL   H30412528   5.154   4.041   3.651  1.8918 -0.1133  0.8938
   33MOL   H30512529   5.236   4.196   3.688 -0.6168  2.6595 -0.8005
   33MOL   C30612530   5.766   4.030   3.397  0.2630  0.2162  0.5903
   33MOL   C30712531   5.897   3.970   3.457 -0.1659 -0.2426  0.1766
   33MOL   C30812532   5.906   4.001   3.604 -0.0758  0.2964  0.6984
   33MOL   O30912533   5.886   4.117   3.645  0.3008  0.2263  0.1500
   33MOL   N31012534   5.951   3.898   3.680 -0.3289 -0.0090 -1.2897
   33MOL   C31112535   5.987   3.900   3.819 -0.1227  1.2073 -0.5148
   33MOL   C31212536   5.964   3.762   3.883 -0.3733  0.2223 -0.6179
   33MOL   C31312537   6.128   3.954   3.842  0.3600  0.0484 -0.4979
   33MOL   H31412538   5.779   4.007   3.291 -0.8872 -0.0623  0.5045
   33MOL   H31512539   5.763   4.139   3.401 -4.1368  0.0979  4.6228
   33MOL   H31612540   5.905   3.861   3.447 -1.1763 -0.2908 -0.1412
   33MOL   H31712541   5.961   3.813   3.626 -0.4466 -2.3310  2.1889
   33MOL   H31812542   5.915   3.972   3.858 -2.7979 -1.1635 -0.9548
   33MOL   H31912543   6.040   3.694   3.844 -1.4489 -2.0893  1.1756
   33MOL   H32012544   5.862   3.723   3.875 -0.0716 -0.5903 -0.5137
   33MOL   H32112545   5.992   3.777   3.987  0.4071  2.8825 -1.1870
   33MOL   H32212546   6.213   3.890   3.820 -0.3957 -1.6354  1.3406
   33MOL   H32312547   6.135   3.981   3.947  0.2842  0.0826 -0.5011
   33MOL   H32412548   6.149   4.051   3.797  1.2329  0.7642  1.4102
   33MOL   C32512549   6.023   4.025   3.383  0.0583 -0.2460 -0.7154
   33MOL   C32612550   6.160   3.972   3.427  0.6515 -0.9389  0.8479
   33MOL   C32712551   6.181   3.830   3.380 -0.0282  0.1934  0.7760
   33MOL   O32812552   6.144   3.796   3.268 -0.6977  0.1191  0.1586
   33MOL   N32912553   6.248   3.753   3.462  0.1833 -0.3971  0.2100
   33MOL   C33012554   6.302   3.623   3.420 -0.5649 -0.2741  0.4639
   33MOL   C33112555   6.310   3.519   3.532  0.7141 -0.5366  0.2120
   33MOL   C33212556   6.442   3.645   3.356 -0.4199 -0.0280  0.6139
   33MOL   H33312557   6.017   4.132   3.403  1.1204  0.1518 -2.3910
   33MOL   H33412558   6.018   4.009   3.275 -0.8919 -0.4029 -0.6523
   33MOL   H33512559   6.173   3.975   3.535  3.6672 -0.9237  0.5382
   33MOL   H33612560   6.274   3.790   3.553  0.1373  2.3838 -0.8572
   33MOL   H33712561   6.249   3.577   3.336 -0.0777  0.9539 -0.5415
   33MOL   H33812562   6.359   3.427   3.499  1.5937  0.5833 -1.6842
   33MOL   H33912563   6.363   3.567   3.614 -1.4483  3.3813 -0.5712
   33MOL   H34012564   6.215   3.476   3.565  1.0725 -1.9568 -0.5553
   33MOL   H34112565   6.459   3.741   3.307 -1.8547 -0.8401 -1.5316
   33MOL   H34212566   6.478   3.564   3.293  0.1692  1.7691 -1.4050
   33MOL   H34312567   6.506   3.651   3.444  1.4839 -0.3530 -0.7192
   33MOL   C34412568   6.273   4.054   3.351 -0.5099 -0.2999 -0.1174
   33MOL   C34512569   6.322   4.182   3.424 -0.2642 -0.6557 -0.4727
   33MOL   C34612570   6.372   4.157   3.565 -0.0443  0.0023  0.1440
   33MOL   O34712571   6.429   4.055   3.592  0.3014  0.3871  0.3816
   33MOL   N34812572   6.356   4.247   3.663  0.0367  0.3455 -0.0863
   33MOL   C34912573   6.425   4.255   3.789  0.2726 -0.1920 -0.1300
   33MOL   C35012574   6.523   4.378   3.780 -0.7034  0.3223  0.3216
   33MOL   C35112575   6.328   4.270   3.907  0.0819 -0.2130  0.6980
   33MOL   H35212576   6.240   4.088   3.253 -2.2166  0.6314  0.7508
   33MOL   H35312577   6.363   3.995   3.336 -0.3838 -0.6860  2.0354
   33MOL   H35412578   6.242   4.256   3.430  1.0186  0.7202 -0.1108
   33MOL   H35512579   6.299   4.323   3.629 -0.5158 -1.1086 -2.4989
   33MOL   H35612580   6.476   4.160   3.809  0.6155 -0.0048 -0.1092
   33MOL   H35712581   6.477   4.477   3.787 -0.6566  0.3268  0.5415
   33MOL   H35812582   6.597   4.368   3.859  0.5622  1.1825 -0.7278
   33MOL   H35912583   6.576   4.381   3.685  0.8079 -0.8652  1.1168
   33MOL   H36012584   6.285   4.369   3.925  1.4966  0.5496 -0.0759
   33MOL   H36112585   6.231   4.221   3.893  0.3819 -1.1892  2.0363
   33MOL   H36212586   6.358   4.242   4.008 -2.4449 -0.1851  1.5004
   33MOL   C36312587   6.438   4.241   3.340 -0.3786  0.6262 -0.1629
   33MOL   C36412588   6.573   4.158   3.333 -0.6607  0.0322 -0.2981
   33MOL   C36512589   6.690   4.254   3.311  0.1793  0.0559 -0.3018
   33MOL   O36612590   6.754   4.254   3.205  0.4844 -0.3087  0.3547
   33MOL   N36712591   6.719   4.331   3.423 -0.1121 -0.0358  0.8436
   33MOL   C36812592   6.829   4.432   3.442 -0.4805 -0.0134  0.0890
   33MOL   C36912593   6.779   4.576   3.473 -0.3285 -0.5513  0.8877
   33MOL   C37012594   6.933   4.382   3.542  0.3484 -0.1723  0.1076
   33MOL   H37112595   6.454   4.344   3.374  0.1699  0.5544 -0.1985
   33MOL   H37212596   6.403   4.257   3.238 -1.8671 -3.7407 -0.4462
   33MOL   H37312597   6.556   4.074   3.265  0.5806  0.7839 -1.5781
   33MOL   H37412598   6.653   4.312   3.497  0.1407  1.3657  1.4535
   33MOL   H37512599   6.889   4.435   3.350  3.1591  0.4482  2.3603
   33MOL   H37612600   6.717   4.618   3.394 -0.1227 -0.4208  0.7954
   33MOL   H37712601   6.734   4.575   3.572 -0.2380  0.5599  0.9450
   33MOL   H37812602   6.858   4.651   3.476 -1.5623  0.8220  0.2251
   33MOL   H37912603   6.972   4.286   3.510  1.2559  0.1817  0.1500
   33MOL   H38012604   7.023   4.444   3.545 -0.6781  1.2787  1.7856
   33MOL   H38112605   6.897   4.374   3.645 -1.2060 -1.6004 -0.5319
   33MOL   H38212606   6.605   4.103   3.421 -1.8816  0.3796  0.3664
   34MOL     C112607   5.671   5.343   3.790 -0.4248  0.0247 -0.5152
   34MOL     C212608   5.609   5.438   3.679  0.5077  0.3419  0.5714
   34MOL     C312609   5.482   5.372   3.629 -0.0586  0.0441 -0.0720
   34MOL     O412610   5.380   5.369   3.702  0.0867  0.0577  0.4235
   34MOL     N512611   5.481   5.324   3.502 -0.4488  0.5061 -0.0974
   34MOL     C612612   5.360   5.288   3.428  0.9430 -0.1839 -0.0326
   34MOL     C712613   5.300   5.415   3.358  0.2335  0.0261  0.2414
   34MOL     C812614   5.391   5.171   3.330 -0.0058 -0.3095  0.3197
   34MOL     H912615   5.592   5.290   3.843 -0.1757  0.2470  0.0775
   34MOL    H1012616   5.731   5.387   3.869 -0.2216  0.2185 -0.7763
   34MOL    H1112617   5.685   5.445   3.601 -0.7979  0.8770 -0.6693
   34MOL    H1212618   5.558   5.324   3.437 -2.6518 -1.2295 -2.8285
   34MOL    H1312619   5.285   5.241   3.493  2.8235 -2.6017  0.4652
   34MOL    H1412620   5.294   5.506   3.418  0.8526  1.1706 -1.3982
   34MOL    H1512621   5.202   5.387   3.319  0.8553  1.6246 -2.6301
   34MOL    H1612622   5.360   5.444   3.272  0.6019  2.2603  1.2280
   34MOL    H1712623   5.425   5.087   3.390  0.8749  0.2626  0.6343
   34MOL    H1812624   5.302   5.145   3.273  1.9787  0.3351 -3.2161
   34MOL    H1912625   5.465   5.205   3.258  0.4672 -1.4325  0.2663
   34MOL    H2012626   5.719   5.253   3.753 -0.6978 -0.3506  0.0392
   34MOL    C2112627   5.583   5.578   3.740 -0.8084 -0.2072  0.0982
   34MOL    C2212628   5.513   5.692   3.666 -0.0541  0.4612  0.3332
   34MOL    C2312629   5.539   5.700   3.508 -0.3582  0.5859 -0.9962
   34MOL    O2412630   5.651   5.674   3.464 -0.5074 -0.0747  0.1335
   34MOL    N2512631   5.443   5.743   3.429 -0.0645  0.2581 -0.7974
   34MOL    C2612632   5.462   5.757   3.287  0.0151  0.3454 -0.7238
   34MOL    C2712633   5.559   5.870   3.251 -0.3214 -0.0721 -0.4141
   34MOL    C2812634   5.331   5.772   3.218  0.8632 -0.3325  0.0056
   34MOL    H2912635   5.683   5.618   3.759 -0.9388  0.2157 -0.0995
   34MOL    H3012636   5.537   5.557   3.836 -0.1386 -2.0271  0.0405
   34MOL    H3112637   5.405   5.673   3.669 -0.2955  0.3889 -4.1507
   34MOL    H3212638   5.351   5.769   3.463 -0.0012 -1.4595  0.7818
   34MOL    H3312639   5.506   5.660   3.262 -0.0565  0.1745 -0.1962
   34MOL    H3412640   5.643   5.873   3.321 -0.3527 -0.2096 -0.3719
   34MOL    H3512641   5.508   5.965   3.269  2.1589  1.1421  0.5726
   34MOL    H3612642   5.593   5.859   3.148 -0.8531  3.2125 -1.0237
   34MOL    H3712643   5.267   5.698   3.267  1.1581  0.6213  1.8993
   34MOL    H3812644   5.297   5.875   3.225  3.0090  0.4980 -1.1750
   34MOL    H3912645   5.323   5.730   3.118 -0.0068  0.5204 -0.2875
   34MOL    C4012646   5.529   5.839   3.718  0.7225 -0.1845 -1.0806
   34MOL    C4112647   5.644   5.935   3.676  0.3996 -0.1964  0.2756
   34MOL    C4212648   5.781   5.872   3.719 -0.4890 -0.9787 -0.3987
   34MOL    O4312649   5.811   5.856   3.832 -0.0483 -0.0228  0.2459
   34MOL    N4412650   5.868   5.844   3.619  0.6086 -0.5557  0.5101
   34MOL    C4512651   6.005   5.799   3.622  0.1722 -0.3598  0.3066
   34MOL    C4612652   6.011   5.658   3.555 -0.0648 -0.4034  0.3950
   34MOL    C4712653   6.094   5.892   3.539 -1.1552 -0.3423  0.2221
   34MOL    H4812654   5.540   5.829   3.826  0.6410  1.1710 -0.9405
   34MOL    H4912655   5.434   5.885   3.691 -1.0155 -3.0938 -0.0956
   34MOL    H5012656   5.644   5.941   3.567  0.2803  0.5306  0.3112
   34MOL    H5112657   5.835   5.866   3.526 -2.5488  0.5081  1.8027
   34MOL    H5212658   6.040   5.806   3.725  3.5131 -1.3211 -0.6968
   34MOL    H5312659   5.988   5.657   3.449  0.8697  2.5706  0.1023
   34MOL    H5412660   5.939   5.588   3.598 -0.4666 -1.2513 -1.6294
   34MOL    H5512661   6.111   5.619   3.571 -0.2017 -0.8514  0.1411
   34MOL    H5612662   6.194   5.856   3.516 -0.0110  1.9052  1.5203
   34MOL    H5712663   6.114   5.987   3.589 -0.0305  0.1103 -1.0649
   34MOL    H5812664   6.050   5.914   3.442 -3.1479  2.0763  1.6088
   34MOL    C5912665   5.626   6.079   3.736  0.0888 -0.1224 -0.0526
   34MOL    C6012666   5.673   6.199   3.645  0.1864 -0.1154 -0.1095
   34MOL    C6112667   5.592   6.194   3.518 -0.8969  0.3028  0.5963
   34MOL    O6212668   5.639   6.145   3.411  0.1105  0.2775  0.6258
   34MOL    N6312669   5.468   6.241   3.525 -0.1329  0.3393  0.7725
   34MOL    C6412670   5.386   6.267   3.408  0.2067 -0.4599  0.0923
   34MOL    C6512671   5.285   6.150   3.392  0.0843 -0.3258  0.7523
   34MOL    C6612672   5.325   6.409   3.416  0.0465  0.6410 -0.6201
   34MOL    H6712673   5.519   6.098   3.737  0.4089  1.8973 -0.8703
   34MOL    H6812674   5.654   6.091   3.841  0.4355 -0.5147 -0.1011
   34MOL    H6912675   5.650   6.289   3.702 -0.6393  0.9770 -2.1009
   34MOL    H7012676   5.423   6.256   3.614 -2.3708  0.3835 -0.3364
   34MOL    H7112677   5.456   6.262   3.324  1.0872 -0.4031  0.8163
   34MOL    H7212678   5.208   6.127   3.466 -0.2481  0.1444  0.5523
   34MOL    H7312679   5.229   6.154   3.298  0.5610  0.3695  0.4947
   34MOL    H7412680   5.337   6.055   3.382 -1.7821 -1.1112 -2.2701
   34MOL    H7512681   5.249   6.417   3.339 -0.7297 -0.6332 -0.0029
   34MOL    H7612682   5.262   6.428   3.503 -0.1524  0.0698 -0.6375
   34MOL    H7712683   5.390   6.495   3.398  0.0274  1.0784  1.2690
   34MOL    C7812684   5.829   6.193   3.623  0.1487 -0.2137 -0.0913
   34MOL    C7912685   5.903   6.318   3.552 -0.5205  0.2747 -0.1689
   34MOL    C8012686   5.947   6.302   3.404  0.7014  0.1505 -0.4150
   34MOL    O8112687   6.043   6.366   3.369 -0.1110  0.3508 -0.3251
   34MOL    N8212688   5.882   6.215   3.322 -0.2809 -0.2552 -0.1987
   34MOL    C8312689   5.916   6.193   3.184  0.7855 -0.4204 -0.1881
   34MOL    C8412690   5.986   6.058   3.177  0.2766 -0.3970 -0.0609
   34MOL    C8512691   5.785   6.180   3.103 -0.1383 -0.0427 -0.6010
   34MOL    H8612692   5.854   6.104   3.566 -0.0773  0.2117 -0.8667
   34MOL    H8712693   5.883   6.170   3.716 -0.3993  1.3446  0.6299
   34MOL    H8812694   6.005   6.320   3.591 -0.3398 -0.4216 -0.5882
   34MOL    H8912695   5.790   6.190   3.353  0.2310  0.6739  2.1149
   34MOL    H9012696   5.984   6.267   3.142  1.4541 -1.7481 -1.5308
   34MOL    H9112697   5.935   5.971   3.218 -0.2729  0.3544  0.8768
   34MOL    H9212698   6.028   6.028   3.081  0.0735 -0.4338 -0.1376
   34MOL    H9312699   6.072   6.075   3.242 -0.4799 -1.3831  1.2209
   34MOL    H9412700   5.817   6.132   3.010  1.4055  1.2091 -0.7252
   34MOL    H9512701   5.733   6.273   3.080 -0.0642 -0.1817 -1.3532
   34MOL    H9612702   5.716   6.107   3.146  0.0915 -0.5624 -1.1100
   34MOL    C9712703   5.845   6.457   3.587  0.1818  0.0357  0.3671
   34MOL    C9812704   5.886   6.520   3.724  0.2601 -0.0270 -0.5320
   34MOL    C9912705   5.841   6.438   3.851 -0.6801  0.5672  0.5938
   34MOL   O10012706   5.724   6.431   3.890  0.2255  0.0157  0.3800
   34MOL   N10112707   5.944   6.372   3.910 -0.5716  0.4159 -0.9205
   34MOL   C10212708   5.937   6.313   4.041 -0.1271 -0.0753  0.4581
   34MOL   C10312709   5.977   6.162   4.044 -0.3522  0.0173  0.5914
   34MOL   C10412710   6.022   6.387   4.136 -0.7166  0.7528  0.0534
   34MOL   H10512711   5.738   6.473   3.575  0.1332 -0.0180  0.7094
   34MOL   H10612712   5.885   6.526   3.513 -0.0961 -0.4986 -0.2897
   34MOL   H10712713   5.995   6.518   3.727  0.2886  1.3309 -0.3779
   34MOL   H10812714   6.028   6.389   3.857 -1.6405  1.3469 -2.3545
   34MOL   H10912715   5.836   6.323   4.081 -0.8789 -2.0883 -0.8613
   34MOL   H11012716   5.898   6.110   3.990  0.3723  0.7088 -1.1797
   34MOL   H11112717   6.075   6.134   4.006 -0.8571 -0.3444 -0.4526
   34MOL   H11212718   5.968   6.122   4.145 -2.7435 -1.1730 -0.0546
   34MOL   H11312719   6.124   6.377   4.101 -0.1564  0.2926  1.7617
   34MOL   H11412720   6.013   6.334   4.231  1.0893 -0.6297 -0.5193
   34MOL   H11512721   5.995   6.492   4.150 -0.9308  0.8062 -0.7375
   34MOL   C11612722   5.862   6.673   3.732  0.2241 -0.4291 -0.0706
   34MOL   C11712723   5.736   6.735   3.797  0.2222 -0.7537  0.3530
   34MOL   C11812724   5.608   6.706   3.709  0.9853 -0.4045 -0.6638
   34MOL   O11912725   5.597   6.738   3.594  0.2023  0.0337 -0.4416
   34MOL   N12012726   5.516   6.643   3.778 -0.5772  0.1310 -0.4129
   34MOL   C12112727   5.381   6.625   3.733 -0.2320 -1.3689 -0.2934
   34MOL   C12212728   5.322   6.499   3.798  0.1211  0.1155  0.2198
   34MOL   C12312729   5.297   6.758   3.760  0.2834  0.0060  0.0692
   34MOL   H12412730   5.868   6.711   3.630  0.3936  0.1360  0.1468
   34MOL   H12512731   5.946   6.728   3.774  1.4352 -2.6031  0.4630
   34MOL   H12612732   5.722   6.680   3.891 -0.4274 -1.0258  0.0992
   34MOL   H12712733   5.534   6.606   3.870 -1.8514  1.3972  0.3757
   34MOL   H12812734   5.380   6.592   3.629 -0.9110  0.4914 -0.8898
   34MOL   H12912735   5.239   6.466   3.736 -1.3395  1.4815  1.3735
   34MOL   H13012736   5.287   6.512   3.901  3.6222  2.0902  1.2324
   34MOL   H13112737   5.380   6.407   3.801 -0.1819 -0.0773  0.1361
   34MOL   H13212738   5.321   6.805   3.855 -0.5069  1.7038 -0.5591
   34MOL   H13312739   5.307   6.837   3.686 -1.6721  2.7427  2.6001
   34MOL   H13412740   5.193   6.725   3.762  0.1408  0.5241  1.0738
   34MOL   C13512741   5.755   6.884   3.818  0.5287 -0.0704 -0.0092
   34MOL   C13612742   5.646   6.961   3.893 -0.3454  0.3159  0.1987
   34MOL   C13712743   5.610   6.898   4.029  0.1260 -0.0642  0.2370
   34MOL   O13812744   5.673   6.931   4.132  0.1154  0.3318  0.3170
   34MOL   N13912745   5.504   6.815   4.031  0.0985 -0.2060 -0.4814
   34MOL   C14012746   5.447   6.759   4.155 -0.4026 -0.1965  0.0587
   34MOL   C14112747   5.478   6.605   4.167 -0.0281  0.2424 -0.1912
   34MOL   C14212748   5.302   6.779   4.160  0.7499  0.6930 -0.2037
   34MOL   H14312749   5.771   6.934   3.722  1.6131 -1.9067 -0.8205
   34MOL   H14412750   5.848   6.913   3.865  0.0434  2.3364 -0.4640
   34MOL   H14512751   5.550   6.952   3.842 -0.2273 -2.4354  0.3677
   34MOL   H14612752   5.461   6.793   3.942  0.0347 -2.0390  0.0016
   34MOL   H14712753   5.491   6.814   4.238  0.5336 -0.2158 -0.4170
   34MOL   H14812754   5.465   6.559   4.265 -0.5290 -2.6757 -1.5692
   34MOL   H14912755   5.421   6.541   4.098  0.4465 -0.5535  0.1540
   34MOL   H15012756   5.584   6.595   4.148 -0.0786  2.0705 -1.6116
   34MOL   H15112757   5.245   6.735   4.078 -0.5576  0.6733  0.6973
   34MOL   H15212758   5.295   6.887   4.148  0.4652  0.9728  2.1995
   34MOL   H15312759   5.246   6.760   4.252 -0.9206  0.7100 -1.1915
   34MOL   C15412760   5.677   7.109   3.912 -0.0561  0.5064 -0.3712
   34MOL   C15512761   5.564   7.198   3.960  0.2595 -0.2652 -0.3726
   34MOL   C15612762   5.457   7.216   3.854 -0.3789 -1.1229 -0.0133
   34MOL   O15712763   5.482   7.254   3.742  0.2684  0.1057  0.0036
   34MOL   N15812764   5.330   7.199   3.900 -0.0211 -0.5384  0.4583
   34MOL   C15912765   5.209   7.219   3.818  0.8041 -0.3923 -0.0358
   34MOL   C16012766   5.129   7.354   3.862  1.0972 -0.6473  0.0495
   34MOL   C16112767   5.109   7.103   3.818  0.6533 -0.0307 -0.6757
   34MOL   H16212768   5.707   7.139   3.811  1.1583 -0.6119 -0.3485
   34MOL   H16312769   5.767   7.127   3.971  1.5010 -1.0382 -2.2007
   34MOL   H16412770   5.522   7.151   4.049  0.4162  1.9596  0.9264
   34MOL   H16512771   5.328   7.162   3.994 -0.0548  0.7186  0.9614
   34MOL   H16612772   5.238   7.244   3.716  0.2010  1.4539  0.2254
   34MOL   H16712773   5.046   7.377   3.796  0.3959 -0.6181  0.9333
   34MOL   H16812774   5.078   7.348   3.958  1.3071  1.7481  0.3448
   34MOL   H16912775   5.201   7.435   3.874 -1.7625  1.5508  2.9985
   34MOL   H17012776   5.138   7.011   3.766 -0.6613 -0.7675 -0.1474
   34MOL   H17112777   5.018   7.130   3.763 -0.3155 -1.0687  0.3932
   34MOL   H17212778   5.069   7.072   3.914  1.9180 -0.8247 -0.3993
   34MOL   C17312779   5.624   7.332   4.009  0.1380  0.1442 -0.2617
   34MOL   C17412780   5.684   7.335   4.153 -0.1841 -0.2544  0.2830
   34MOL   C17512781   5.783   7.453   4.165  0.1945 -0.0707  0.1892
   34MOL   O17612782   5.748   7.564   4.201 -0.1356  0.1642 -0.0195
   34MOL   N17712783   5.909   7.426   4.141 -0.6094  0.1128 -0.1825
   34MOL   C17812784   6.019   7.525   4.144  0.0978 -0.3302 -0.1117
   34MOL   C17912785   6.081   7.539   4.010  0.1977  0.5060 -0.1936
   34MOL   C18012786   6.129   7.481   4.249 -0.6039  0.5391  0.4377
   34MOL   H18112787   5.538   7.398   4.001  0.4443  0.9013  2.1896
   34MOL   H18212788   5.696   7.375   3.940 -1.0513 -1.9318 -2.8693
   34MOL   H18312789   5.747   7.247   4.167 -0.0566 -0.3671 -0.9331
   34MOL   H18412790   5.928   7.329   4.119  1.6974  0.5565 -0.2324
   34MOL   H18512791   5.986   7.621   4.184  0.2846  0.2646 -1.3713
   34MOL   H18612792   6.140   7.454   3.975  1.0608  0.1613  2.0181
   34MOL   H18712793   6.148   7.625   4.010  0.7175  0.1050 -0.5851
   34MOL   H18812794   6.006   7.556   3.933  0.3843  1.7359 -0.1138
   34MOL   H18912795   6.082   7.472   4.347  2.6581 -1.1749  1.9280
   34MOL   H19012796   6.218   7.543   4.236 -0.2841 -0.4065 -2.1514
   34MOL   H19112797   6.156   7.380   4.219 -3.3071 -0.9334  2.7958
   34MOL   C19212798   5.588   7.342   4.273  0.1218 -0.4849 -0.2755
   34MOL   C19312799   5.520   7.209   4.317  0.6069  0.0879  0.7094
   34MOL   C19412800   5.373   7.204   4.290 -0.8731 -0.5630 -0.6096
   34MOL   O19512801   5.326   7.121   4.214  0.0734  0.0367  0.1416
   34MOL   N19612802   5.300   7.291   4.364  0.1280 -0.0758 -0.2438
   34MOL   C19712803   5.146   7.298   4.374  0.1372  0.6375 -0.3785
   34MOL   C19812804   5.082   7.346   4.246  0.5774 -0.0706  0.0940
   34MOL   C19912805   5.090   7.173   4.446  0.0821  0.2069 -0.3152
   34MOL   H20012806   5.525   7.429   4.255 -0.4655 -0.7552  0.4477
   34MOL   H20112807   5.641   7.376   4.362 -1.6598  0.0222  0.6294
   34MOL   H20212808   5.561   7.126   4.260 -0.1801  0.3221 -0.2175
   34MOL   H20312809   5.350   7.353   4.425  1.3772 -0.2202 -1.1159
   34MOL   H20412810   5.132   7.382   4.441 -0.6183 -0.8393  1.3647
   34MOL   H20512811   4.976   7.358   4.272  0.3679 -0.9303 -0.3468
   34MOL   H20612812   5.083   7.268   4.170 -2.7094  0.8355 -0.9488
   34MOL   H20712813   5.124   7.436   4.203  1.8834 -0.6549  0.1193
   34MOL   H20812814   5.128   7.174   4.548 -0.3037  0.7711 -0.1735
   34MOL   H20912815   5.106   7.078   4.395  0.9939 -1.1516  2.3934
   34MOL   H21012816   4.985   7.200   4.459 -0.0167 -0.5602  0.4879
   34MOL   C21112817   5.547   7.168   4.465 -0.1898  0.5025  0.1091
   34MOL   C21212818   5.511   7.017   4.508  0.7403  0.2740 -0.1855
   34MOL   C21312819   5.640   6.936   4.527  0.7840 -0.2860 -0.3679
   34MOL   O21412820   5.680   6.906   4.643 -0.2377 -0.7012 -0.4211
   34MOL   N21512821   5.697   6.898   4.412 -0.6819  0.3910  0.0493
   34MOL   C21612822   5.807   6.799   4.402 -0.1840 -0.6105 -0.3694
   34MOL   C21712823   5.794   6.684   4.505  0.3007  0.1000  0.0808
   34MOL   C21812824   5.939   6.883   4.405  0.3716  0.0647 -0.1960
   34MOL   H21912825   5.498   7.235   4.536 -0.8853 -1.4007  1.4454
   34MOL   H22012826   5.652   7.190   4.486  0.6484 -0.9069 -2.4398
   34MOL   H22112827   5.453   6.983   4.422 -0.2884  2.2759 -0.3233
   34MOL   H22212828   5.655   6.932   4.327  1.4359 -0.1176 -1.2487
   34MOL   H22312829   5.796   6.752   4.304 -1.3007  0.1762 -0.6369
   34MOL   H22412830   5.693   6.643   4.502  1.4160 -2.6923 -1.7949
   34MOL   H22512831   5.863   6.600   4.493  0.7656  0.3658  0.8104
   34MOL   H22612832   5.809   6.726   4.605  1.4597  0.3528 -0.1833
   34MOL   H22712833   5.942   6.938   4.499 -1.2120 -0.0354 -0.0804
   34MOL   H22812834   5.937   6.956   4.325  0.3662 -0.2317 -0.4685
   34MOL   H22912835   6.030   6.822   4.405  0.2887 -0.1315  2.5788
   34MOL   C23012836   5.419   7.003   4.635  0.1012  0.8761  0.4208
   34MOL   C23112837   5.365   6.855   4.653 -0.5507  0.0326  0.0961
   34MOL   C23212838   5.429   6.780   4.779 -0.2968 -0.3016 -0.3882
   34MOL   O23312839   5.412   6.806   4.899  0.4745 -0.4229 -0.2298
   34MOL   N23412840   5.504   6.674   4.743  0.4955 -0.6298  0.4646
   34MOL   C23512841   5.558   6.579   4.838 -0.7542  0.4380  0.6003
   34MOL   C23612842   5.456   6.464   4.845  0.1157 -0.6261 -0.6234
   34MOL   C23712843   5.701   6.527   4.804 -0.7490 -0.3180  0.2638
   34MOL   H23812844   5.342   7.079   4.624  1.8297  2.1336 -3.9300
   34MOL   H23912845   5.479   7.032   4.722  1.7835 -0.0573 -0.4052
   34MOL   H24012846   5.385   6.798   4.562 -1.2821 -1.2226  0.7078
   34MOL   H24112847   5.531   6.658   4.648 -1.2471 -0.1405 -0.1278
   34MOL   H24212848   5.566   6.630   4.934 -0.7043 -2.5021  2.2167
   34MOL   H24312849   5.463   6.408   4.938 -0.7406  0.0810 -0.1327
   34MOL   H24412850   5.351   6.492   4.834  0.4731  1.2094  0.4367
   34MOL   H24512851   5.460   6.394   4.762  1.0665  0.7208 -1.7510
   34MOL   H24612852   5.734   6.450   4.873  0.7706 -1.0812 -1.2626
   34MOL   H24712853   5.777   6.604   4.790 -0.5203 -0.3389  1.3455
   34MOL   H24812854   5.698   6.469   4.712 -0.0135  1.7701 -1.1094
   34MOL   C24912855   5.207   6.849   4.657  0.7583 -0.0726  0.4688
   34MOL   C25012856   5.145   6.739   4.577 -0.1465  0.3743 -0.5727
   34MOL   C25112857   4.997   6.773   4.545 -0.2169  0.2048 -0.3625
   34MOL   O25212858   4.965   6.800   4.432 -0.1037  0.3333 -0.4029
   34MOL   N25312859   4.907   6.764   4.647 -0.2969  0.1190 -0.2557
   34MOL   C25412860   4.774   6.818   4.650  0.8335 -0.1289 -0.5085
   34MOL   C25512861   4.774   6.968   4.627 -0.0291 -0.6799  0.5154
   34MOL   C25612862   4.689   6.750   4.543 -0.3629  0.8035  0.7724
   34MOL   H25712863   5.154   6.937   4.622  0.3556 -0.1154  0.9672
   34MOL   H25812864   5.177   6.830   4.760  1.5727  0.2363  0.7720
   34MOL   H25912865   5.186   6.746   4.476 -1.2043  0.7232 -0.9787
   34MOL   H26012866   4.942   6.729   4.734  2.6360  0.2194 -1.3473
   34MOL   H26112867   4.722   6.809   4.746 -0.1401 -0.7160 -1.0763
   34MOL   H26212868   4.845   7.008   4.700  1.1644 -0.2968 -0.8459
   34MOL   H26312869   4.825   6.994   4.535 -1.7272 -0.7312 -0.4655
   34MOL   H26412870   4.669   6.997   4.635  0.0475 -0.0434 -0.8075
   34MOL   H26512871   4.688   6.641   4.543 -3.8286  0.7875  0.2987
   34MOL   H26612872   4.585   6.780   4.552 -0.5992  0.2046  0.0846
   34MOL   H26712873   4.724   6.776   4.443  1.5201 -3.3971  0.2464
   34MOL   C26812874   5.171   6.600   4.637 -0.2601 -0.5145 -0.7651
   34MOL   C26912875   5.108   6.475   4.566  0.2367 -0.0330 -0.6366
   34MOL   C27012876   5.123   6.476   4.418  0.2487  0.1108  0.7906
   34MOL   O27112877   5.230   6.505   4.368 -0.7726  0.1171  0.4841
   34MOL   N27212878   5.009   6.457   4.348  0.3931  0.8784  0.0222
   34MOL   C27312879   4.994   6.511   4.213  0.1804  0.6143  0.1523
   34MOL   C27412880   5.038   6.425   4.098  0.1411  0.4231  0.1075
   34MOL   C27512881   4.844   6.546   4.200  0.0531 -0.2410 -0.2113
   34MOL   H27612882   5.279   6.589   4.624 -0.0708 -0.2051  0.5115
   34MOL   H27712883   5.151   6.601   4.744  0.5486  0.8416 -0.6195
   34MOL   H27812884   5.002   6.479   4.590  0.3986  1.4227 -0.0762
   34MOL   H27912885   4.923   6.436   4.395  0.6608  2.7236  1.4004
   34MOL   H28012886   5.048   6.605   4.210 -1.1640  1.3959 -0.3201
   34MOL   H28112887   5.032   6.486   4.007  3.0933  1.6693  0.7150
   34MOL   H28212888   5.145   6.406   4.110  0.3067  1.6981  0.6345
   34MOL   H28312889   4.985   6.332   4.074  2.7734 -1.3542  0.9237
   34MOL   H28412890   4.775   6.466   4.171 -1.7910  1.1833  0.1603
   34MOL   H28512891   4.798   6.609   4.275  1.1997  1.4384 -0.8970
   34MOL   H28612892   4.826   6.608   4.112  0.8079  0.4464  0.1187
   34MOL   C28712893   5.171   6.350   4.626 -0.1785 -0.5845  0.5062
   34MOL   C28812894   5.139   6.213   4.558  1.1401  0.6240  0.1776
   34MOL   C28912895   4.988   6.179   4.567  0.7267  0.7047  0.0027
   34MOL   O29012896   4.918   6.217   4.663  0.4013  0.0370 -0.4860
   34MOL   N29112897   4.940   6.119   4.458  0.2589 -0.0763  0.8521
   34MOL   C29212898   4.797   6.087   4.422  0.0503  0.0360 -0.2837
   34MOL   C29312899   4.790   6.062   4.275  0.0234 -0.3667 -0.5218
   34MOL   C29412900   4.746   5.968   4.502  0.3661 -0.5145 -0.0110
   34MOL   H29512901   5.280   6.359   4.627 -0.0265 -2.2298 -0.1039
   34MOL   H29612902   5.134   6.354   4.729 -2.5468 -0.2323 -0.3429
   34MOL   H29712903   5.162   6.222   4.452 -2.1474 -1.8947 -0.8296
   34MOL   H29812904   5.007   6.086   4.389  1.1690 -1.1982  2.2516
   34MOL   H29912905   4.741   6.177   4.449  0.7391  0.4454 -0.1857
   34MOL   H30012906   4.880   6.008   4.246 -1.1839 -3.4919  1.4419
   34MOL   H30112907   4.698   6.011   4.246  0.2300  0.7564 -3.3345
   34MOL   H30212908   4.775   6.155   4.219  0.8170  0.2023  0.1843
   34MOL   H30312909   4.781   5.977   4.605  1.1568  0.5440 -0.3622
   34MOL   H30412910   4.638   5.957   4.499  0.0564  0.7295  4.0694
   34MOL   H30512911   4.791   5.878   4.459  3.1645  0.6496  0.3711
   34MOL   C30612912   5.211   6.085   4.616  0.5755 -0.2559  0.8704
   34MOL   C30712913   5.356   6.067   4.570  0.5193  0.1436 -0.6604
   34MOL   C30812914   5.373   6.047   4.422  0.2333  0.6712 -0.0165
   34MOL   O30912915   5.283   5.992   4.357  0.5906 -0.6228  0.0191
   34MOL   N31012916   5.475   6.109   4.359 -0.0784  0.5022 -0.0145
   34MOL   C31112917   5.510   6.104   4.225  0.8242  0.0872  0.1905
   34MOL   C31212918   5.545   6.242   4.170 -0.3045  0.2003  0.4840
   34MOL   C31312919   5.638   6.014   4.206 -0.0417  0.0343 -0.2443
   34MOL   H31412920   5.200   6.088   4.725  0.6556  1.0609  0.8581
   34MOL   H31512921   5.158   5.995   4.585 -1.2342  0.5261  1.6105
   34MOL   H31612922   5.407   6.156   4.608 -1.5197  0.1407  2.2556
   34MOL   H31712923   5.543   6.160   4.414 -0.3728  1.8933 -0.9076
   34MOL   H31812924   5.430   6.060   4.165  1.3084 -0.6218  0.0573
   34MOL   H31912925   5.463   6.312   4.184  0.5793  1.2171  0.6523
   34MOL   H32012926   5.572   6.235   4.065 -1.7092  1.5952  0.0154
   34MOL   H32112927   5.626   6.280   4.233  0.4293  0.9614 -0.8935
   34MOL   H32212928   5.650   5.937   4.283  1.1265  0.9530  0.5051
   34MOL   H32312929   5.726   6.077   4.215 -1.9673  2.8751 -0.8638
   34MOL   H32412930   5.662   5.981   4.105  1.4356 -1.6468  0.6315
   34MOL   C32512931   5.427   5.957   4.646 -0.2331  0.6677  0.8396
   34MOL   C32612932   5.533   5.995   4.744  0.3845  0.1819  1.0959
   34MOL   C32712933   5.654   6.068   4.692  0.4160  0.3400  0.6522
   34MOL   O32812934   5.653   6.190   4.673 -0.9527 -0.0884  0.0325
   34MOL   N32912935   5.763   5.989   4.674 -0.5641  0.0305  0.1967
   34MOL   C33012936   5.901   6.023   4.641 -0.1066  0.3226  1.2915
   34MOL   C33112937   5.915   6.073   4.495 -0.3985  0.0592  0.4369
   34MOL   C33212938   5.983   5.892   4.665 -0.2457  0.1898  0.4269
   34MOL   H33312939   5.482   5.895   4.574  0.4570  1.6079  0.5508
   34MOL   H33412940   5.351   5.894   4.692 -2.2396  1.2421 -1.5713
   34MOL   H33512941   5.575   5.898   4.773  1.5297  0.7747  1.4262
   34MOL   H33612942   5.744   5.893   4.700  1.5640 -0.0560  1.4682
   34MOL   H33712943   5.936   6.102   4.707  1.5217  1.3806 -0.7518
   34MOL   H33812944   5.915   6.182   4.489 -1.0987  0.0523  0.2916
   34MOL   H33912945   6.013   6.053   4.451  0.4299  1.6630  1.5036
   34MOL   H34012946   5.847   6.023   4.426 -0.7349  0.3686  0.5403
   34MOL   H34112947   5.990   5.857   4.768  1.3869 -1.6107 -0.2889
   34MOL   H34212948   6.089   5.902   4.642 -0.0963 -2.5471 -0.1328
   34MOL   H34312949   5.932   5.815   4.607 -0.9094 -0.7451  2.2106
   34MOL   C34412950   5.478   6.058   4.867  0.2620 -0.3456  0.5208
   34MOL   C34512951   5.393   5.969   4.966  0.2818  0.2249 -0.5835
   34MOL   C34612952   5.484   5.881   5.053  1.5553  0.4103 -0.1404
   34MOL   O34712953   5.592   5.916   5.091  0.2523  0.6000 -0.3442
   34MOL   N34812954   5.440   5.757   5.071  1.0986  0.4879 -0.3710
   34MOL   C34912955   5.514   5.654   5.149  0.1330  0.1394 -0.7793
   34MOL   C35012956   5.417   5.568   5.237 -0.8359  0.4102 -0.1890
   34MOL   C35112957   5.606   5.577   5.052  0.1635  0.2566 -0.0686
   34MOL   H35212958   5.411   6.137   4.833  1.0914 -0.5068 -1.5693
   34MOL   H35312959   5.557   6.112   4.920 -0.2311  1.2197 -0.2948
   34MOL   H35412960   5.324   5.912   4.904 -1.6148  0.4888  1.2066
   34MOL   H35512961   5.350   5.736   5.031  1.9172 -1.7833 -1.0509
   34MOL   H35612962   5.587   5.704   5.212 -1.7066  0.3281  1.2878
   34MOL   H35712963   5.378   5.626   5.321 -1.8634  0.7012 -0.8603
   34MOL   H35812964   5.339   5.526   5.173  1.3623 -0.2960 -2.4644
   34MOL   H35912965   5.462   5.479   5.281  0.7508  1.1796 -0.2442
   34MOL   H36012966   5.665   5.655   5.004  1.1431 -0.7500 -0.5366
   34MOL   H36112967   5.672   5.516   5.113 -0.4234  0.5685  0.8878
   34MOL   H36212968   5.543   5.517   4.985  0.5965 -0.8778  0.5302
   34MOL   C36312969   5.297   6.054   5.051  0.5497  0.2748  0.6989
   34MOL   C36412970   5.187   5.999   5.146  0.1457  0.6443  0.7826
   34MOL   C36512971   5.098   5.898   5.084  0.4001 -0.0022  0.0962
   34MOL   O36612972   5.148   5.811   5.013  0.2369  0.1135  0.0077
   34MOL   N36712973   4.975   5.904   5.118  0.5362 -0.1444 -0.4170
   34MOL   C36812974   4.867   5.826   5.044  0.3875  0.6353 -1.2068
   34MOL   C36912975   4.790   5.743   5.151 -0.2229  0.2563 -0.4326
   34MOL   C37012976   4.765   5.915   4.976  0.0241  0.3041  0.7247
   34MOL   H37112977   5.243   6.109   4.974  1.1146  0.8781  0.7299
   34MOL   H37212978   5.340   6.142   5.099 -0.7407  1.9002 -1.0832
   34MOL   H37312979   5.126   6.082   5.182 -1.8921 -2.0714  4.0540
   34MOL   H37412980   4.942   5.958   5.197 -0.9192 -1.2561 -0.2416
   34MOL   H37512981   4.913   5.756   4.974  1.7768  1.1899 -0.8761
   34MOL   H37612982   4.705   5.682   5.120  0.7054 -0.8812 -0.7626
   34MOL   H37712983   4.853   5.670   5.201 -1.6064 -0.5800  0.1109
   34MOL   H37812984   4.747   5.805   5.229 -0.0317  1.1279 -1.0151
   34MOL   H37912985   4.803   6.015   4.957  0.4665  0.2159  1.1484
   34MOL   H38012986   4.743   5.876   4.877  2.6967  0.4979  0.0059
   34MOL   H38112987   4.674   5.923   5.035 -0.6656 -1.9204  0.0072
   34MOL   H38212988   5.224   5.952   5.238 -0.0136 -0.3567  0.3406
   35MOL     C112989   4.842   7.194   2.741 -0.0914 -0.5198 -0.4244
   35MOL     C212990   4.869   7.295   2.851 -0.3820 -0.0878 -0.1905
   35MOL     C312991   4.748   7.393   2.851 -0.4627 -0.3961 -0.2039
   35MOL     O412992   4.762   7.517   2.873 -0.4750  0.5821 -0.2501
   35MOL     N512993   4.627   7.344   2.824 -0.2183  0.1842  0.0881
   35MOL     C612994   4.510   7.388   2.878 -0.0846 -0.8926 -0.4865
   35MOL     C712995   4.401   7.404   2.774 -0.2743  0.9320 -0.5503
   35MOL     C812996   4.483   7.293   2.992  0.3335 -0.5922  0.9286
   35MOL     H912997   4.778   7.108   2.763  0.4077 -1.0799 -1.1418
   35MOL    H1012998   4.939   7.166   2.701  1.6567 -0.6112  3.5723
   35MOL    H1112999   4.953   7.356   2.821 -0.5340  0.5677  0.7099
   35MOL    H1213000   4.621   7.258   2.772  0.0751 -0.5513  1.2394
   35MOL    H1313001   4.524   7.487   2.921  1.1759 -2.2776  2.4182
   35MOL    H1413002   4.422   7.461   2.684  1.3812  0.5194 -0.4299
   35MOL    H1513003   4.316   7.448   2.826 -0.1629  0.4443  0.0575
   35MOL    H1613004   4.370   7.307   2.733  0.4461  0.6920 -0.5255
   35MOL    H1713005   4.413   7.327   3.069  2.1744  1.6218  1.6607
   35MOL    H1813006   4.458   7.194   2.951  1.3249 -0.4495 -0.0516
   35MOL    H1913007   4.576   7.273   3.045  0.2566 -0.6438  1.0436
   35MOL    H2013008   4.781   7.241   2.665  0.7715  1.0785 -0.1515
   35MOL    C2113009   4.900   7.229   2.989 -0.5691  0.3845 -0.1467
   35MOL    C2213010   4.965   7.319   3.100 -0.1421  0.0761 -0.2693
   35MOL    C2313011   5.089   7.260   3.167 -0.4983  0.5452 -0.5380
   35MOL    O2413012   5.191   7.323   3.171 -0.1226 -0.0447 -0.1289
   35MOL    N2513013   5.076   7.139   3.224 -0.3052 -0.1185  0.1559
   35MOL    C2613014   5.173   7.072   3.303  0.1380  0.1990 -0.4849
   35MOL    C2713015   5.197   6.922   3.264  0.4592 -0.7348 -0.1078
   35MOL    C2813016   5.144   7.076   3.456 -0.4086  0.1575 -0.3650
   35MOL    H2913017   4.973   7.153   2.961 -0.7906  0.3967 -0.7649
   35MOL    H3013018   4.805   7.189   3.025 -0.9543  1.7837  0.4230
   35MOL    H3113019   5.018   7.393   3.041  1.1705 -1.1615 -0.6798
   35MOL    H3213020   4.990   7.089   3.206  0.1114 -1.0757  0.7492
   35MOL    H3313021   5.271   7.113   3.281  0.3918 -1.9196 -3.6368
   35MOL    H3413022   5.107   6.864   3.287  0.4528 -0.5031  0.4619
   35MOL    H3513023   5.278   6.874   3.320 -1.5654 -4.2054  0.0356
   35MOL    H3613024   5.210   6.897   3.159 -1.7041  0.3416 -0.6699
   35MOL    H3713025   5.201   7.000   3.510  1.1764  0.7939 -1.1090
   35MOL    H3813026   5.166   7.176   3.492  0.1400 -0.6752  1.6762
   35MOL    H3913027   5.039   7.049   3.468 -0.2661 -0.2581 -0.0367
   35MOL    C4013028   4.871   7.400   3.193 -0.0317  0.2170 -0.1523
   35MOL    C4113029   4.923   7.528   3.260 -0.6497 -0.1758  0.2867
   35MOL    C4213030   5.001   7.501   3.387 -0.1971 -1.0396  0.5239
   35MOL    O4313031   4.949   7.432   3.477  1.0764 -0.0652  0.2085
   35MOL    N4413032   5.120   7.549   3.395  0.1751 -0.0118  0.0017
   35MOL    C4513033   5.211   7.539   3.512  0.1244  0.5395  0.0673
   35MOL    C4613034   5.340   7.466   3.462  0.1337  0.1942 -0.0262
   35MOL    C4713035   5.249   7.675   3.576  0.2046 -0.2189  0.7717
   35MOL    H4813036   4.836   7.328   3.266 -0.7141 -2.3867 -2.9444
   35MOL    H4913037   4.775   7.427   3.148 -1.5293 -3.8820  0.4032
   35MOL    H5013038   4.981   7.582   3.186 -0.9474 -0.4544 -0.1556
   35MOL    H5113039   5.147   7.586   3.305 -0.7987 -2.1912 -1.1961
   35MOL    H5213040   5.165   7.488   3.597  0.8446 -1.0053 -0.4408
   35MOL    H5313041   5.401   7.535   3.403 -0.5729  0.8917  0.0486
   35MOL    H5413042   5.327   7.377   3.400  0.6599  1.0718 -1.4192
   35MOL    H5513043   5.397   7.424   3.545  0.4491 -0.7927 -0.7360
   35MOL    H5613044   5.321   7.674   3.658  0.2753  1.5887  0.7498
   35MOL    H5713045   5.167   7.735   3.615 -1.2844 -0.6802 -1.5931
   35MOL    H5813046   5.299   7.736   3.501  0.1953 -2.4074 -1.0760
   35MOL    C5913047   4.809   7.628   3.300  0.4384  0.6661  0.2964
   35MOL    C6013048   4.720   7.690   3.183  0.1919 -0.1789 -0.3447
   35MOL    C6113049   4.801   7.800   3.109  0.1792  0.1583 -0.1625
   35MOL    O6213050   4.829   0.071   3.167 -0.4912 -0.7156  0.5483
   35MOL    N6313051   4.849   7.771   2.989 -0.2944  0.3860 -0.3057
   35MOL    C6413052   4.949   0.007   2.910 -0.4145  0.3259  0.9721
   35MOL    C6513053   5.017   7.747   2.812  0.0079  0.3578 -0.2944
   35MOL    C6613054   4.902   0.139   2.858  0.0223  1.3522  0.3266
   35MOL    H6713055   4.743   7.572   3.366 -0.6963  1.2106 -0.3533
   35MOL    H6813056   4.842   7.700   3.374  3.1598 -0.9412  0.6842
   35MOL    H6913057   4.699   7.614   3.108 -2.1455 -0.7405  0.8074
   35MOL    H7013058   4.825   7.679   2.956  2.6839 -1.6589  2.9082
   35MOL    H7113059   5.022   0.024   2.989  0.4073  1.2523  0.0317
   35MOL    H7213060   5.091   7.792   2.745 -1.7201  2.2819 -1.0015
   35MOL    H7313061   5.071   7.677   2.875 -1.4020  0.1195  0.6704
   35MOL    H7413062   4.942   7.689   2.757  0.7868 -0.2827 -0.6882
   35MOL    H7513063   4.839   0.115   2.773 -0.4616  1.5117  0.6364
   35MOL    H7613064   4.850   0.202   2.931 -0.0890 -0.2508  1.6616
   35MOL    H7713065   4.985   0.188   2.807  1.3743  0.0705  1.2822
   35MOL    C7813066   4.588   7.742   3.243  0.5928  0.5093  0.3543
   35MOL    C7913067   4.501   0.006   3.157 -0.4183  0.7208 -0.2094
   35MOL    C8013068   4.444   7.790   3.023  0.4385 -0.1985  0.0294
   35MOL    O8113069   4.339   7.725   3.011  0.3109  0.0324  0.4927
   35MOL    N8213070   4.503   7.834   2.913  0.1471  0.4778 -0.7674
   35MOL    C8313071   4.460   7.804   2.783 -0.7650  0.3084  0.4393
   35MOL    C8413072   4.393   0.094   2.723 -1.1544  0.6060 -0.1469
   35MOL    C8513073   4.584   7.768   2.698 -0.7081  0.3910  0.1339
   35MOL    H8613074   4.605   7.801   3.334 -1.0886 -0.2070  1.1436
   35MOL    H8713075   4.531   7.654   3.274 -1.0134  1.3570 -0.1493
   35MOL    H8813076   4.557   0.096   3.129  0.7190 -0.2084 -1.0056
   35MOL    H8913077   4.600   0.028   2.915  0.0595  0.6959  1.9277
   35MOL    H9013078   4.395   7.717   2.774 -1.0041  0.6865 -1.6085
   35MOL    H9113079   4.451   0.186   2.729 -0.7389  0.4698 -1.7163
   35MOL    H9213080   4.369   0.089   2.616 -1.1803 -2.1841 -0.0477
   35MOL    H9313081   4.300   0.119   2.772 -1.0145  3.0974 -1.0711
   35MOL    H9413082   4.638   0.024   2.679  0.8697 -0.4393  0.5001
   35MOL    H9513083   4.560   7.727   2.600 -0.1347 -0.5319  0.3701
   35MOL    H9613084   4.651   7.695   2.744  0.3443  1.4563  0.3066
   35MOL    C9713085   4.393   0.063   3.253  0.6744 -0.0175 -0.0267
   35MOL    C9813086   4.295   0.178   3.212  0.6149  0.2341  0.3196
   35MOL    C9913087   4.369   0.298   3.158 -0.3868 -0.0029  0.4865
   35MOL   O10013088   4.443   0.351   3.241 -0.5262  0.2506  0.0807
   35MOL   N10113089   4.351   0.339   3.030  0.0207 -0.6261  0.5974
   35MOL   C10213090   4.403   0.463   2.972  0.2760  1.0365 -0.3551
   35MOL   C10313091   4.545   0.427   2.923 -0.4975  0.3102  0.1250
   35MOL   C10413092   4.322   0.514   2.853 -0.8900  0.5049  0.5666
   35MOL   H10513093   4.452   0.111   3.330 -0.4577  0.1520  0.7402
   35MOL   H10613094   4.328   7.822   3.293  1.7926  0.4097  2.7327
   35MOL   H10713095   4.239   0.138   3.127 -0.6951  0.3998  1.1078
   35MOL   H10813096   4.294   0.285   2.966 -0.0870 -0.7225  0.7741
   35MOL   H10913097   4.414   0.541   3.046  2.9692  0.2337  0.1395
   35MOL   H11013098   4.607   0.513   2.900  0.2255 -0.3382 -0.4010
   35MOL   H11113099   4.593   0.374   3.006 -0.5772  0.3883  0.2216
   35MOL   H11213100   4.549   0.344   2.852  1.5838 -1.1935  1.8910
   35MOL   H11313101   4.297   0.438   2.778  0.3789  0.5725  0.0601
   35MOL   H11413102   4.375   0.598   2.809 -0.2423  0.8847  2.0444
   35MOL   H11513103   4.224   0.550   2.885 -0.7769  0.8622  0.5090
   35MOL   C11613104   4.200   0.227   3.321  0.1515  0.0597  0.0516
   35MOL   C11713105   4.102   0.125   3.387  0.0192  0.1969 -0.0689
   35MOL   C11813106   4.012   0.072   3.278  0.4278 -0.4833 -0.5417
   35MOL   O11913107   3.952   0.149   3.201 -0.1065  0.7581  0.1136
   35MOL   N12013108   4.008   7.777   3.266 -0.2698  0.1995  0.9765
   35MOL   C12113109   3.930   7.701   3.159  0.1938 -0.5121  0.8527
   35MOL   C12213110   4.015   7.574   3.130  0.3837 -0.1491 -0.7974
   35MOL   C12313111   3.787   7.665   3.199 -0.1434  0.2460  0.0263
   35MOL   H12413112   4.143   0.308   3.276  0.6294  0.5244  0.2779
   35MOL   H12513113   4.255   0.277   3.401 -0.2949  0.5443  0.0536
   35MOL   H12613114   4.158   0.039   3.423  1.5020 -0.9111 -4.7030
   35MOL   H12713115   4.074   7.717   3.314 -0.0197  0.5466  1.0708
   35MOL   H12813116   3.928   7.768   3.072  2.2427 -1.3111  0.1526
   35MOL   H12913117   4.116   7.601   3.101  1.7889 -0.8182  3.1954
   35MOL   H13013118   3.959   7.519   3.054 -0.5474 -1.3591  0.7427
   35MOL   H13113119   4.030   7.509   3.216 -0.2565 -2.4822 -2.3796
   35MOL   H13213120   3.724   7.750   3.225  1.6230  1.4823  0.3630
   35MOL   H13313121   3.736   7.613   3.118  1.3777 -0.2413 -0.6412
   35MOL   H13413122   3.791   7.592   3.281  2.5162 -0.8693 -1.0336
   35MOL   C13513123   4.020   0.178   3.511 -0.7333  0.7282  0.5720
   35MOL   C13613124   4.096   0.241   3.628 -0.2691  0.2224 -0.3275
   35MOL   C13713125   4.004   0.259   3.749  0.0229  0.1041 -1.1749
   35MOL   O13813126   3.928   0.169   3.778  0.6178  0.1029  0.3965
   35MOL   N13913127   4.010   0.368   3.818 -0.0652  0.0509 -0.0123
   35MOL   C14013128   3.914   0.400   3.928  0.0941  0.5798 -0.5022
   35MOL   C14113129   3.796   0.475   3.870  0.3331 -0.2780 -0.1748
   35MOL   C14213130   3.980   0.484   4.037  0.2599  0.0606  0.3352
   35MOL   H14313131   3.994   0.080   3.550  1.2413  0.7618  2.0439
   35MOL   H14413132   3.927   0.232   3.489 -0.4638  1.0890  0.3203
   35MOL   H14513133   4.138   0.337   3.596  0.7672 -0.5705 -1.3786
   35MOL   H14613134   4.084   0.432   3.794  1.5460 -1.5353  0.6698
   35MOL   H14713135   3.873   0.310   3.975 -0.8894 -0.0001 -2.4159
   35MOL   H14813136   3.820   0.550   3.794 -0.5091 -2.2790 -2.4862
   35MOL   H14913137   3.731   0.403   3.820 -0.3129 -0.2867  0.6751
   35MOL   H15013138   3.738   0.522   3.949 -0.8384  1.2437 -1.9041
   35MOL   H15113139   4.069   0.436   4.079 -0.2939 -1.6170 -0.3854
   35MOL   H15213140   3.912   0.497   4.121  0.5430  2.5040  0.2117
   35MOL   H15313141   4.004   0.585   4.004 -1.0400  0.3258  0.1654
   35MOL   C15413142   4.232   0.180   3.664 -0.2216  0.1713 -0.1456
   35MOL   C15513143   4.234   0.030   3.710 -0.3566 -0.8550  0.6420
   35MOL   C15613144   4.226   0.010   3.864  0.6282  0.1542 -0.6333
   35MOL   O15713145   4.337   7.829   3.928  0.3885  0.0281 -0.0230
   35MOL   N15813146   4.104   0.010   3.929 -0.1053 -0.3279  0.0011
   35MOL   C15913147   4.097   0.006   4.076 -0.3000 -0.5281  0.4168
   35MOL   C16013148   3.961   7.810   4.121 -0.1341 -0.2222  0.6048
   35MOL   C16113149   4.136   0.144   4.129  0.2288  0.2654 -0.2549
   35MOL   H16213150   4.265   0.238   3.750  0.3298 -0.6340  0.1896
   35MOL   H16313151   4.296   0.198   3.578  1.2687 -1.2285  0.6528
   35MOL   H16413152   4.144   7.826   3.665 -2.3094  3.3211  0.5195
   35MOL   H16513153   4.019   0.035   3.880 -1.2703 -2.0783  1.0819
   35MOL   H16613154   4.162   7.765   4.117 -1.3843 -2.0854 -0.7276
   35MOL   H16713155   3.956   7.821   4.229  0.6606  3.0898  0.3586
   35MOL   H16813156   3.906   0.059   4.082  0.7576 -1.3552 -3.3815
   35MOL   H16913157   3.924   7.713   4.089 -0.2218 -0.0067  0.0352
   35MOL   H17013158   4.050   0.210   4.115  0.3770  0.1842 -1.6238
   35MOL   H17113159   4.219   0.195   4.079  0.6247 -2.0451 -1.9903
   35MOL   H17213160   4.168   0.135   4.233 -0.8662 -1.0204 -0.0235
   35MOL   C17313161   4.361   7.796   3.651  0.4649 -0.0398 -0.2689
   35MOL   C17413162   4.341   7.642   3.635  0.7231 -0.1632 -0.1877
   35MOL   C17513163   4.215   7.590   3.569  0.4456 -0.1095 -0.3547
   35MOL   O17613164   4.185   7.626   3.452  0.5370  0.2305 -0.0763
   35MOL   N17713165   4.136   7.503   3.637  0.1821 -0.2921 -0.0086
   35MOL   C17813166   4.015   7.429   3.599  0.1103  0.3964 -0.6164
   35MOL   C17913167   4.069   7.318   3.502  0.5310  0.0077 -0.3038
   35MOL   C18013168   3.908   7.518   3.553  0.5318  0.6501 -0.2055
   35MOL   H18113169   4.452   7.827   3.704  0.5435 -0.2151 -0.3035
   35MOL   H18213170   4.371   7.833   3.549 -2.3759 -0.6556 -0.7911
   35MOL   H18313171   4.341   7.603   3.736 -0.5920 -2.8567 -1.1902
   35MOL   H18413172   4.172   7.474   3.727  0.2864 -0.2571 -0.0397
   35MOL   H18513173   3.986   7.379   3.691 -0.7113 -1.4067 -1.8172
   35MOL   H18613174   3.992   7.269   3.442  0.1384 -1.1351  1.1144
   35MOL   H18713175   4.130   7.252   3.562 -1.7883 -0.9216  1.1103
   35MOL   H18813176   4.135   7.363   3.428 -3.5461 -0.2628 -4.3360
   35MOL   H18913177   3.882   7.606   3.612 -0.9975  0.9418 -1.2631
   35MOL   H19013178   3.819   7.459   3.530  0.5961  0.3758  0.2589
   35MOL   H19113179   3.942   7.560   3.458 -1.9047  0.2990 -1.2866
   35MOL   C19213180   4.465   7.564   3.562  0.4170  0.3827 -0.7211
   35MOL   C19313181   4.455   7.406   3.576 -0.1068  0.5513  0.2263
   35MOL   C19413182   4.461   7.366   3.721 -0.8797 -0.1026 -0.0326
   35MOL   O19513183   4.357   7.368   3.787  0.5766 -0.5874 -0.1000
   35MOL   N19613184   4.581   7.357   3.785  0.4738 -0.0150 -0.2200
   35MOL   C19713185   4.596   7.358   3.935 -0.2933 -0.6519  0.7086
   35MOL   C19813186   4.743   7.331   3.969  0.3602  0.6761 -0.6794
   35MOL   C19913187   4.552   7.488   3.996  0.5932  0.0679 -0.7921
   35MOL   H20013188   4.557   7.600   3.607 -0.1754  0.4787  0.4224
   35MOL   H20113189   4.475   7.597   3.458 -0.2162  0.9961 -0.5871
   35MOL   H20213190   4.354   7.374   3.550  0.2094 -2.1447  2.1622
   35MOL   H20313191   4.671   7.366   3.739  0.1995  1.1453 -0.5328
   35MOL   H20413192   4.534   7.278   3.976 -3.5474  2.2427  1.6700
   35MOL   H20513193   4.804   7.421   3.963  1.2241  0.0474 -1.3532
   35MOL   H20613194   4.783   7.257   3.900 -1.8601  0.9593 -2.3388
   35MOL   H20713195   4.745   7.295   4.072 -2.1167 -0.5386 -1.0266
   35MOL   H20813196   4.586   7.500   4.099 -1.5804  0.7601 -0.1245
   35MOL   H20913197   4.444   7.479   4.008  0.6476  1.8450  1.5328
   35MOL   H21013198   4.578   7.580   3.942  0.2186  0.7102  0.1046
   35MOL   C21113199   4.563   7.330   3.493  0.2313  0.5003  0.6048
   35MOL   C21213200   4.541   7.177   3.479  0.3574 -0.0216 -0.3328
   35MOL   C21313201   4.409   7.148   3.400  0.4825 -0.1102  0.1562
   35MOL   O21413202   4.376   7.227   3.310 -0.3123 -0.4221 -0.0046
   35MOL   N21513203   4.342   7.044   3.438 -0.2181  0.5440 -0.7214
   35MOL   C21613204   4.213   6.998   3.384  0.7027 -0.3505 -0.3554
   35MOL   C21713205   4.133   6.935   3.500  0.5650 -0.5419  0.1637
   35MOL   C21813206   4.237   6.915   3.256 -0.4632 -0.0679 -0.2907
   35MOL   H21913207   4.663   7.345   3.535 -0.1125 -1.0461  2.0504
   35MOL   H22013208   4.570   7.366   3.391 -1.0104 -0.0641  0.3140
   35MOL   H22113209   4.518   7.128   3.574  2.5085 -0.0836  0.1945
   35MOL   H22213210   4.367   7.001   3.525 -2.0337 -0.1214 -0.5040
   35MOL   H22313211   4.154   7.085   3.358  0.0754 -1.2085 -1.9254
   35MOL   H22413212   4.174   6.839   3.531 -3.2091 -1.6926  1.8585
   35MOL   H22513213   4.122   6.993   3.592  1.1925 -1.4847  0.8400
   35MOL   H22613214   4.036   6.913   3.457  1.0633 -1.3242 -0.5606
   35MOL   H22713215   4.307   6.961   3.186 -0.3378  0.8563  0.4393
   35MOL   H22813216   4.142   6.906   3.204 -0.8119  0.8258  0.1864
   35MOL   H22913217   4.270   6.811   3.263  0.9253  0.3829 -0.0285
   35MOL   C23013218   4.669   7.109   3.427 -0.0272  0.3947 -0.3523
   35MOL   C23113219   4.669   6.955   3.418 -0.1451 -0.2927  0.1839
   35MOL   C23213220   4.770   6.923   3.309  0.0069 -0.3136 -0.3533
   35MOL   O23313221   4.887   6.910   3.343  0.4113 -0.8332 -0.2232
   35MOL   N23413222   4.732   6.894   3.184 -0.6009  0.0534  1.1830
   35MOL   C23513223   4.815   6.845   3.078 -0.4738  0.3689  0.3510
   35MOL   C23613224   4.845   6.694   3.081  0.3374 -0.1293 -0.2052
   35MOL   C23713225   4.723   6.876   2.952  0.1504  0.4833 -0.2581
   35MOL   H23813226   4.750   7.144   3.491 -1.1732  2.1016  0.2224
   35MOL   H23913227   4.698   7.156   3.333 -0.3723 -0.2855 -0.7956
   35MOL   H24013228   4.574   6.909   3.392  1.4328 -4.7793  1.7568
   35MOL   H24113229   4.633   6.900   3.165 -0.2718 -3.2150 -2.1394
   35MOL   H24213230   4.905   6.906   3.075  0.2891 -0.5293  3.2747
   35MOL   H24313231   4.902   6.673   3.172  1.7016  1.5009 -0.6503
   35MOL   H24413232   4.762   6.624   3.069  2.1150 -2.0517 -1.6265
   35MOL   H24513233   4.918   6.674   3.003 -1.5349 -0.2063 -1.9841
   35MOL   H24613234   4.713   6.984   2.944  0.3311  0.3677 -2.5082
   35MOL   H24713235   4.622   6.839   2.970  1.7889 -3.0513  2.2300
   35MOL   H24813236   4.764   6.832   2.861 -0.7310  0.5104 -0.6697
   35MOL   C24913237   4.714   6.880   3.551 -0.4008  0.5235  0.2788
   35MOL   C25013238   4.723   6.723   3.548  0.0746  0.4638  0.6041
   35MOL   C25113239   4.587   6.661   3.492 -0.1567  1.3191  0.3217
   35MOL   O25213240   4.477   6.688   3.544  0.1563  0.2098  0.3513
   35MOL   N25313241   4.606   6.574   3.388  0.3029  0.5324 -0.3408
   35MOL   C25413242   4.498   6.504   3.309 -0.6811 -0.0972 -0.3248
   35MOL   C25513243   4.462   6.577   3.181 -0.6210 -0.3727  0.1985
   35MOL   C25613244   4.542   6.365   3.260 -0.0942  0.7955  0.0914
   35MOL   H25713245   4.643   6.909   3.629 -1.3740 -1.2660  0.0881
   35MOL   H25813246   4.811   6.910   3.591  0.6895 -1.5378 -0.7569
   35MOL   H25913247   4.803   6.706   3.477 -0.3294 -0.1081  0.2925
   35MOL   H26013248   4.700   6.547   3.364 -0.2887  0.4922 -2.7005
   35MOL   H26113249   4.406   6.502   3.367 -0.6966  0.3524 -0.3348
   35MOL   H26213250   4.545   6.582   3.110 -1.4456 -0.4686 -0.7780
   35MOL   H26313251   4.377   6.539   3.125 -2.0691 -1.4484  3.0318
   35MOL   H26413252   4.425   6.676   3.207 -1.2740 -1.1246  2.2227
   35MOL   H26513253   4.451   6.315   3.225 -1.3394  2.1067  1.3658
   35MOL   H26613254   4.622   6.368   3.186  0.9996 -0.8880  1.1504
   35MOL   H26713255   4.586   6.297   3.334  0.2271  1.1455  0.2225
   35MOL   C26813256   4.752   6.649   3.688 -0.0189  0.1839  0.8666
   35MOL   C26913257   4.772   6.493   3.691  0.3402 -0.2214 -0.2821
   35MOL   C27013258   4.889   6.460   3.593  0.4316 -0.1936  0.1448
   35MOL   O27113259   4.995   6.519   3.602 -0.1072 -0.4628  0.2057
   35MOL   N27213260   4.854   6.377   3.494 -0.2809  0.6882  0.0714
   35MOL   C27313261   4.935   6.330   3.386 -0.8682  0.5165  0.0877
   35MOL   C27413262   4.884   6.192   3.336  0.4474 -0.0606  0.0509
   35MOL   C27513263   4.945   6.416   3.262 -0.6844 -0.6976  0.5844
   35MOL   H27613264   4.843   6.698   3.723  0.3326  0.3527 -0.2639
   35MOL   H27713265   4.677   6.677   3.762 -1.7110 -0.7803 -0.4334
   35MOL   H27813266   4.681   6.448   3.652  1.4810  0.7866 -4.3732
   35MOL   H27913267   4.765   6.330   3.507  0.1417 -0.7505 -2.0446
   35MOL   H28013268   5.036   6.311   3.424 -1.0980  0.1844  0.5382
   35MOL   H28113269   4.877   6.110   3.407  1.7766 -0.3230 -0.1120
   35MOL   H28213270   4.807   6.201   3.259  0.1539 -4.0076 -0.1976
   35MOL   H28313271   4.945   6.150   3.257 -1.8855 -2.4975 -0.5093
   35MOL   H28413272   4.983   6.514   3.290 -2.6779  0.7978 -1.6609
   35MOL   H28513273   5.016   6.381   3.188 -1.5176 -0.2124 -0.4758
   35MOL   H28613274   4.851   6.440   3.211  1.7717  0.8863 -3.4742
   35MOL   C28713275   4.806   6.449   3.833 -0.4277  0.2414  0.1009
   35MOL   C28813276   4.716   6.339   3.899 -0.2644 -0.5853 -0.0656
   35MOL   C28913277   4.734   6.201   3.836 -0.1902  0.3436 -0.1063
   35MOL   O29013278   4.757   6.179   3.718  0.3911  0.3691  0.1197
   35MOL   N29113279   4.722   6.092   3.916  0.3425  0.9158 -0.2831
   35MOL   C29213280   4.736   5.952   3.881 -0.4383  0.9018  0.5713
   35MOL   C29313281   4.822   5.886   3.986 -0.4842 -0.2640 -0.0661
   35MOL   C29413282   4.600   5.883   3.876  0.3916 -0.0184  0.4502
   35MOL   H29513283   4.908   6.413   3.846 -0.1008  1.6103  1.4893
   35MOL   H29613284   4.800   6.537   3.897 -1.0179 -0.5141  1.1124
   35MOL   H29713285   4.745   6.320   4.002 -0.8710 -0.2767  0.1674
   35MOL   H29813286   4.664   6.113   3.996 -2.6988 -0.5502 -2.0121
   35MOL   H29913287   4.790   5.939   3.787 -2.6810  1.9606 -0.8929
   35MOL   H30013288   4.770   5.883   4.082 -1.5616 -0.9832 -0.6551
   35MOL   H30113289   4.850   5.782   3.968 -1.8609 -0.2298 -2.6257
   35MOL   H30213290   4.918   5.936   4.001 -0.0171 -1.1013 -0.2217
   35MOL   H30313291   4.530   5.918   3.800 -0.6831  0.3692  1.5979
   35MOL   H30413292   4.623   5.777   3.859 -0.7843 -0.0083 -1.3571
   35MOL   H30513293   4.551   5.891   3.973 -0.2115 -0.2583  0.1744
   35MOL   C30613294   4.563   6.374   3.901 -0.7391  0.0553  0.1027
   35MOL   C30713295   4.506   6.402   4.037  0.4119 -0.2782  0.2298
   35MOL   C30813296   4.498   6.274   4.129  0.5972 -0.4250  0.0143
   35MOL   O30913297   4.507   6.159   4.082 -0.0350 -0.4787  0.1035
   35MOL   N31013298   4.482   6.297   4.260 -0.3034  0.3398 -0.1041
   35MOL   C31113299   4.448   6.190   4.347  0.3734  0.8110  0.5469
   35MOL   C31213300   4.457   6.222   4.494 -0.7684  0.4636 -0.8114
   35MOL   C31313301   4.303   6.143   4.316 -0.0308 -0.0728 -0.6029
   35MOL   H31413302   4.554   6.459   3.833  0.5739  0.9715  1.0434
   35MOL   H31513303   4.506   6.295   3.852  0.3817  1.2627 -3.2600
   35MOL   H31613304   4.568   6.472   4.093 -1.9121  0.6669  1.7265
   35MOL   H31713305   4.488   6.393   4.290  2.1161  1.1399 -2.8193
   35MOL   H31813306   4.516   6.109   4.322  0.4212  0.8710  0.4859
   35MOL   H31913307   4.452   6.134   4.559 -2.0791 -0.1491 -1.6980
   35MOL   H32013308   4.370   6.278   4.527  0.5864  3.4905 -2.2206
   35MOL   H32113309   4.546   6.282   4.509 -1.4426  0.8866  1.7415
   35MOL   H32213310   4.257   6.090   4.399  0.1925  2.3039  1.0649
   35MOL   H32313311   4.311   6.069   4.236  0.2337  0.4771 -1.0908
   35MOL   H32413312   4.232   6.218   4.280 -2.6255 -1.4779  1.4315
   35MOL   C32513313   4.367   6.473   4.022 -0.1184 -0.0947  0.2591
   35MOL   C32613314   4.367   6.626   4.064  0.3178  0.2630 -0.0817
   35MOL   C32713315   4.378   6.639   4.216  0.0111 -0.1461 -0.2224
   35MOL   O32813316   4.484   6.640   4.274 -0.5518 -0.2402  0.1297
   35MOL   N32913317   4.260   6.655   4.278 -0.0538  0.0618 -0.2863
   35MOL   C33013318   4.244   6.673   4.425  0.6370  0.4500  0.2988
   35MOL   C33113319   4.186   6.548   4.487  0.3506 -1.3647  0.2424
   35MOL   C33213320   4.139   6.792   4.440  0.5846 -0.0407 -0.2729
   35MOL   H33313321   4.302   6.415   4.088  1.3092  0.5008  2.2277
   35MOL   H33413322   4.334   6.446   3.921 -0.1144 -1.2491  0.5524
   35MOL   H33513323   4.277   6.679   4.034  0.1652  0.5816  0.9325
   35MOL   H33613324   4.182   6.661   4.215 -0.9401 -0.2378  0.7707
   35MOL   H33713325   4.339   6.691   4.476  0.0359  1.9468  0.9258
   35MOL   H33813326   4.086   6.523   4.454  0.6434  0.0948 -1.8400
   35MOL   H33913327   4.240   6.453   4.492  0.2728 -1.3546  1.7710
   35MOL   H34013328   4.167   6.571   4.592  0.4534 -0.3982  0.0547
   35MOL   H34113329   4.180   6.879   4.391  1.1317 -0.8964 -1.3545
   35MOL   H34213330   4.133   6.817   4.546 -0.9097 -3.7405  0.6319
   35MOL   H34313331   4.033   6.775   4.419  0.3769  2.1485 -1.0981
   35MOL   C34413332   4.473   6.704   3.985 -0.0519  0.2441 -0.0656
   35MOL   C34513333   4.452   6.860   3.990 -0.5384 -0.3837 -0.5110
   35MOL   C34613334   4.596   6.933   3.978  0.2433  0.8774 -0.5038
   35MOL   O34713335   4.619   6.996   3.875  0.0916 -0.2988  0.2774
   35MOL   N34813336   4.688   6.909   4.073  0.0586 -0.4476  0.2309
   35MOL   C34913337   4.825   6.966   4.094 -0.7973 -0.2816  0.3999
   35MOL   C35013338   4.833   7.037   4.226 -1.2671 -0.0196  0.3787
   35MOL   C35113339   4.943   6.864   4.074  0.9871  0.4156 -0.6895
   35MOL   H35213340   4.464   6.691   3.877 -0.6555  0.0769  0.0053
   35MOL   H35313341   4.573   6.669   4.008  0.2996  0.5074 -1.1273
   35MOL   H35413342   4.420   6.888   4.090 -0.3299  2.7124 -1.2634
   35MOL   H35513343   4.646   6.859   4.150  1.7047 -0.1732  1.3446
   35MOL   H35613344   4.844   7.038   4.015  0.8422 -0.0995  0.9253
   35MOL   H35713345   4.802   6.973   4.309  0.1425 -0.6285  0.4417
   35MOL   H35813346   4.926   7.085   4.255  0.1146 -2.9792  1.0247
   35MOL   H35913347   4.765   7.122   4.215 -0.1460  0.7464 -0.7786
   35MOL   H36013348   5.041   6.913   4.065  1.9940 -1.3440  0.3662
   35MOL   H36113349   4.954   6.788   4.151  0.6264  0.7895 -0.2684
   35MOL   H36213350   4.933   6.811   3.980  1.9913  0.5681 -0.8969
   35MOL   C36313351   4.343   6.912   3.892  0.2519  0.2725  0.2044
   35MOL   C36413352   4.317   7.060   3.880 -0.2477 -0.3420  0.8633
   35MOL   C36513353   4.254   7.121   4.003  1.2489 -0.7158 -0.0758
   35MOL   O36613354   4.215   7.055   4.099 -0.0089 -0.2245 -0.6578
   35MOL   N36713355   4.233   7.252   4.001 -0.5080  0.2740  0.5692
   35MOL   C36813356   4.148   7.328   4.090  0.1887 -0.2231  0.0698
   35MOL   C36913357   4.191   7.472   4.116 -0.3478  0.5422 -0.2407
   35MOL   C37013358   4.001   7.328   4.030  0.2454  1.2943 -0.2254
   35MOL   H37113359   4.243   6.877   3.917 -0.4919  0.7749 -1.9118
   35MOL   H37213360   4.369   6.891   3.788 -1.8182  1.7324 -0.6597
   35MOL   H37313361   4.245   7.079   3.801  0.3463 -0.2589  0.3419
   35MOL   H37413362   4.277   7.301   3.925  1.6189 -2.3199  0.0151
   35MOL   H37513363   4.144   7.283   4.189  1.8796 -1.1656 -0.2792
   35MOL   H37613364   4.114   7.523   4.173 -0.3588  4.0470 -3.2032
   35MOL   H37713365   4.274   7.491   4.185 -0.5279  0.9423 -0.1342
   35MOL   H37813366   4.202   7.527   4.023 -0.1572 -1.1858 -1.2795
   35MOL   H37913367   3.994   7.363   3.927  1.6035 -0.4741 -0.9366
   35MOL   H38013368   3.956   7.229   4.035  1.8539  0.4615 -1.6355
   35MOL   H38113369   3.940   7.397   4.089  0.8269  1.8674 -0.2866
   35MOL   H38213370   4.402   7.124   3.854 -0.6758  0.2694  0.9568
   36MOL     C113371   7.405   3.181   7.693 -0.0943 -0.4919  0.0591
   36MOL     C213372   7.398   3.184   7.542  1.4613 -0.3405  0.0358
   36MOL     C313373   7.281   3.282   7.500  0.0146  0.2743  0.0577
   36MOL     O413374   7.308   3.404   7.483  0.2614  0.8152 -0.1979
   36MOL     N513375   7.159   3.232   7.477 -0.1758 -0.2703  0.2320
   36MOL     C613376   7.032   3.303   7.436  0.0959  0.2371  0.4398
   36MOL     C713377   6.925   3.201   7.405  0.2502  0.2848 -0.2275
   36MOL     C813378   6.981   3.402   7.544  0.4729 -0.0242  0.8444
   36MOL     H913379   7.446   3.083   7.716  0.5272 -0.1366  0.4888
   36MOL    H1013380   7.314   3.202   7.749 -0.0884  0.6711 -0.3508
   36MOL    H1113381   7.372   3.089   7.493 -2.2808 -1.3277  3.6925
   36MOL    H1213382   7.153   3.135   7.505  0.8415  0.8157  4.5284
   36MOL    H1313383   7.058   3.356   7.344 -1.2929  1.1785  0.5794
   36MOL    H1413384   6.876   3.154   7.492  1.4653  1.1929  0.9616
   36MOL    H1513385   6.955   3.127   7.331  0.6119 -0.9012  1.0661
   36MOL    H1613386   6.831   3.246   7.373  0.1132  0.4806  0.4441
   36MOL    H1713387   6.895   3.455   7.503  0.6030  0.1577  0.8046
   36MOL    H1813388   6.952   3.366   7.643  0.4668  0.1569  0.9094
   36MOL    H1913389   7.048   3.488   7.548  1.4545 -0.7345 -0.0235
   36MOL    H2013390   7.476   3.256   7.730  0.7024 -0.9288 -0.5529
   36MOL    C2113391   7.537   3.221   7.484 -0.3947  0.2947 -0.2686
   36MOL    C2213392   7.558   3.231   7.334  0.7308  0.2531  0.2775
   36MOL    C2313393   7.509   3.103   7.263 -0.6114 -0.4136  0.2614
   36MOL    O2413394   7.574   2.997   7.286  0.0779 -0.1060  0.7700
   36MOL    N2513395   7.404   3.111   7.178  0.3684  0.8502 -0.3076
   36MOL    C2613396   7.354   3.003   7.093  0.3330 -0.4202 -0.3716
   36MOL    C2713397   7.464   2.979   6.982 -0.0325  0.1499 -0.5929
   36MOL    C2813398   7.209   3.025   7.043 -0.4672 -0.3458 -0.0568
   36MOL    H2913399   7.604   3.143   7.519 -0.5565  0.1819 -0.2101
   36MOL    H3013400   7.568   3.318   7.522 -0.3803 -0.1680  0.9179
   36MOL    H3113401   7.493   3.313   7.302 -3.2059 -1.8803  2.3593
   36MOL    H3213402   7.359   3.201   7.168 -0.2038  0.6456  0.3545
   36MOL    H3313403   7.345   2.913   7.153 -0.6246 -0.4872 -0.6095
   36MOL    H3413404   7.450   2.889   6.923 -0.4148 -0.1457 -0.0583
   36MOL    H3513405   7.564   2.960   7.021  0.5273  1.8748 -1.1205
   36MOL    H3613406   7.454   3.060   6.909  1.8905 -0.2747 -1.3312
   36MOL    H3713407   7.146   3.017   7.131  1.4963 -0.9885  1.3328
   36MOL    H3813408   7.202   3.121   6.992  0.6425  0.1692  0.7450
   36MOL    H3913409   7.176   2.944   6.978  0.0769 -1.6479  1.2613
   36MOL    C4013410   7.713   3.257   7.300 -0.0919 -0.1309 -0.0006
   36MOL    C4113411   7.768   3.395   7.339  0.1447  0.0812  0.0101
   36MOL    C4213412   7.705   3.498   7.251 -0.5012 -0.2301  0.9316
   36MOL    O4313413   7.754   3.525   7.141 -0.3274 -0.1138 -1.1308
   36MOL    N4413414   7.598   3.565   7.300 -0.0593  0.2187  0.3684
   36MOL    C4513415   7.549   3.687   7.238  0.2128 -0.6198 -0.0093
   36MOL    C4613416   7.408   3.715   7.284 -0.2615 -0.1059 -0.2267
   36MOL    C4713417   7.644   3.792   7.284  0.4164  0.1661  0.1414
   36MOL    H4813418   7.713   3.249   7.191 -1.1706 -1.7370  0.0979
   36MOL    H4913419   7.769   3.175   7.345  1.8471  0.6289 -1.0004
   36MOL    H5013420   7.731   3.408   7.441 -1.6561  0.1574 -0.6311
   36MOL    H5113421   7.550   3.526   7.380 -0.5979  0.4303  0.1454
   36MOL    H5213422   7.552   3.682   7.129  0.8605  0.1264 -0.0304
   36MOL    H5313423   7.323   3.651   7.262 -0.5473  0.0810  0.3357
   36MOL    H5413424   7.389   3.813   7.238  0.6660  1.1285  1.9441
   36MOL    H5513425   7.416   3.733   7.391 -1.3201  1.1831 -0.3531
   36MOL    H5613426   7.735   3.811   7.227  1.0791 -1.8123  0.4896
   36MOL    H5713427   7.667   3.776   7.390  0.8006  1.8921  0.3273
   36MOL    H5813428   7.595   3.888   7.275 -3.0229 -1.7777 -3.1531
   36MOL    C5913429   0.085   3.399   7.331  0.1297  0.1338  0.6989
   36MOL    C6013430   0.151   3.532   7.383 -0.8500 -0.8114  0.2320
   36MOL    C6113431   0.298   3.549   7.334 -0.3757 -0.0020 -0.7572
   36MOL    O6213432   0.382   3.501   7.406 -0.2245 -0.1914  0.5999
   36MOL    N6313433   0.330   3.608   7.220 -0.4134 -0.2033  0.3092
   36MOL    C6413434   0.460   3.630   7.157 -0.3625  0.5510 -0.0569
   36MOL    C6513435   0.476   3.520   7.048  0.4488  0.2344  0.9023
   36MOL    C6613436   0.486   3.772   7.104  0.1429  0.3109 -0.3203
   36MOL    H6713437   0.117   3.316   7.394 -0.4837  0.1292  1.0107
   36MOL    H6813438   0.120   3.372   7.231  1.5808  1.1315  0.9326
   36MOL    H6913439   0.100   3.617   7.338  1.3125  0.9675  1.0329
   36MOL    H7013440   0.260   3.643   7.156  1.6041  0.3000 -1.6750
   36MOL    H7113441   0.541   3.619   7.230 -0.6441 -2.0058 -0.0938
   36MOL    H7213442   0.476   3.422   7.096 -0.9169 -1.0445 -1.6178
   36MOL    H7313443   0.390   3.526   6.982  0.0508  4.1623  1.6776
   36MOL    H7413444   0.567   3.547   6.995 -0.3054  0.6612 -0.1764
   36MOL    H7513445   0.396   3.808   7.055  0.6062  2.2119  0.1766
   36MOL    H7613446   0.506   3.846   7.182  0.2297 -0.5935  0.5240
   36MOL    H7713447   0.563   3.785   7.028  0.9530 -0.3366  0.3793
   36MOL    C7813448   0.135   3.541   7.542  0.5080  0.3426  0.1979
   36MOL    C7913449   0.179   3.668   7.614 -0.0659  0.7323  0.3609
   36MOL    C8013450   0.102   3.790   7.561  0.2746 -0.5085 -0.9370
   36MOL    O8113451   7.826   3.824   7.599  0.0142 -0.6511 -0.4465
   36MOL    N8213452   0.167   3.849   7.463  0.3099  0.1133  0.1610
   36MOL    C8313453   0.138   3.980   7.405 -0.2542  0.1569 -0.7889
   36MOL    C8413454   0.215   4.086   7.485 -0.2761 -0.3443  0.5719
   36MOL    C8513455   0.155   3.993   7.251 -0.0433  0.5787 -0.6195
   36MOL    H8613456   0.174   3.448   7.583 -2.4056 -0.9742  0.0549
   36MOL    H8713457   0.030   3.531   7.567  0.8351  1.1651  1.9586
   36MOL    H8813458   0.282   3.696   7.593  0.2790 -0.9747 -0.2789
   36MOL    H8913459   0.256   3.807   7.437  0.8437 -0.0613  2.1949
   36MOL    H9013460   0.032   4.000   7.422  0.3714  2.3049  0.9003
   36MOL    H9113461   0.318   4.057   7.505  0.6247  2.8795  0.7814
   36MOL    H9213462   0.231   4.172   7.421 -1.1341 -0.0565  0.7423
   36MOL    H9313463   0.166   4.121   7.576  2.6465 -0.2026  2.1506
   36MOL    H9413464   0.147   4.098   7.224  0.0525  1.2134  1.6885
   36MOL    H9513465   0.080   3.931   7.202 -0.7378 -0.5300  1.7710
   36MOL    H9613466   0.251   3.960   7.212  0.0103  1.2373 -1.0546
   36MOL    C9713467   0.182   3.636   7.770  0.7152 -0.3535 -0.8992
   36MOL    C9813468   0.195   3.751   0.033 -0.6942 -0.4934 -0.7113
   36MOL    C9913469   0.336   3.817   0.027 -0.3023 -0.1187 -0.6277
   36MOL   O10013470   0.429   3.744   7.826  0.4404 -0.0002 -0.5962
   36MOL   N10113471   0.339   3.943   0.071 -0.5881 -0.1371 -0.2467
   36MOL   C10213472   0.455   4.026   0.102  0.2015  0.4942 -0.4120
   36MOL   C10313473   0.491   4.119   7.817  0.1516 -0.0717 -0.6630
   36MOL   C10413474   0.423   4.100   0.237 -0.2022 -0.3949  0.1924
   36MOL   H10513475   0.259   3.559   7.783  0.1333 -0.6973  0.7190
   36MOL   H10613476   0.091   3.579   7.792  0.0278  1.1275  0.1487
   36MOL   H10713477   0.128   3.830   7.834  0.2783  1.2484  1.2481
   36MOL   H10813478   0.253   3.985   0.105  0.1930  0.5062  0.9781
   36MOL   H10913479   0.536   3.953   0.108 -0.6400 -0.4318 -0.0834
   36MOL   H11013480   0.426   4.206   7.806 -1.1584 -1.3324 -3.4484
   36MOL   H11113481   0.590   4.164   7.819 -0.1999  0.6807  1.2611
   36MOL   H11213482   0.486   4.057   7.728 -3.3222  1.3996 -1.5797
   36MOL   H11313483   0.391   4.036   0.319  1.7689 -3.2127 -1.1698
   36MOL   H11413484   0.339   4.168   0.222  0.5320  0.3531 -0.5875
   36MOL   H11513485   0.509   4.162   0.262 -2.3160  1.7287  2.4670
   36MOL   C11613486   0.155   3.707   0.179 -0.6473 -0.1100 -0.1181
   36MOL   C11713487   7.835   3.687   0.192 -0.1933 -0.4547 -0.1090
   36MOL   C11813488   7.756   3.812   0.233  0.3812 -0.1342 -0.1541
   36MOL   O11913489   7.645   3.835   0.182  0.2861  0.2161 -0.0915
   36MOL   N12013490   7.798   3.877   0.340  0.5389 -0.5028 -0.1429
   36MOL   C12113491   7.738   4.002   0.399  0.2683 -0.6242  0.0592
   36MOL   C12213492   7.726   3.988   0.554  0.4350  0.4204  0.1762
   36MOL   C12313493   7.829   4.120   0.372 -0.4605 -0.5650 -0.9016
   36MOL   H12413494   0.182   3.770   0.264 -1.6821  0.4372 -0.1766
   36MOL   H12513495   0.200   3.610   0.199 -0.8395 -0.0283  0.6960
   36MOL   H12613496   7.790   3.675   0.093 -1.0635  1.1358  0.0801
   36MOL   H12713497   0.040   3.836   0.389 -1.1628 -2.2980  1.1470
   36MOL   H12813498   7.634   4.018   0.370  0.5891  1.2598 -0.1263
   36MOL   H12913499   7.827   3.962   0.586 -0.6937 -3.1985  1.0097
   36MOL   H13013500   7.657   3.916   0.597 -0.4684  1.4930  0.5326
   36MOL   H13113501   7.691   4.079   0.603 -2.2901  0.5471 -1.9083
   36MOL   H13213502   7.798   4.213   0.418 -1.2920 -0.1025 -2.3628
   36MOL   H13313503   0.085   4.092   0.422 -0.0094 -0.6039 -1.7461
   36MOL   H13413504   7.832   4.140   0.265 -0.7141 -0.0157 -0.8075
   36MOL   C13513505   7.802   3.568   0.281  0.3543 -0.4876 -0.1371
   36MOL   C13613506   7.658   3.528   0.294 -0.0535 -0.3392  0.0499
   36MOL   C13713507   7.601   3.493   0.153 -0.1153 -0.4548 -0.0815
   36MOL   O13813508   7.620   3.381   0.114  0.2554  0.1670  1.2546
   36MOL   N13913509   7.527   3.587   0.083 -0.1503 -0.7218  0.1483
   36MOL   C14013510   7.477   3.565   7.779  0.4034  0.0786 -0.5613
   36MOL   C14113511   7.595   3.561   7.685 -0.2496  0.6123  0.1775
   36MOL   C14213512   7.371   3.671   7.744  0.1643 -0.2564  0.4324
   36MOL   H14313513   0.013   3.600   0.375 -0.0866 -0.0941 -0.0489
   36MOL   H14413514   0.018   3.479   0.246  0.0686  0.0509 -1.9966
   36MOL   H14513515   7.603   3.612   0.336  1.3732  0.6476 -0.0145
   36MOL   H14613516   7.527   3.683   0.114  2.1554  0.5852 -3.5659
   36MOL   H14713517   7.430   3.469   7.757 -3.1682  1.0622  2.1755
   36MOL   H14813518   7.671   3.638   7.700  0.4757 -0.2250  0.8953
   36MOL   H14913519   7.643   3.465   7.702  3.1172  1.7997 -2.1196
   36MOL   H15013520   7.555   3.549   7.584 -3.2921 -0.4573  1.4549
   36MOL   H15113521   7.281   3.648   7.801  0.8918 -1.0496  1.2551
   36MOL   H15213522   7.356   3.670   7.636  0.3411  1.8786  0.3570
   36MOL   H15313523   7.398   3.773   7.772 -0.6814  0.7527 -2.3009
   36MOL   C15413524   7.649   3.414   0.407  0.2816  0.4825  0.1731
   36MOL   C15513525   7.515   3.356   0.451 -0.5267  0.5326  0.8706
   36MOL   C15613526   7.421   3.462   0.501  0.0380 -0.2215  0.2913
   36MOL   O15713527   7.420   3.480   0.625 -0.5360  0.4227  0.0460
   36MOL   N15813528   7.350   3.538   0.411  0.6795  0.3154 -0.3249
   36MOL   C15913529   7.274   3.661   0.439  0.1620  0.1299  0.4438
   36MOL   C16013530   7.157   3.665   0.339  0.4113  0.4262 -1.1716
   36MOL   C16113531   7.377   3.775   0.404  0.2475 -0.2912 -0.4511
   36MOL   H16213532   7.699   3.463   0.490  0.2801  1.3735 -0.3404
   36MOL   H16313533   7.714   3.333   0.373 -1.3381 -0.9923  0.5664
   36MOL   H16413534   7.468   3.322   0.359 -0.0306  0.0605  0.7905
   36MOL   H16513535   7.372   3.508   0.317 -0.1864 -1.9797  0.1637
   36MOL   H16613536   7.237   3.662   0.541  1.5495  0.1914  0.9610
   36MOL   H16713537   7.201   3.681   0.241 -0.0310  0.9784 -1.2807
   36MOL   H16813538   7.092   3.578   0.339  1.0742 -0.0886 -2.8549
   36MOL   H16913539   7.099   3.756   0.356  0.6563  0.5405 -0.9461
   36MOL   H17013540   7.469   3.766   0.462 -0.8866  1.1197  1.6290
   36MOL   H17113541   7.335   3.875   0.412  1.7614  0.3130  0.0514
   36MOL   H17213542   7.403   3.758   0.300 -2.1246 -0.1178 -1.1018
   36MOL   C17313543   7.535   3.239   0.546 -0.3911  0.4293  0.4671
   36MOL   C17413544   7.414   3.150   0.589  0.4269  0.2819  0.2492
   36MOL   C17513545   7.329   3.105   0.471  0.2516  0.8156  0.6755
   36MOL   O17613546   7.358   3.004   0.399  0.1942 -0.2255  0.0933
   36MOL   N17713547   7.219   3.178   0.450 -0.1499 -0.6019  0.2800
   36MOL   C17813548   7.134   3.160   0.332  0.6838 -0.6302 -0.2682
   36MOL   C17913549   7.201   3.207   0.209 -0.1472  0.2168 -0.0886
   36MOL   C18013550   6.997   3.234   0.336 -0.2158  0.0649 -0.0496
   36MOL   H18113551   7.609   3.265   0.621  0.1592 -1.4680  0.6093
   36MOL   H18213552   7.595   3.170   0.487  0.3087  2.1117 -0.8086
   36MOL   H18313553   7.345   3.207   0.651  0.4163  0.7810 -0.2240
   36MOL   H18413554   7.192   3.262   0.498 -0.5240  0.4884 -1.8027
   36MOL   H18513555   7.101   3.056   0.331 -1.1293 -0.0844  0.1489
   36MOL   H18613556   7.136   3.196   0.122  0.0164 -0.6351 -0.1086
   36MOL   H18713557   7.294   3.154   0.189 -1.9228 -2.8905 -0.4465
   36MOL   H18813558   7.225   3.313   0.211 -0.9327  0.4618 -2.2593
   36MOL   H18913559   6.998   3.337   0.301 -1.5123  1.3502  3.4809
   36MOL   H19013560   6.950   3.246   0.434  0.6080 -2.5916  0.7122
   36MOL   H19113561   6.927   3.168   0.285  0.2949 -0.4303 -0.1134
   36MOL   C19213562   7.469   3.027   0.670  0.0921 -0.3195  0.3776
   36MOL   C19313563   7.380   2.915   0.715 -0.0676  0.7207  0.3010
   36MOL   C19413564   7.271   2.964   0.816 -0.4843 -0.5788 -0.1165
   36MOL   O19513565   7.305   2.984   0.930  0.4659  0.3347  0.0382
   36MOL   N19613566   7.148   2.992   0.764  0.1299 -0.0014 -0.1940
   36MOL   C19713567   7.050   3.057   0.855  0.1087  0.6615  0.9162
   36MOL   C19813568   6.999   3.191   0.794 -0.6508  0.4531  0.1493
   36MOL   C19913569   6.934   2.964   0.897  0.0602  0.5990 -0.1649
   36MOL   H20013570   7.513   3.073   0.758  2.1211 -1.7937  0.1474
   36MOL   H20113571   7.553   2.982   0.618  0.8875  1.2927  0.2413
   36MOL   H20213572   7.317   2.877   0.635 -1.1355 -2.2080  2.4649
   36MOL   H20313573   7.132   2.964   0.669 -0.1722  2.2199 -0.8076
   36MOL   H20413574   7.096   3.088   0.949  0.2596  2.0232  0.4120
   36MOL   H20513575   6.903   3.215   0.841 -0.0087  1.8750  0.7706
   36MOL   H20613576   6.987   3.189   0.686 -0.0556 -1.1334  0.0930
   36MOL   H20713577   7.060   3.281   0.809  1.1683 -0.5927 -0.8054
   36MOL   H20813578   6.866   3.018   0.963 -0.4922 -1.2426  0.8065
   36MOL   H20913579   6.964   2.885   0.966 -2.0273  1.0014  1.2453
   36MOL   H21013580   6.881   2.920   0.812  1.0119 -0.2125 -0.3501
   36MOL   C21113581   7.462   2.795   0.763 -0.0717 -0.4155 -0.3752
   36MOL   C21213582   7.387   2.668   0.803  0.0127  0.1544  0.2079
   36MOL   C21313583   7.280   2.622   0.697  1.0859  0.2113 -0.4461
   36MOL   O21413584   7.310   2.631   0.576  0.2170 -0.0231  0.1749
   36MOL   N21513585   7.155   2.587   0.742  0.5370 -0.1862 -0.1770
   36MOL   C21613586   7.041   2.575   0.648  0.1438  0.0132 -0.1462
   36MOL   C21713587   6.907   2.621   0.706 -0.0470 -0.4891  0.1986
   36MOL   C21813588   7.028   2.433   0.607  0.1080 -0.4204 -0.0722
   36MOL   H21913589   7.526   2.825   0.846 -0.7060 -0.2693  0.0647
   36MOL   H22013590   7.524   2.766   0.678 -1.8318  0.5534 -2.0314
   36MOL   H22113591   7.329   2.687   0.893 -0.6974 -2.0577  0.2369
   36MOL   H22213592   7.142   2.552   0.836 -1.2050  0.0236 -0.3273
   36MOL   H22313593   7.067   2.645   0.568  0.0973 -0.4311 -0.5486
   36MOL   H22413594   6.831   2.642   0.631  0.4755  0.3255 -0.0992
   36MOL   H22513595   6.871   2.535   0.763 -1.3800  0.2666  0.5112
   36MOL   H22613596   6.913   2.698   0.783  2.0660 -0.2136 -0.2230
   36MOL   H22713597   7.132   2.406   0.589  0.8942  0.7933  2.4337
   36MOL   H22813598   6.976   2.414   0.513  0.3794  0.5340 -0.4224
   36MOL   H22913599   6.995   2.361   0.681  1.4287 -1.1788 -0.2135
   36MOL   C23013600   7.482   2.554   0.838  0.1035  0.4040 -0.3660
   36MOL   C23113601   7.533   2.458   0.728  0.0226 -0.1255  0.6097
   36MOL   C23213602   7.630   2.521   0.631  0.3590  0.3477  0.0226
   36MOL   O23313603   7.747   2.524   0.655  0.4768  0.1028 -0.6281
   36MOL   N23413604   7.585   2.558   0.512 -0.0488 -0.0416  0.3455
   36MOL   C23513605   7.663   2.628   0.400  0.3524  0.2200 -0.5681
   36MOL   C23613606   7.683   2.540   0.276  0.0763 -0.1752  0.5968
   36MOL   C23713607   7.583   2.756   0.351 -0.0204  0.6411  0.0441
   36MOL   H23813608   7.437   2.483   0.907  2.1095  0.9360  1.5424
   36MOL   H23913609   7.566   2.587   0.900 -0.3648  0.1049  0.4346
   36MOL   H24013610   7.444   2.432   0.669 -0.4383  0.4422  1.0465
   36MOL   H24113611   7.484   2.568   0.513  0.0942  1.7808 -1.0124
   36MOL   H24213612   7.760   2.648   0.444  0.7026  0.4062 -1.4206
   36MOL   H24313613   7.781   2.556   0.232 -0.3888 -0.2679 -0.4816
   36MOL   H24413614   7.698   2.434   0.294 -0.9010 -0.3662  0.3141
   36MOL   H24513615   7.603   2.542   0.201  0.2428 -0.3614  0.4161
   36MOL   H24613616   7.644   2.799   0.271 -0.1695 -0.1341 -0.4984
   36MOL   H24713617   7.579   2.826   0.434  1.1330 -1.4474  1.9468
   36MOL   H24813618   7.478   2.747   0.326  0.1576 -0.1036 -0.4805
   36MOL   C24913619   7.586   2.327   0.786 -0.3344 -0.2005  0.4036
   36MOL   C25013620   7.612   2.217   0.684 -0.1190 -0.3668  0.3142
   36MOL   C25113621   7.491   2.196   0.604  0.5160 -0.2163  0.3448
   36MOL   O25213622   7.384   2.187   0.658 -0.0139  0.4262  0.1463
   36MOL   N25313623   7.513   2.178   0.479 -0.6203 -0.3980  0.0616
   36MOL   C25413624   7.424   2.152   0.364  0.2590  0.2927  0.0811
   36MOL   C25513625   7.343   2.026   0.385 -0.1851  0.3708 -0.4814
   36MOL   C25613626   7.323   2.268   0.345 -0.2010  0.8291 -0.4223
   36MOL   H25713627   7.515   2.283   0.856  1.4843  0.7758  2.9398
   36MOL   H25813628   7.679   2.344   0.839  0.1093  1.3353 -0.8095
   36MOL   H25913629   7.696   2.231   0.617 -0.0707 -1.1321  0.2129
   36MOL   H26013630   7.612   2.180   0.459 -0.3521 -0.6531  1.3108
   36MOL   H26113631   7.481   2.143   0.271 -0.5744 -0.2786 -0.3787
   36MOL   H26213632   7.299   2.019   0.484  0.2840 -1.2178 -0.3660
   36MOL   H26313633   7.253   2.011   0.326 -0.9265  0.3939  0.6373
   36MOL   H26413634   7.409   1.939   0.383 -1.0383 -0.2984  0.1815
   36MOL   H26513635   7.253   2.279   0.427 -0.5738  0.2418 -0.6611
   36MOL   H26613636   7.373   2.363   0.327  1.3118  0.1032 -0.1366
   36MOL   H26713637   7.267   2.258   0.253  0.3544  0.6973 -0.7501
   36MOL   C26813638   7.661   2.088   0.763  1.1080 -0.2567 -0.5485
   36MOL   C26913639   7.670   1.950   0.675  0.3153  0.2594 -0.0900
   36MOL   C27013640   7.769   1.965   0.560  0.6774  0.1282 -0.3073
   36MOL   O27113641   0.047   1.995   0.586 -0.5394 -0.3042 -0.7124
   36MOL   N27213642   7.715   1.950   0.438 -0.2491  0.2470  0.0517
   36MOL   C27313643   7.785   1.933   0.318  0.0286 -0.9535  0.2483
   36MOL   C27413644   7.701   1.874   0.202  0.0300  0.0934  0.6090
   36MOL   C27513645   7.832   2.074   0.272  0.1791 -0.1319 -0.5026
   36MOL   H27613646   7.760   2.108   0.803  0.4443  1.3106  0.3678
   36MOL   H27713647   7.593   2.066   0.845  4.3226  0.3439  2.3940
   36MOL   H27813648   7.573   1.932   0.628  0.2636  0.2080  0.0387
   36MOL   H27913649   7.617   1.925   0.430 -0.4302  1.5561 -1.9722
   36MOL   H28013650   0.042   1.881   0.339 -0.3025 -1.7803 -0.3011
   36MOL   H28113651   7.764   1.859   0.115 -0.2695  1.2746  0.1815
   36MOL   H28213652   7.667   1.772   0.223 -0.0832 -0.9109 -3.9424
   36MOL   H28313653   7.618   1.937   0.172 -0.6533 -0.6478  0.9079
   36MOL   H28413654   0.043   2.072   0.174  1.0313  2.8735 -0.1986
   36MOL   H28513655   7.758   2.152   0.252  0.1306 -0.5369 -2.0265
   36MOL   H28613656   0.064   2.119   0.343 -1.4550  0.0253  1.0064
   36MOL   C28713657   7.702   1.832   0.766  0.3048 -0.3908 -0.2101
   36MOL   C28813658   7.718   1.691   0.696  0.3905 -0.4230 -0.1271
   36MOL   C28913659   7.581   1.618   0.664 -0.1013  0.2513  0.0069
   36MOL   O29013660   7.496   1.596   0.756  0.1779  0.5855  0.0450
   36MOL   N29113661   7.561   1.587   0.533  0.0798  0.8100 -0.0548
   36MOL   C29213662   7.435   1.544   0.475  0.0714 -0.9286 -0.1895
   36MOL   C29313663   7.361   1.662   0.416 -0.8656 -0.5946 -0.1140
   36MOL   C29413664   7.477   1.436   0.363  0.6481 -0.0825 -0.0176
   36MOL   H29513665   7.786   1.858   0.831  0.0292 -0.7953  0.3066
   36MOL   H29613666   7.615   1.815   0.829  1.9497 -1.7965  1.7399
   36MOL   H29713667   7.765   1.713   0.600  2.9056  0.9952  1.3639
   36MOL   H29813668   7.636   1.584   0.466 -0.2402 -2.7989 -0.3975
   36MOL   H29913669   7.366   1.505   0.550 -0.2036  0.9966  0.5874
   36MOL   H30013670   7.405   1.713   0.330 -1.0680  0.5224  0.4288
   36MOL   H30113671   7.263   1.634   0.379 -0.0736 -2.4101 -0.9025
   36MOL   H30213672   7.339   1.731   0.497 -0.6745 -1.7032  0.8879
   36MOL   H30313673   7.521   1.349   0.412 -0.8186 -1.6319 -1.3664
   36MOL   H30413674   7.386   1.403   0.312  0.6261 -1.3853  0.8383
   36MOL   H30513675   7.543   1.468   0.283  0.1792  0.7175 -0.0828
   36MOL   C30613676   7.815   1.590   0.762  0.0487  0.7182 -0.3381
   36MOL   C30713677   0.127   1.624   0.771 -0.1709  0.0541  0.0725
   36MOL   C30813678   0.187   1.649   0.634  0.1461  0.2345  0.0295
   36MOL   O30913679   0.155   1.574   0.539 -0.0427  0.5214  0.2570
   36MOL   N31013680   0.270   1.751   0.616 -0.4131  0.2847  0.4332
   36MOL   C31113681   0.306   1.804   0.482  0.4898 -0.0367 -0.4120
   36MOL   C31213682   0.360   1.949   0.487 -0.0198  0.0266 -0.5488
   36MOL   C31313683   0.412   1.716   0.424  0.4910 -0.2652 -0.3823
   36MOL   H31413684   7.763   1.561   0.853  2.4079 -0.8708  0.5543
   36MOL   H31513685   7.815   1.497   0.705 -1.4693  0.5419 -0.0498
   36MOL   H31613686   0.140   1.716   0.828  0.9361  0.5486 -0.9573
   36MOL   H31713687   0.308   1.796   0.698 -0.1662  1.0951 -0.1123
   36MOL   H31813688   0.217   1.788   0.422  0.2749  0.3443 -0.1969
   36MOL   H31913689   0.422   1.957   0.576 -1.1580  1.7614  0.1224
   36MOL   H32013690   0.287   2.030   0.498 -0.8232 -0.5939 -1.2350
   36MOL   H32113691   0.416   1.986   0.402 -0.9944 -0.5337 -1.4509
   36MOL   H32213692   0.488   1.685   0.497 -0.4390 -0.4797  0.5032
   36MOL   H32313693   0.458   1.772   0.343  1.5693  1.5959  1.4446
   36MOL   H32413694   0.363   1.625   0.390 -1.3817  0.9832 -1.0407
   36MOL   C32513695   0.199   1.509   0.839 -0.3277 -0.3888 -0.3797
   36MOL   C32613696   0.343   1.540   0.875  0.3262 -0.1875  0.2195
   36MOL   C32713697   0.359   1.653   0.971 -0.6434  0.0102  0.0917
   36MOL   O32813698   0.278   1.651   1.068 -0.2435 -0.2065  0.5222
   36MOL   N32913699   0.469   1.733   0.952 -0.3389  0.0390 -0.1730
   36MOL   C33013700   0.492   1.861   1.020  0.1796  0.2910  0.1459
   36MOL   C33113701   0.385   1.955   0.962  0.1751 -0.2647  0.4963
   36MOL   C33213702   0.633   1.898   0.979  0.5429  0.6642 -0.3452
   36MOL   H33313703   0.200   1.419   0.777  0.7991 -0.7410  0.1436
   36MOL   H33413704   0.153   1.486   0.935 -1.2806  3.1164  0.0572
   36MOL   H33513705   0.399   1.569   0.786 -1.0135  2.2935  0.1419
   36MOL   H33613706   0.537   1.717   0.879  0.7887 -1.7556  1.2236
   36MOL   H33713707   0.483   1.854   1.128  1.6172  2.0163  0.4098
   36MOL   H33813708   0.403   2.051   1.012 -0.6891 -0.5460  1.3823
   36MOL   H33913709   0.376   1.959   0.854  0.8959 -1.5914  0.3824
   36MOL   H34013710   0.294   1.906   0.996  0.8797 -2.1458 -0.2676
   36MOL   H34113711   0.697   1.827   1.032  0.4019  1.2074  0.5542
   36MOL   H34213712   0.657   1.999   1.012  1.7697  0.9504 -2.0260
   36MOL   H34313713   0.641   1.889   0.870 -1.9022  0.5633 -0.5402
   36MOL   C34413714   0.414   1.405   0.917  0.3554 -0.1702 -0.2347
   36MOL   C34513715   0.569   1.408   0.910  0.1449 -1.0317  0.0719
   36MOL   C34613716   0.630   1.305   1.004 -0.2899 -0.5577 -0.1534
   36MOL   O34713717   0.654   1.196   0.961 -0.1025 -0.0479 -0.2539
   36MOL   N34813718   0.682   1.342   1.121  0.1779 -0.0957 -0.1696
   36MOL   C34913719   0.745   1.249   1.216 -0.0593  0.4130  0.2172
   36MOL   C35013720   0.883   1.203   1.171 -0.4087 -0.0625  0.1382
   36MOL   C35113721   0.747   1.299   1.364  0.1262  0.1939  1.4076
   36MOL   H35213722   0.382   1.327   0.848 -1.5417  1.1484 -0.9138
   36MOL   H35313723   0.382   1.387   1.019 -1.3737  0.1786 -0.6951
   36MOL   H35413724   0.599   1.509   0.935 -1.5525 -0.5075  0.0762
   36MOL   H35513725   0.660   1.433   1.160 -1.9781 -0.5451 -0.2982
   36MOL   H35613726   0.687   1.157   1.214 -1.0740  1.0640 -2.1721
   36MOL   H35713727   0.942   1.278   1.119  0.4875 -1.3143 -0.6709
   36MOL   H35813728   0.933   1.154   1.255  0.9535  3.1421  1.2801
   36MOL   H35913729   0.870   1.115   1.108 -0.3131  0.6372 -0.8605
   36MOL   H36013730   0.782   1.218   1.427  1.5881  0.0530  0.4297
   36MOL   H36113731   0.809   1.386   1.387  0.2687  0.1099  1.3399
   36MOL   H36213732   0.648   1.342   1.382 -1.2668 -1.6509 -1.4854
   36MOL   C36313733   0.612   1.387   0.761  0.0977 -0.1941 -0.5680
   36MOL   C36413734   0.749   1.448   0.735  0.2565 -0.3100  0.1946
   36MOL   C36513735   0.740   1.593   0.688  0.0417 -0.8440  0.3384
   36MOL   O36613736   0.655   1.666   0.742 -0.1564  0.1804 -0.4560
   36MOL   N36713737   0.801   1.632   0.573 -0.0235 -0.0792  0.2753
   36MOL   C36813738   0.791   1.765   0.512  0.3851  0.1146  0.4356
   36MOL   C36913739   0.912   1.848   0.551  0.5292 -0.0804  0.1644
   36MOL   C37013740   0.778   1.759   0.358  0.2314  0.0082 -0.3621
   36MOL   H37113741   0.531   1.422   0.697 -0.6834  0.6764  0.8620
   36MOL   H37213742   0.609   1.280   0.738  0.5046 -0.9143  2.4819
   36MOL   H37313743   0.798   1.400   0.650 -0.9909 -1.3195  0.0292
   36MOL   H37413744   0.850   1.560   0.520 -0.8878  1.2355 -2.4036
   36MOL   H37513745   0.706   1.820   0.552 -0.1851  1.2932 -2.2720
   36MOL   H37613746   0.921   1.845   0.660 -0.4967 -0.0854  0.2525
   36MOL   H37713747   1.003   1.808   0.507 -0.1877 -0.8394 -0.6630
   36MOL   H37813748   0.907   1.946   0.504  1.1150 -0.0614  0.1427
   36MOL   H37913749   0.778   1.857   0.311 -2.9735  0.1921 -0.1090
   36MOL   H38013750   0.861   1.704   0.313 -0.3426 -1.1776 -0.0044
   36MOL   H38113751   0.683   1.715   0.327  0.3352  0.1896 -0.9471
   36MOL   H38213752   0.806   1.451   0.827  1.8243 -3.1842 -0.6197
   37MOL     C113753   2.294   3.754   5.456  0.1421 -0.0408 -0.1724
   37MOL     C213754   2.406   3.788   5.559  0.3085  0.0022 -0.6219
   37MOL     C313755   2.416   3.690   5.678 -1.1059  0.1145  0.1682
   37MOL     O413756   2.468   3.580   5.672 -0.3634  0.1857  0.1552
   37MOL     N513757   2.377   3.749   5.796  0.4769  0.5602 -0.8195
   37MOL     C613758   2.434   3.716   5.926 -0.8575  0.3064 -0.2694
   37MOL     C713759   2.448   3.845   6.012 -0.5025 -0.3677 -0.8043
   37MOL     C813760   2.345   3.614   6.009 -0.0710  0.1753 -0.3038
   37MOL     H913761   2.290   3.826   5.374 -0.1093  0.4867  0.3006
   37MOL    H1013762   2.194   3.759   5.498  0.2358 -0.4028  0.0987
   37MOL    H1113763   2.375   3.882   5.604 -1.4104 -1.0317  0.4649
   37MOL    H1213764   2.327   3.837   5.797  0.1710  0.3890  0.9166
   37MOL    H1313765   2.529   3.666   5.909 -0.8382 -0.3857  1.6409
   37MOL    H1413766   2.541   3.840   6.069 -0.7247 -1.0389 -0.4932
   37MOL    H1513767   2.364   3.872   6.077  1.3017  0.9260  1.0653
   37MOL    H1613768   2.459   3.932   5.947 -0.3426  0.4360  0.2665
   37MOL    H1713769   2.239   3.638   6.003  0.3731  3.5060  3.2390
   37MOL    H1813770   2.357   3.514   5.968 -0.8565 -0.5961  1.3465
   37MOL    H1913771   2.375   3.614   6.113 -1.9134 -1.0631  0.2432
   37MOL    H2013772   2.312   3.659   5.406 -2.0453 -0.6971  0.2482
   37MOL    C2113773   2.538   3.795   5.484  0.8528 -0.5364  0.3297
   37MOL    C2213774   2.658   3.867   5.564 -0.2226  0.1191  0.9110
   37MOL    C2313775   2.635   4.013   5.599  0.6403 -0.2101 -0.4459
   37MOL    O2413776   2.553   4.080   5.539  0.1672 -0.2569 -0.0694
   37MOL    N2513777   2.706   4.063   5.698 -0.6047  0.5589  0.5363
   37MOL    C2613778   2.728   4.203   5.720  0.2261 -0.3078  0.3589
   37MOL    C2713779   2.873   4.243   5.746  0.2789 -0.0042  0.6131
   37MOL    C2813780   2.640   4.240   5.839  0.0948 -1.0201  0.0175
   37MOL    H2913781   2.533   3.855   5.393 -3.0536 -0.2045  0.6645
   37MOL    H3013782   2.572   3.700   5.441  3.0926  1.1225 -1.7398
   37MOL    H3113783   2.684   3.810   5.654  0.4756 -2.2912 -0.7553
   37MOL    H3213784   2.775   4.001   5.737 -2.1266 -0.9557  0.8530
   37MOL    H3313785   2.700   4.257   5.629  1.4185  0.0911  0.2136
   37MOL    H3413786   2.910   4.168   5.815  0.1306 -0.0326  0.6620
   37MOL    H3513787   2.884   4.336   5.802 -2.0449  0.5381  0.2192
   37MOL    H3613788   2.926   4.234   5.651 -2.2422 -3.1211 -0.5920
   37MOL    H3713789   2.663   4.172   5.920 -1.0120 -0.1174  1.1084
   37MOL    H3813790   2.663   4.340   5.876  2.2352 -1.4616 -0.0977
   37MOL    H3913791   2.537   4.233   5.804  0.1162 -1.5036  0.0547
   37MOL    C4013792   2.799   3.855   5.479  0.2972  0.0919  1.0398
   37MOL    C4113793   2.909   3.755   5.539 -0.1192  0.0950 -0.5052
   37MOL    C4213794   2.952   3.797   5.682  0.0077 -0.7735 -0.0781
   37MOL    O4313795   2.984   3.913   5.710  0.2228 -0.1537  0.1457
   37MOL    N4413796   2.954   3.696   5.766  0.3092  0.4562  0.1064
   37MOL    C4513797   2.990   3.677   5.903 -0.2432  0.2409  0.6429
   37MOL    C4613798   2.859   3.707   5.979 -0.0401 -0.1141  0.4826
   37MOL    C4713799   3.049   3.533   5.918  0.8829  0.1062  0.6348
   37MOL    H4813800   2.837   3.957   5.470 -1.6432  0.8673  1.2867
   37MOL    H4913801   2.780   3.831   5.375  2.2261  1.2477  0.3958
   37MOL    H5013802   2.863   3.656   5.539  2.3375 -1.0786 -0.4839
   37MOL    H5113803   2.927   3.612   5.718 -0.6203 -0.0849  1.5420
   37MOL    H5213804   3.061   3.756   5.927 -1.6360  1.1806  1.7845
   37MOL    H5313805   2.848   3.814   5.997  0.5602 -0.3519  2.3328
   37MOL    H5413806   2.848   3.655   6.074 -2.8324  0.7605  0.7009
   37MOL    H5513807   2.770   3.678   5.923 -0.6247  0.6988  0.9877
   37MOL    H5613808   3.149   3.523   5.876  0.3773  1.7567 -1.0194
   37MOL    H5713809   2.989   3.450   5.881  2.6073 -1.3068  0.9531
   37MOL    H5813810   3.044   3.512   6.025 -1.6213  1.9616  0.9401
   37MOL    C5913811   3.027   3.738   5.447 -0.2489 -0.1289 -0.2241
   37MOL    C6013812   3.000   3.643   5.330  0.4021  0.2453  0.4437
   37MOL    C6113813   2.982   3.496   5.365  0.2808  0.1709  0.3242
   37MOL    O6213814   3.075   3.439   5.436  0.3415 -0.5742  0.3193
   37MOL    N6313815   2.870   3.436   5.324  0.3109 -0.3485  0.3014
   37MOL    C6413816   2.844   3.298   5.349 -0.0101  0.4644  0.1233
   37MOL    C6513817   2.716   3.273   5.432  0.0304 -0.5079 -0.2620
   37MOL    C6613818   2.828   3.237   5.207 -0.2310 -0.6666  0.1769
   37MOL    H6713819   3.051   3.835   5.405  1.4715  0.3830  1.8909
   37MOL    H6813820   3.111   3.692   5.500  1.0064  1.1949 -1.0471
   37MOL    H6913821   2.904   3.674   5.288  0.7202  0.3100 -0.2433
   37MOL    H7013822   2.800   3.495   5.282 -0.0523 -1.9660 -1.4124
   37MOL    H7113823   2.926   3.251   5.404  1.0086  0.9180 -0.9924
   37MOL    H7213824   2.694   3.167   5.447 -0.1645 -0.6112 -1.1988
   37MOL    H7313825   2.731   3.325   5.526  0.2823 -0.0799 -0.5364
   37MOL    H7413826   2.630   3.313   5.378 -0.3353 -1.3247 -0.3033
   37MOL    H7513827   2.917   3.247   5.144 -1.9081 -0.6594 -2.2817
   37MOL    H7613828   2.803   3.132   5.191 -2.3836 -0.1893  0.3161
   37MOL    H7713829   2.756   3.294   5.149  0.3357  0.9067  0.9886
   37MOL    C7813830   3.101   3.655   5.217  0.0695  0.1644  0.0642
   37MOL    C7913831   3.252   3.635   5.259 -0.2857  0.4868  0.1789
   37MOL    C8013832   3.325   3.520   5.177  0.0870 -0.2749  0.2319
   37MOL    O8113833   3.368   3.548   5.064 -0.2454  0.6371 -0.4253
   37MOL    N8213834   3.337   3.404   5.239 -0.1457 -0.4409  0.3146
   37MOL    C8313835   3.421   3.287   5.209  0.6251 -0.8887  0.0713
   37MOL    C8413836   3.558   3.306   5.262  0.1056 -0.5015 -0.2798
   37MOL    C8513837   3.351   3.170   5.284 -0.4487  0.4885  0.5278
   37MOL    H8613838   3.095   3.750   5.164  0.2036 -0.5194 -1.1942
   37MOL    H8713839   3.079   3.571   5.151  1.0191 -1.3119  1.5877
   37MOL    H8813840   3.255   3.607   5.365 -3.3759  1.5881  0.6065
   37MOL    H8913841   3.268   3.390   5.312 -0.2847 -2.1961 -0.1424
   37MOL    H9013842   3.432   3.263   5.104 -2.5796 -0.2524 -0.4672
   37MOL    H9113843   3.538   3.323   5.367 -2.8528 -0.6117 -0.7987
   37MOL    H9213844   3.621   3.217   5.249 -0.8022 -0.7087 -3.6555
   37MOL    H9313845   3.619   3.392   5.236 -1.1633  0.9688  1.5759
   37MOL    H9413846   3.401   3.074   5.270 -1.8797  0.2865 -3.6303
   37MOL    H9513847   3.246   3.148   5.269 -0.6038  2.4643 -1.4075
   37MOL    H9613848   3.355   3.193   5.391 -0.1265  6.3655 -0.5996
   37MOL    C9713849   3.332   3.763   5.232  0.1001  0.0147 -0.3975
   37MOL    C9813850   3.466   3.767   5.313  0.9521  0.0228  0.1067
   37MOL    C9913851   3.440   3.733   5.462 -0.4147  0.1640  0.5799
   37MOL   O10013852   3.406   3.824   5.540  0.8654 -0.2430  0.6358
   37MOL   N10113853   3.457   3.605   5.489 -0.6258 -0.1232  0.0034
   37MOL   C10213854   3.449   3.544   5.620 -0.1647  0.3254  0.3155
   37MOL   C10313855   3.324   3.461   5.638  0.5557  0.4107 -0.1116
   37MOL   C10413856   3.579   3.472   5.666 -0.6669  0.8447 -0.0768
   37MOL   H10513857   3.278   3.850   5.269 -1.8633 -1.7520  1.0431
   37MOL   H10613858   3.342   3.777   5.124  0.8978 -1.5944 -0.5429
   37MOL   H10713859   3.524   3.681   5.279  0.4418 -0.3281  0.1117
   37MOL   H10813860   3.479   3.547   5.410  0.1848 -0.0292  0.1490
   37MOL   H10913861   3.439   3.625   5.693  0.1229  0.9247 -0.3001
   37MOL   H11013862   3.326   3.421   5.739  0.6533  1.0317  0.1340
   37MOL   H11113863   3.236   3.524   5.624  1.4537  1.9340  0.9660
   37MOL   H11213864   3.315   3.380   5.565 -5.1566  1.1300 -0.3801
   37MOL   H11313865   3.603   3.395   5.593 -1.5323 -1.3175  1.8389
   37MOL   H11413866   3.580   3.414   5.758 -1.9951 -0.9681 -1.1729
   37MOL   H11513867   3.663   3.541   5.660 -1.7649  2.1793 -0.1680
   37MOL   C11613868   3.550   3.900   5.287 -0.2147 -0.1708 -0.4782
   37MOL   C11713869   3.703   3.906   5.303 -0.5218  0.2499  0.3184
   37MOL   C11813870   3.785   3.816   5.208  0.0753 -0.3262  0.1103
   37MOL   O11913871   3.786   3.695   5.225  0.4108  0.2459  0.2518
   37MOL   N12013872   3.840   3.876   5.099  0.2507  0.3895  1.2601
   37MOL   C12113873   3.895   3.813   4.983  0.3911  0.4978 -0.5361
   37MOL   C12213874   3.820   3.860   4.861  0.0283 -0.3717 -0.6207
   37MOL   C12313875   4.042   3.837   4.977  0.7364 -0.3589 -0.1561
   37MOL   H12413876   3.513   3.979   5.353  0.3661  0.4070 -0.8348
   37MOL   H12513877   3.520   3.932   5.187  1.7132 -3.9272 -2.3375
   37MOL   H12613878   3.717   4.010   5.274  0.5310 -0.7028 -2.7805
   37MOL   H12713879   3.827   3.977   5.098  2.0169  0.6205  1.0075
   37MOL   H12813880   3.876   3.706   4.986 -0.0605  0.5326 -1.6630
   37MOL   H12913881   3.839   3.968   4.863  0.6730 -0.4682 -1.3880
   37MOL   H13013882   3.715   3.829   4.861  0.7800 -2.9807 -0.3100
   37MOL   H13113883   3.878   3.825   4.776  1.1719 -0.9120  0.3797
   37MOL   H13213884   4.079   3.799   5.072  2.5715 -0.5123 -0.9037
   37MOL   H13313885   4.092   3.786   4.895 -1.9649 -0.2635 -1.9110
   37MOL   H13413886   4.068   3.940   4.950  1.4730 -0.6368 -0.5177
   37MOL   C13513887   3.745   3.875   5.455  0.6254  0.2883  0.2241
   37MOL   C13613888   3.881   3.908   5.521 -0.5659 -0.2053 -0.2162
   37MOL   C13713889   3.905   4.059   5.517  0.1947  0.1586 -0.6686
   37MOL   O13813890   3.860   4.131   5.605 -0.3752 -0.4863 -0.1607
   37MOL   N13913891   3.975   4.109   5.416  0.4118 -0.1592 -0.2528
   37MOL   C14013892   4.010   4.248   5.397 -0.0429  0.8009  0.4611
   37MOL   C14113893   4.031   4.268   5.249  0.0224  0.6121 -0.3097
   37MOL   C14213894   4.124   4.303   5.480  0.5774  0.1646  0.4603
   37MOL   H14313895   3.738   3.769   5.482 -1.1070  0.1302 -0.7633
   37MOL   H14413896   3.668   3.920   5.518  0.9324 -0.6074  1.2589
   37MOL   H14513897   3.961   3.864   5.462  0.6244 -1.7438  2.4518
   37MOL   H14613898   4.023   4.040   5.361  0.1397 -2.1951  2.0140
   37MOL   H14713899   3.921   4.309   5.418 -0.0408  0.9338  0.0862
   37MOL   H14813900   3.952   4.213   5.199  0.9924  0.0844 -1.2761
   37MOL   H14913901   4.018   4.376   5.237  0.2093  0.8783  1.7085
   37MOL   H15013902   4.124   4.224   5.214  0.8998  3.4376 -1.6888
   37MOL   H15113903   4.109   4.307   5.588 -0.1679 -2.1374  0.4667
   37MOL   H15213904   4.157   4.402   5.449  1.3339 -0.0481  0.5664
   37MOL   H15313905   4.213   4.239   5.479  2.6096  2.9494 -0.8853
   37MOL   C15413906   3.887   3.859   5.666  0.6450 -1.1497  0.0452
   37MOL   C15513907   4.011   3.889   5.754 -0.4202 -0.1940  0.9312
   37MOL   C15613908   4.130   3.842   5.673  0.4126  0.1381  0.1102
   37MOL   O15713909   4.143   3.729   5.635 -0.6080 -0.3782 -0.1358
   37MOL   N15813910   4.224   3.930   5.662  0.6275  0.1134 -0.1187
   37MOL   C15913911   4.358   3.897   5.622  0.0921  0.4748  0.4097
   37MOL   C16013912   4.438   3.828   5.737  0.2421  0.1483 -0.5199
   37MOL   C16113913   4.438   4.020   5.575 -0.2537 -0.3367  0.4658
   37MOL   H16213914   3.863   3.754   5.684 -2.5661 -0.5717 -0.6302
   37MOL   H16313915   3.791   3.891   5.706 -1.0248 -3.4725 -1.9658
   37MOL   H16413916   4.014   3.997   5.768  0.5796  0.0393 -0.8343
   37MOL   H16513917   4.210   4.025   5.695  0.7523 -0.0928  0.5294
   37MOL   H16613918   4.346   3.825   5.540  2.0818  0.2735  0.2571
   37MOL   H16713919   4.376   3.741   5.760 -0.4692  0.4108 -1.4258
   37MOL   H16813920   4.541   3.803   5.711 -0.0188 -0.6567 -0.8090
   37MOL   H16913921   4.440   3.892   5.826  0.3923  2.0262 -1.8499
   37MOL   H17013922   4.393   4.065   5.486 -0.2154  2.3035  1.7176
   37MOL   H17113923   4.543   3.998   5.555  0.7071  5.0208 -1.2257
   37MOL   H17213924   4.435   4.100   5.649  1.1334  0.0770  0.0995
   37MOL   C17313925   4.001   3.819   5.889 -0.2240  0.1254  0.2190
   37MOL   C17413926   4.102   3.847   5.987 -0.2080 -0.2677 -0.0920
   37MOL   C17513927   4.097   3.994   6.036  0.1734 -0.2111  0.2407
   37MOL   O17613928   4.000   4.041   6.090  0.3243  0.2911  0.1825
   37MOL   N17713929   4.212   4.059   6.023 -0.2229 -0.1071 -0.1540
   37MOL   C17813930   4.232   4.200   6.030 -0.4360  0.0038  0.5136
   37MOL   C17913931   4.293   4.243   5.899  0.2012 -0.0563  0.0145
   37MOL   C18013932   4.332   4.205   6.146  0.2803 -0.0694 -0.3699
   37MOL   H18113933   3.975   3.715   5.875 -1.8887  0.4815  0.5656
   37MOL   H18213934   3.904   3.853   5.925 -1.0182 -0.5543 -1.2291
   37MOL   H18313935   4.200   3.834   5.941 -0.4228 -0.2338 -0.5609
   37MOL   H18413936   4.293   3.999   6.036  1.8533  1.6562 -4.0283
   37MOL   H18513937   4.145   4.260   6.054 -0.9777  0.4308 -2.3268
   37MOL   H18613938   4.372   4.176   5.864 -0.2702 -0.1387 -0.9021
   37MOL   H18713939   4.337   4.343   5.903 -0.3178  0.2900 -2.3682
   37MOL   H18813940   4.216   4.232   5.824 -0.4215  0.9065  0.5079
   37MOL   H18913941   4.357   4.305   6.182  4.2983 -0.2196 -2.4658
   37MOL   H19013942   4.426   4.164   6.110  0.6788 -0.1765  0.7861
   37MOL   H19113943   4.306   4.142   6.231  0.2095  0.5846  0.0944
   37MOL   C19213944   4.083   3.742   6.106  0.0062  0.0941  0.1496
   37MOL   C19313945   4.190   3.750   6.218  0.4997 -0.1667 -0.3911
   37MOL   C19413946   4.329   3.749   6.159  0.4255 -0.6642 -0.3583
   37MOL   O19513947   4.386   3.861   6.160  0.0820  0.1814  0.9218
   37MOL   N19613948   4.388   3.639   6.112 -0.1786  0.3055  0.6283
   37MOL   C19713949   4.528   3.637   6.069 -0.2155 -0.8083  0.4995
   37MOL   C19813950   4.625   3.611   6.183  1.2925 -0.5619  0.7157
   37MOL   C19913951   4.545   3.540   5.957 -0.1915  0.4439  0.6848
   37MOL   H20013952   4.097   3.649   6.051 -1.5887  0.8642 -1.6307
   37MOL   H20113953   3.983   3.755   6.146  0.2249 -0.1213  0.7696
   37MOL   H20213954   4.190   3.844   6.272  0.7965  0.4982 -1.5300
   37MOL   H20313955   4.337   3.553   6.106  0.9329 -0.3205 -0.0667
   37MOL   H20413956   4.558   3.733   6.027 -1.2257 -0.2952  0.9081
   37MOL   H20513957   4.621   3.683   6.265  2.9971 -1.2242  1.4027
   37MOL   H20613958   4.729   3.628   6.153  0.9081 -0.8889 -0.8549
   37MOL   H20713959   4.608   3.509   6.216 -0.6478 -0.1965  0.9114
   37MOL   H20813960   4.643   3.560   5.914  0.1902 -1.2737  0.7447
   37MOL   H20913961   4.470   3.551   5.879  0.9242 -1.4163 -0.6900
   37MOL   H21013962   4.542   3.435   5.984  0.2642  0.0787 -0.6499
   37MOL   C21113963   4.178   3.629   6.320 -0.0223  0.3311  0.3482
   37MOL   C21213964   4.189   3.673   6.468 -1.0266 -0.4569 -0.6051
   37MOL   C21313965   4.133   3.568   6.563  0.2997 -0.0415 -0.2625
   37MOL   O21413966   4.173   3.454   6.551 -0.2099  0.5497 -0.2929
   37MOL   N21513967   4.049   3.613   6.666 -0.3549 -0.0818  0.2896
   37MOL   C21613968   3.972   3.521   6.757 -0.1069  0.4890  0.0622
   37MOL   C21713969   3.823   3.500   6.719 -0.1016 -0.1298  0.7590
   37MOL   C21813970   3.983   3.574   6.901  0.0253 -0.3594  0.8546
   37MOL   H21913971   4.238   3.541   6.294 -1.0009 -0.6854  1.4281
   37MOL   H22013972   4.074   3.598   6.310  0.1963 -0.4915  0.5040
   37MOL   H22113973   4.122   3.757   6.484 -0.5121 -0.1273 -0.1703
   37MOL   H22213974   4.058   3.710   6.694  2.5579  0.2053 -1.3724
   37MOL   H22313975   4.017   3.422   6.766  0.6629  0.5118 -2.9194
   37MOL   H22413976   3.765   3.433   6.782  1.2331 -1.3505  0.7314
   37MOL   H22513977   3.767   3.593   6.726  1.0700  0.6261  0.2770
   37MOL   H22613978   3.819   3.462   6.617  2.1004 -1.4626  1.1136
   37MOL   H22713979   3.961   3.680   6.912 -1.7323 -0.6047 -0.1288
   37MOL   H22813980   4.087   3.573   6.934  1.2023 -0.8341 -2.6520
   37MOL   H22913981   3.916   3.521   6.969  1.0429  0.7441  2.7822
   37MOL   C23013982   4.339   3.710   6.499  0.0424 -0.2441  0.5667
   37MOL   C23113983   4.365   3.771   6.638  0.0860  0.2246  0.0407
   37MOL   C23213984   4.268   3.886   6.673 -0.4948 -0.0930 -0.1350
   37MOL   O23313985   4.181   3.859   6.758  0.2667 -0.8337 -0.1913
   37MOL   N23413986   4.283   4.001   6.607 -0.0969  0.2135 -0.1279
   37MOL   C23513987   4.192   4.119   6.606  0.2652  0.0745 -0.6949
   37MOL   C23613988   4.269   4.247   6.568  0.7881  0.1950  0.4562
   37MOL   C23713989   4.087   4.086   6.504  0.0524  0.5060  0.2407
   37MOL   H23813990   4.374   3.774   6.418 -1.1784 -1.9871 -1.3962
   37MOL   H23913991   4.399   3.620   6.483 -0.9449 -0.7503 -0.3914
   37MOL   H24013992   4.464   3.813   6.619 -0.5361  1.2303 -1.0499
   37MOL   H24113993   4.359   4.006   6.542  0.7090  1.0109  0.8418
   37MOL   H24213994   4.140   4.134   6.700 -0.3879  1.8287 -1.3064
   37MOL   H24313995   4.312   4.249   6.468 -1.4498 -2.0579 -0.6189
   37MOL   H24413996   4.191   4.323   6.566 -1.2777 -1.8667 -0.1135
   37MOL   H24513997   4.349   4.268   6.639 -0.0590  3.5415  0.4734
   37MOL   H24613998   4.021   4.015   6.553  1.3675  1.0151  2.8106
   37MOL   H24713999   4.117   4.046   6.407 -1.1372  2.1556 -0.8385
   37MOL   H24814000   4.033   4.178   6.480 -0.9121 -0.0048  0.4581
   37MOL   C24914001   4.395   3.663   6.743  0.2198  0.4792 -0.0722
   37MOL   C25014002   4.469   3.699   6.871 -0.0861  0.5933 -0.5619
   37MOL   C25114003   4.598   3.761   6.821 -0.3473 -0.3222 -0.8117
   37MOL   O25214004   4.686   3.694   6.761 -0.5475  0.3588 -0.3060
   37MOL   N25314005   4.614   3.889   6.858  0.5185 -0.9188  0.5511
   37MOL   C25414006   4.722   3.980   6.811  0.6045 -0.1030 -0.0693
   37MOL   C25514007   4.683   4.032   6.675 -0.2813 -0.0819 -0.3782
   37MOL   C25614008   4.740   4.097   6.907 -0.4388  0.4240  0.1595
   37MOL   H25714009   4.461   3.595   6.689  1.4256  1.9012 -0.4230
   37MOL   H25814010   4.303   3.608   6.758  1.4212 -2.0617 -1.7161
   37MOL   H25914011   4.416   3.775   6.929 -1.9753 -0.3141 -1.0646
   37MOL   H26014012   4.536   3.917   6.915  0.2659  1.0055 -0.7059
   37MOL   H26114013   4.818   3.928   6.812  1.0711  0.7699  1.3561
   37MOL   H26214014   4.585   4.080   6.678  0.6388  1.9909 -2.0052
   37MOL   H26314015   4.760   4.099   6.637 -0.0681 -0.6150 -0.8902
   37MOL   H26414016   4.681   3.944   6.611  0.0465 -0.8733  0.6826
   37MOL   H26514017   4.762   4.068   7.009  1.2971 -2.9123 -1.0771
   37MOL   H26614018   4.814   4.163   6.861  0.0545  1.2123  2.0700
   37MOL   H26714019   4.644   4.148   6.905 -1.6967 -1.8647  0.4392
   37MOL   C26814020   4.505   3.569   6.956  0.0080 -0.7506 -0.5110
   37MOL   C26914021   4.498   3.573   7.108 -0.2892 -0.4179 -0.7779
   37MOL   C27014022   4.583   3.694   7.161  0.4159  0.3414 -0.7090
   37MOL   O27114023   4.525   3.805   7.183  0.9012  0.1957 -1.0911
   37MOL   N27214024   4.713   3.666   7.179 -0.1883 -0.5800  0.1634
   37MOL   C27314025   4.814   3.753   7.229 -0.2346 -0.0358 -0.0098
   37MOL   C27414026   4.861   3.710   7.367 -0.5537 -0.3705  0.1480
   37MOL   C27514027   4.928   3.778   7.133 -0.1037  0.1609  0.2972
   37MOL   H27614028   4.431   3.492   6.935  0.0406 -0.7944 -0.4669
   37MOL   H27714029   4.596   3.519   6.925  0.3522  0.5478 -1.6442
   37MOL   H27814030   4.554   3.487   7.145 -0.2219 -0.0797 -0.0801
   37MOL   H27914031   4.746   3.574   7.153 -0.3179 -0.0351 -2.0774
   37MOL   H28014032   4.779   3.856   7.236  1.5229  0.7051 -1.5681
   37MOL   H28114033   4.947   3.771   7.395 -2.6761  3.1757 -0.7050
   37MOL   H28214034   4.795   3.719   7.454  1.8206  0.8938  1.8617
   37MOL   H28314035   4.908   3.612   7.371  0.8432  0.2797 -0.0793
   37MOL   H28414036   4.991   3.691   7.117 -0.2265  0.5323 -2.3890
   37MOL   H28514037   4.882   3.788   7.035 -0.7840  0.0763  0.6029
   37MOL   H28614038   4.987   3.864   7.164  0.1577  0.2981 -0.5773
   37MOL   C28714039   4.349   3.569   7.159 -0.3382 -0.3061 -0.0551
   37MOL   C28814040   4.333   3.581   7.314  0.9893 -0.1490  0.0939
   37MOL   C28914041   4.403   3.458   7.374  0.1267 -0.6191  0.1198
   37MOL   O29014042   4.404   3.354   7.318  0.1900 -0.2427 -0.6895
   37MOL   N29114043   4.478   3.480   7.485 -0.7299  0.3200  1.2369
   37MOL   C29214044   4.566   3.395   7.556 -0.2161  0.4090 -0.8065
   37MOL   C29314045   4.634   3.492   7.650 -0.2903 -0.1542  0.6319
   37MOL   C29414046   4.486   3.292   7.640 -0.0054 -0.0600 -0.1195
   37MOL   H29514047   4.286   3.638   7.102 -0.1830 -0.1161  0.0025
   37MOL   H29614048   4.304   3.474   7.131  1.2493 -1.3230  0.7527
   37MOL   H29714049   4.374   3.673   7.357 -2.6743  0.8037  1.7072
   37MOL   H29814050   4.476   3.575   7.520  0.0128  1.1751 -0.9224
   37MOL   H29914051   4.629   3.352   7.478  1.5458  1.1717  0.1498
   37MOL   H30014052   4.700   3.561   7.598 -3.3971  0.4786 -2.6300
   37MOL   H30114053   4.560   3.548   7.707  0.5616  0.9117  0.7147
   37MOL   H30214054   4.701   3.435   7.714 -0.3340 -0.1189  0.7096
   37MOL   H30314055   4.559   3.220   7.677  0.0326 -0.2983 -0.6547
   37MOL   H30414056   4.416   3.316   7.720 -0.1430 -1.7595  0.2792
   37MOL   H30514057   4.422   3.241   7.569 -0.4747  1.1146 -0.5576
   37MOL   C30614058   4.180   3.592   7.341 -0.0470  0.1355 -0.1401
   37MOL   C30714059   4.147   3.617   7.489 -0.0928 -0.3402 -0.1152
   37MOL   C30814060   4.037   3.522   7.541 -0.2501  0.1043  0.3795
   37MOL   O30914061   3.939   3.493   7.473 -0.1885 -0.1704 -0.8282
   37MOL   N31014062   4.061   3.479   7.663  0.5966  0.1173  0.0267
   37MOL   C31114063   3.992   3.372   7.721  0.2442 -0.2549  0.3097
   37MOL   C31214064   4.084   3.300   7.816  0.2660 -0.8016 -0.5018
   37MOL   C31314065   3.867   3.412   7.800 -0.5912 -0.5720  0.1440
   37MOL   H31414066   4.137   3.673   7.283 -1.4783  0.2227  1.0050
   37MOL   H31514067   4.123   3.509   7.300 -0.2296  0.2424 -0.1029
   37MOL   H31614068   4.236   3.581   7.539 -0.0985 -1.1618 -0.6962
   37MOL   H31714069   4.146   3.513   7.707 -0.3696 -0.4640  2.4236
   37MOL   H31814070   3.961   3.304   7.642  3.1067 -0.9664 -0.2837
   37MOL   H31914071   4.106   3.361   0.067 -2.2370 -2.8320  1.6521
   37MOL   H32014072   4.177   3.269   7.769 -0.1605 -1.0501 -1.1961
   37MOL   H32114073   4.032   3.214   0.023  0.3407 -1.6648 -2.0757
   37MOL   H32214074   3.804   3.475   7.737  0.2189 -0.5114 -0.6135
   37MOL   H32314075   3.898   3.472   0.049 -0.7688  0.0851 -0.2461
   37MOL   H32414076   3.818   3.322   0.000 -0.9814  0.3676  1.9840
   37MOL   C32514077   4.113   3.771   7.502  0.0538  0.9161 -0.3460
   37MOL   C32614078   4.068   3.838   7.634  0.6285 -0.0486 -0.3406
   37MOL   C32714079   4.166   3.802   7.749 -0.0084  0.2551 -0.5207
   37MOL   O32814080   4.272   3.744   7.728  0.2488 -0.4542 -0.2539
   37MOL   N32914081   4.129   3.827   0.034 -0.0303 -0.5425  0.0947
   37MOL   C33014082   4.217   3.823   0.150 -0.0553 -0.6198 -0.4456
   37MOL   C33114083   4.158   3.745   0.268 -0.5316 -0.1748 -0.9746
   37MOL   C33214084   4.254   3.962   0.191 -0.2174  0.7470 -0.2275
   37MOL   H33314085   4.044   3.813   7.429 -1.0737 -0.3346 -0.0146
   37MOL   H33414086   4.209   3.814   7.471  0.3640  0.9311  0.6110
   37MOL   H33514087   3.967   3.805   7.661 -0.1263  0.2942 -2.5585
   37MOL   H33614088   4.043   3.876   0.051 -0.9269 -1.5644 -1.3764
   37MOL   H33714089   4.312   3.771   0.135  0.0081 -0.9228  0.9890
   37MOL   H33814090   4.136   3.643   0.236  1.5300 -0.7298 -0.6883
   37MOL   H33914091   4.231   3.745   0.349  0.9331  0.7158 -2.2511
   37MOL   H34014092   4.063   3.792   0.291 -1.1199 -0.6126 -2.4768
   37MOL   H34114093   4.167   4.026   0.207 -0.1146  1.9466 -4.0081
   37MOL   H34214094   4.319   4.014   0.120 -1.5987  1.0236 -1.3181
   37MOL   H34314095   4.321   3.949   0.276  1.0625 -1.3177 -1.5154
   37MOL   C34414096   4.069   3.988   7.615 -0.5173 -0.4389 -0.2541
   37MOL   C34514097   3.965   4.067   7.524  0.4890  0.1630 -0.9668
   37MOL   C34614098   3.826   4.070   7.598 -0.1216  0.2928 -0.5376
   37MOL   O34714099   3.790   4.176   7.651  0.1306 -0.5083  0.3103
   37MOL   N34814100   3.753   3.961   7.588  0.5394  0.4183  0.4167
   37MOL   C34914101   3.626   3.933   7.650 -0.3316  0.0250  0.4586
   37MOL   C35014102   3.510   3.998   7.566  0.3024  0.0635  0.3359
   37MOL   C35114103   3.593   3.774   7.663 -0.0102 -0.3910 -0.0993
   37MOL   H35214104   4.168   4.015   7.577 -0.1187 -0.4561  0.7622
   37MOL   H35314105   4.078   4.038   7.711  1.5277  0.2579 -0.7799
   37MOL   H35414106   3.957   4.012   7.430  2.0444 -2.6164  0.4532
   37MOL   H35514107   3.796   3.877   7.551  1.3655 -0.2210  2.7606
   37MOL   H35614108   3.635   3.977   7.750 -2.5073  1.3815  0.0834
   37MOL   H35714109   3.509   4.107   7.565 -0.3167  0.0598 -0.6376
   37MOL   H35814110   3.528   3.962   7.464  1.4267  1.7046 -0.0695
   37MOL   H35914111   3.418   3.954   7.603  0.0066  0.6197  0.2642
   37MOL   H36014112   3.668   3.717   7.718  0.4624  1.7205  1.5284
   37MOL   H36114113   3.491   3.774   7.701  0.1309  0.5247  0.2972
   37MOL   H36214114   3.601   3.735   7.561  1.0663  0.4380 -0.3397
   37MOL   C36314115   4.019   4.212   7.494 -0.7690  0.6658  0.1256
   37MOL   C36414116   3.936   4.302   7.403  0.3827  0.1039  0.9395
   37MOL   C36514117   4.033   4.408   7.354 -0.4116  0.0189  0.4034
   37MOL   O36614118   4.096   4.387   7.249  0.4563 -0.8971  0.2110
   37MOL   N36714119   4.058   4.502   7.439  0.1109 -0.1773 -0.3099
   37MOL   C36814120   4.147   4.617   7.417  0.2368 -0.9385 -0.0941
   37MOL   C36914121   4.059   4.744   7.420  0.1718 -0.0572 -0.5627
   37MOL   C37014122   4.248   4.626   7.541 -0.0430  0.4334  0.4713
   37MOL   H37114123   4.121   4.209   7.456 -1.6829 -1.4533 -2.2552
   37MOL   H37214124   4.037   4.265   7.588 -0.0599  0.9219 -0.1528
   37MOL   H37314125   3.849   4.342   7.455 -0.3867 -0.0917 -0.1793
   37MOL   H37414126   4.009   4.488   7.526  0.1714 -3.0457 -0.6717
   37MOL   H37514127   4.203   4.601   7.325  0.9815  0.4934  0.0928
   37MOL   H37614128   3.975   4.739   7.489  0.6299 -2.1895 -0.1141
   37MOL   H37714129   4.107   4.842   7.419 -1.1201  0.6124  0.7474
   37MOL   H37814130   3.999   4.744   7.329 -1.4518 -0.3698  0.4777
   37MOL   H37914131   4.209   4.618   7.642 -0.9802  1.2222  0.1902
   37MOL   H38014132   4.313   4.540   7.553 -0.0944  0.6439  2.3723
   37MOL   H38114133   4.305   4.720   7.543  1.0064 -0.2114  1.4258
   37MOL   H38214134   3.895   4.251   7.316 -1.4439  1.4602  0.9784
   38MOL     C114135   1.161   2.406   5.674  0.3207  0.3059 -0.1660
   38MOL     C214136   1.154   2.504   5.795  0.4122 -0.2424 -0.7304
   38MOL     C314137   1.239   2.629   5.778 -0.2853 -0.2374  0.2336
   38MOL     O414138   1.182   2.736   5.761  0.0336  0.1468  0.0773
   38MOL     N514139   1.375   2.619   5.784 -0.2996  0.1106  0.0505
   38MOL     C614140   1.472   2.718   5.746 -0.1864  0.7650 -0.7686
   38MOL     C714141   1.544   2.796   5.860  0.2741  0.5281 -0.5910
   38MOL     C814142   1.557   2.663   5.632  0.3920  0.6460  0.8542
   38MOL     H914143   1.264   2.416   5.639 -0.0878  1.8595 -0.9847
   38MOL    H1014144   1.097   2.430   5.589  1.3871 -0.0265 -1.0714
   38MOL    H1114145   1.204   2.448   5.874  1.2888 -1.2313 -1.9816
   38MOL    H1214146   1.415   2.532   5.816 -0.7582  0.4517  1.5987
   38MOL    H1314147   1.415   2.797   5.697 -0.6823  0.3635 -0.8468
   38MOL    H1414148   1.596   2.718   5.915 -1.6762  0.8706  1.8106
   38MOL    H1514149   1.472   2.836   5.931 -1.8045 -0.5269 -2.0460
   38MOL    H1614150   1.613   2.876   5.832  0.5074 -0.4531 -2.9514
   38MOL    H1714151   1.515   2.576   5.582  0.8928 -0.2729  1.9978
   38MOL    H1814152   1.564   2.730   5.546  1.3294  0.7981  1.0403
   38MOL    H1914153   1.654   2.633   5.673  0.5406  0.4158  0.3347
   38MOL    H2014154   1.144   2.302   5.700  0.6988  0.5706  1.1361
   38MOL    C2114155   1.004   2.534   5.821 -0.0052  0.3231  0.0021
   38MOL    C2214156   0.963   2.612   5.954 -0.3951 -0.3753  0.4415
   38MOL    C2314157   1.006   2.534   6.076 -0.3157  0.6984 -0.0998
   38MOL    O2414158   1.016   2.415   6.067  0.1193  0.2634 -0.3505
   38MOL    N2514159   1.020   2.608   6.183  0.4603 -0.0225  0.0908
   38MOL    C2614160   1.054   2.561   6.313  0.0451  0.4791 -0.1539
   38MOL    C2714161   0.932   2.500   6.382  0.3987  0.2568  0.0328
   38MOL    C2814162   1.110   2.675   6.398  0.0123 -0.4377 -0.0693
   38MOL    H2914163   0.953   2.437   5.816 -0.4459  0.6316 -1.7744
   38MOL    H3014164   0.960   2.581   5.733 -0.6039  0.8995  0.6025
   38MOL    H3114165   1.018   2.706   5.948 -0.7608 -0.2387 -0.8921
   38MOL    H3214166   0.996   2.705   6.172 -0.7384 -0.3088  0.1332
   38MOL    H3314167   1.138   2.496   6.289  0.1435  1.0605 -1.4378
   38MOL    H3414168   0.961   2.436   6.466  1.4073  0.4288 -0.1810
   38MOL    H3514169   0.883   2.429   6.317  1.6015  0.3501 -0.9946
   38MOL    H3614170   0.863   2.570   6.430  0.0230  0.8171 -1.3203
   38MOL    H3714171   1.176   2.732   6.332  1.4331 -2.9518 -0.8927
   38MOL    H3814172   1.030   2.745   6.421 -0.0280 -0.1137 -1.1516
   38MOL    H3914173   1.161   2.637   6.486 -1.8224  1.2405  1.7717
   38MOL    C4014174   0.815   2.650   5.953 -0.1766 -0.4542 -0.4218
   38MOL    C4114175   0.762   2.771   6.042  0.6338  0.7629 -0.0755
   38MOL    C4214176   0.856   2.886   6.039  0.1844 -0.2519 -0.1780
   38MOL    O4314177   0.959   2.885   6.105 -0.2601 -0.0405 -0.2044
   38MOL    N4414178   0.840   2.987   5.952  0.2324  0.0917  0.4466
   38MOL    C4514179   0.930   3.105   5.931  0.5479  0.3605  0.3234
   38MOL    C4614180   1.044   3.070   5.831  0.0773  0.6305 -0.6129
   38MOL    C4714181   0.843   3.214   5.863  1.0215 -0.7050  0.4179
   38MOL    H4814182   0.744   2.568   5.965 -0.5431  0.0760  1.1927
   38MOL    H4914183   0.784   2.690   5.857  2.9106  2.4708 -0.2912
   38MOL    H5014184   0.666   2.806   6.002  0.3187 -0.2417 -0.2227
   38MOL    H5114185   0.758   2.976   5.894  1.1676 -1.4101 -0.6230
   38MOL    H5214186   0.961   3.147   6.027 -1.6360 -1.4272  1.8883
   38MOL    H5314187   1.105   3.160   5.819  0.4772  0.2320 -1.6521
   38MOL    H5414188   0.993   3.047   5.737 -0.7137  0.7875 -0.2230
   38MOL    H5514189   1.107   2.985   5.857 -1.6585  0.0439  1.8211
   38MOL    H5614190   0.779   3.169   5.787 -1.4257  3.2326 -0.0234
   38MOL    H5714191   0.899   3.297   5.819 -0.4865 -0.2814 -0.7239
   38MOL    H5814192   0.777   3.265   5.933 -0.3685 -0.3659 -1.1248
   38MOL    C5914193   0.728   2.727   6.187 -0.1963 -0.5175  0.0679
   38MOL    C6014194   0.586   2.766   6.239 -0.0167 -0.0266  0.4193
   38MOL    C6114195   0.591   2.914   6.302  0.1315  0.0152 -0.2977
   38MOL    O6214196   0.628   2.934   6.423 -0.1869  0.8254 -0.3439
   38MOL    N6314197   0.556   3.010   6.218 -0.4041 -0.4384  0.2323
   38MOL    C6414198   0.557   3.153   6.242  0.3228 -0.2566 -0.2924
   38MOL    C6514199   0.688   3.202   6.306 -0.3985 -0.7888  0.8116
   38MOL    C6614200   0.541   3.219   6.104  0.1737  0.9125  0.1186
   38MOL    H6714201   0.736   2.620   6.201 -0.7033 -0.3157  1.9881
   38MOL    H6814202   0.798   2.763   6.263 -1.1461  1.8174 -0.1087
   38MOL    H6914203   0.508   2.751   6.165 -1.1130 -1.7294  1.8500
   38MOL    H7014204   0.508   2.977   6.135 -0.7426  1.1098 -0.1903
   38MOL    H7114205   0.477   3.176   6.313  0.1978  1.0163 -0.8342
   38MOL    H7214206   0.768   3.142   6.264 -0.0141  1.0466 -1.1775
   38MOL    H7314207   0.709   3.309   6.292 -0.8589 -0.8755 -0.5687
   38MOL    H7414208   0.686   3.167   6.409 -0.8181 -1.0089  0.7300
   38MOL    H7514209   0.554   3.327   6.099  0.2409  0.9225  0.4717
   38MOL    H7614210   0.622   3.181   6.042 -0.4492 -0.4945  0.1663
   38MOL    H7714211   0.442   3.210   6.059  1.0796  0.4068 -1.7967
   38MOL    C7814212   0.549   2.663   6.344 -0.3878 -0.3641  0.3263
   38MOL    C7914213   0.427   2.696   6.447 -0.1020 -0.0749  0.0825
   38MOL    C8014214   0.298   2.739   6.372 -0.1057 -0.4910 -0.0643
   38MOL    O8114215   0.255   2.665   6.285  0.2636 -0.7246 -0.1543
   38MOL    N8214216   0.245   2.860   6.392 -0.0482  0.1509  0.6079
   38MOL    C8314217   0.123   2.912   6.330 -0.0343  0.5490 -0.2116
   38MOL    C8414218   0.049   2.994   6.444  0.3737 -0.3065 -0.2593
   38MOL    C8514219   0.135   3.009   6.208  0.8982 -0.6640  0.2559
   38MOL    H8614220   0.639   2.665   6.405  0.3975 -1.1633 -0.7894
   38MOL    H8714221   0.529   2.568   6.294 -0.1533  0.3716 -1.1875
   38MOL    H8814222   0.453   2.773   6.520 -0.7026 -0.9040  1.2016
   38MOL    H8914223   0.286   2.909   6.470 -1.1002  2.3723 -0.2087
   38MOL    H9014224   0.062   2.828   6.296  1.0722  0.3776 -1.8203
   38MOL    H9114225   7.799   3.055   6.418 -0.0356 -1.4505 -1.6600
   38MOL    H9214226   0.020   2.919   6.516 -0.3638 -1.8194 -2.0847
   38MOL    H9314227   0.103   3.069   6.502  0.4074 -0.8241  0.3782
   38MOL    H9414228   0.040   3.012   6.155 -0.0394 -0.1221  1.9052
   38MOL    H9514229   0.213   2.984   6.137  1.7733  0.5009  0.7839
   38MOL    H9614230   0.168   3.109   6.236  0.8363 -0.1675 -1.4378
   38MOL    C9714231   0.403   2.565   6.528  0.0862  0.0574  0.1463
   38MOL    C9814232   0.312   2.571   6.653 -0.7346 -0.2552  0.6623
   38MOL    C9914233   0.360   2.668   6.752 -0.5361  0.7683 -0.5910
   38MOL   O10014234   0.287   2.760   6.785 -0.1653 -0.1672  0.5947
   38MOL   N10114235   0.468   2.653   6.819 -0.2778  0.0317  0.1965
   38MOL   C10214236   0.515   2.738   6.928 -0.4043  0.2069  0.2200
   38MOL   C10314237   0.612   2.669   7.023  0.5295  0.3170  0.5288
   38MOL   C10414238   0.579   2.870   6.874  0.0226  0.3143  0.2821
   38MOL   H10514239   0.498   2.517   6.555 -1.5687 -2.1704  2.2051
   38MOL   H10614240   0.359   2.498   6.454  3.0324 -0.3594 -1.3220
   38MOL   H10714241   0.221   2.608   6.606  1.2967  0.5089 -2.8994
   38MOL   H10814242   0.527   2.573   6.798 -1.7031 -0.9086 -0.2734
   38MOL   H10914243   0.431   2.770   6.989 -0.1337  0.6401  0.3695
   38MOL   H11014244   0.641   2.743   7.098 -1.2142 -0.2975  1.8327
   38MOL   H11114245   0.565   2.587   7.076  2.0923 -2.2238 -1.8798
   38MOL   H11214246   0.702   2.627   6.976  0.5762 -0.8688  1.6564
   38MOL   H11314247   0.503   2.938   6.836 -0.7379 -1.1058 -0.8373
   38MOL   H11414248   0.637   2.857   6.782 -1.1116  1.9569 -0.6956
   38MOL   H11514249   0.640   2.912   6.953  1.7133 -1.0918 -0.2401
   38MOL   C11614250   0.273   2.437   6.721 -0.0809 -1.1154 -0.0285
   38MOL   C11714251   0.140   2.456   6.795  0.0196 -0.4088 -0.7036
   38MOL   C11814252   0.152   2.429   6.950  0.7150 -1.0743 -0.7435
   38MOL   O11914253   0.223   2.339   6.988 -0.4263  0.0602 -0.0153
   38MOL   N12014254   0.081   2.511   7.036 -0.2445 -0.5916  0.7176
   38MOL   C12114255   0.087   2.496   7.185  0.0371 -0.2946 -0.5207
   38MOL   C12214256   0.061   2.638   7.244 -0.0949 -0.1374 -0.3362
   38MOL   C12314257   7.810   2.401   7.231 -0.1285  0.2191  0.1997
   38MOL   H12414258   0.355   2.415   6.790  0.6855  1.7256  0.0522
   38MOL   H12514259   0.266   2.358   6.647 -1.3276  0.4624 -1.6209
   38MOL   H12614260   0.102   2.558   6.790  0.6699 -0.1955 -1.2929
   38MOL   H12714261   0.014   2.579   7.003 -0.2993  0.5432  3.0889
   38MOL   H12814262   0.181   2.452   7.216 -0.7601 -0.9337  1.0416
   38MOL   H12914263   0.114   2.698   7.170  0.2209 -0.7101 -0.5825
   38MOL   H13014264   0.113   2.634   7.339  1.1650 -2.2715 -1.0856
   38MOL   H13114265   7.793   2.670   7.250 -0.6066 -1.6272 -0.9190
   38MOL   H13214266   0.011   2.299   7.220  1.0568  0.6337  0.2539
   38MOL   H13314267   7.790   2.411   7.338  0.2212 -0.3148  0.3236
   38MOL   H13414268   7.721   2.423   7.173  0.5081  4.1002  0.6039
   38MOL   C13514269   0.041   2.359   6.729 -0.4189  0.0227  0.5449
   38MOL   C13614270   7.725   2.348   6.777  0.4953  0.0682 -0.1656
   38MOL   C13714271   7.654   2.484   6.823  0.0484  0.5375 -0.2207
   38MOL   O13814272   7.672   2.592   6.767  0.3060 -0.0872 -0.0552
   38MOL   N13914273   7.565   2.471   6.925 -0.1516 -0.8230  0.1375
   38MOL   C14014274   7.482   2.585   6.969 -0.0805  0.2256 -0.1579
   38MOL   C14114275   7.493   2.613   7.116  0.5834  0.2213  0.2309
   38MOL   C14214276   7.329   2.577   6.932  0.5043  0.5925 -0.2389
   38MOL   H14314277   0.075   2.256   6.744  0.1983  0.3756  1.6463
   38MOL   H14414278   0.053   2.376   6.622  1.2951  0.8845  0.8535
   38MOL   H14514279   7.732   2.285   6.866  1.6446  0.3648 -0.0400
   38MOL   H14614280   7.536   2.379   6.956  0.3321 -0.2051  2.4642
   38MOL   H14714281   7.506   2.678   6.918 -1.2699  0.5762 -0.0890
   38MOL   H14814282   7.408   2.659   7.166 -0.2805 -2.9734  1.8100
   38MOL   H14914283   7.521   2.525   7.174 -0.9839  1.3026  2.7015
   38MOL   H15014284   7.570   2.688   7.133 -0.5148  1.2161  0.9024
   38MOL   H15114285   7.277   2.523   7.011 -0.2526  0.2163 -0.9842
   38MOL   H15214286   7.306   2.532   6.835  1.3657  0.9112 -0.5974
   38MOL   H15314287   7.277   2.673   6.937  0.5124  0.5396  1.1207
   38MOL   C15414288   7.646   2.276   6.666  0.6995 -0.3623  0.4479
   38MOL   C15514289   7.589   2.144   6.705 -0.2401  0.9027  0.5824
   38MOL   C15614290   7.494   2.148   6.840 -0.1154  0.1698  0.2870
   38MOL   O15714291   7.538   2.176   6.951  0.3575  0.2441  0.2400
   38MOL   N15814292   7.376   2.094   6.814  0.6856  0.2854  1.0714
   38MOL   C15914293   7.272   2.087   6.907 -0.3666 -0.9225 -0.1829
   38MOL   C16014294   7.176   1.974   6.877 -0.2432 -0.3455 -0.3955
   38MOL   C16114295   7.201   2.229   6.931 -0.6216  0.0725 -0.0767
   38MOL   H16214296   7.704   2.267   6.574 -1.2059 -1.3560 -0.6939
   38MOL   H16314297   7.567   2.341   6.628  1.9674  0.3294 -1.0348
   38MOL   H16414298   7.525   2.114   6.622  1.4031  0.4065 -0.5408
   38MOL   H16514299   7.370   2.046   6.726 -0.7022  0.8266  0.8642
   38MOL   H16614300   7.322   2.053   6.997  1.9015  0.6669 -0.7768
   38MOL   H16714301   7.132   1.974   6.777  2.2367 -2.3265 -1.5411
   38MOL   H16814302   7.228   1.879   6.890  0.9618  0.4733  1.0132
   38MOL   H16914303   7.094   1.967   6.948 -1.3643  0.1363 -1.6157
   38MOL   H17014304   7.260   2.301   6.988 -0.2142  0.5161 -1.0509
   38MOL   H17114305   7.122   2.200   7.000 -0.9315  0.1297 -0.4024
   38MOL   H17214306   7.161   2.266   6.836  0.0671  0.2573 -0.2987
   38MOL   C17314307   7.697   2.037   6.721  0.5162  0.7311 -0.3668
   38MOL   C17414308   7.656   1.888   6.697  0.0422 -0.0245  0.3820
   38MOL   C17514309   7.605   1.863   6.552 -0.4898  0.1466 -0.3284
   38MOL   O17614310   7.660   1.926   6.456 -0.4033 -0.0178 -0.5145
   38MOL   N17714311   7.500   1.785   6.537 -0.1403  0.2738 -0.4815
   38MOL   C17814312   7.430   1.743   6.413  0.2933  0.3149  0.7697
   38MOL   C17914313   7.368   1.871   6.356  0.1574  0.1544 -0.5714
   38MOL   C18014314   7.320   1.639   6.448 -0.4241  0.7615  0.0046
   38MOL   H18114315   7.737   2.052   6.822 -0.0409 -1.3883  0.2097
   38MOL   H18214316   7.778   2.058   6.651 -0.2386  2.2776 -0.7901
   38MOL   H18314317   7.576   1.876   6.771  0.3358 -0.3587  0.6443
   38MOL   H18414318   7.460   1.739   6.617  2.1534  1.5059  1.4527
   38MOL   H18514319   7.501   1.686   6.353 -0.3348  0.2507  0.0785
   38MOL   H18614320   7.314   1.926   6.433 -2.2519 -0.2270 -1.9447
   38MOL   H18714321   7.307   1.854   6.267  0.1114 -1.6353 -0.2107
   38MOL   H18814322   7.447   1.938   6.322  0.2853 -1.1611 -2.9810
   38MOL   H18914323   7.251   1.691   6.515  2.3891  3.0730  1.2096
   38MOL   H19014324   7.368   1.560   6.507  2.4234  1.7878 -0.8442
   38MOL   H19114325   7.265   1.604   6.361 -1.9776  0.1988  1.1842
   38MOL   C19214326   7.777   1.797   6.722 -0.0546  0.9743 -0.1920
   38MOL   C19314327   7.758   1.640   6.738 -0.4213  0.5115 -0.3334
   38MOL   C19414328   7.630   1.605   6.818 -0.1128  0.3884  0.1883
   38MOL   O19514329   7.527   1.595   6.756 -0.1606  0.3785 -0.4110
   38MOL   N19614330   7.643   1.582   6.952  0.0207 -0.2924  0.0540
   38MOL   C19714331   7.523   1.563   7.040 -0.3743 -0.2007 -0.1851
   38MOL   C19814332   7.557   1.475   7.152 -0.9644  0.3580 -0.1491
   38MOL   C19914333   7.470   1.698   7.095  0.0702  0.8062  0.3933
   38MOL   H20014334   7.810   1.817   6.823  0.9726  0.5934 -0.4472
   38MOL   H20114335   0.021   1.813   6.650 -0.8263  1.6063 -0.9309
   38MOL   H20214336   7.736   1.603   6.638  0.4940 -0.5970 -0.1218
   38MOL   H20314337   7.728   1.614   6.996  0.8235 -1.1997 -0.8133
   38MOL   H20414338   7.442   1.511   6.989  0.8303 -1.5296 -0.7698
   38MOL   H20514339   7.580   1.375   7.114  1.4396  0.5009  0.8156
   38MOL   H20614340   7.484   1.474   7.233 -0.4173 -1.2228  0.3490
   38MOL   H20714341   7.650   1.517   7.191 -0.3775 -0.4332 -0.6611
   38MOL   H20814342   7.436   1.742   7.002  1.0086  0.0440 -0.3251
   38MOL   H20914343   7.543   1.767   7.138  1.0325 -0.6689  1.1943
   38MOL   H21014344   7.386   1.680   7.162  0.3371 -0.7534  0.3379
   38MOL   C21114345   0.050   1.569   6.791  0.2982  0.4124  0.6316
   38MOL   C21214346   0.029   1.416   6.813 -0.0385  0.0850  0.3423
   38MOL   C21314347   0.036   1.341   6.678 -0.2013 -0.2518  0.6487
   38MOL   O21414348   0.138   1.338   6.614  0.3092 -0.0897  0.2495
   38MOL   N21514349   7.763   1.267   6.653 -0.2216  0.7089 -0.1214
   38MOL   C21614350   7.726   1.225   6.518 -0.2232 -0.0416 -0.6976
   38MOL   C21714351   7.629   1.325   6.448 -0.9147 -1.0976  0.1361
   38MOL   C21814352   7.666   1.090   6.515 -0.7254 -0.5485 -0.0448
   38MOL   H21914353   0.074   1.612   6.888  3.0921 -0.3034  0.3039
   38MOL   H22014354   0.138   1.591   6.730 -0.0591  1.7190  0.5752
   38MOL   H22114355   7.767   1.388   6.851 -0.8944  1.5961 -0.6914
   38MOL   H22214356   7.710   1.233   6.732 -2.5322  1.5291 -1.2894
   38MOL   H22314357   7.809   1.226   6.448  1.8311 -0.1508  1.6772
   38MOL   H22414358   7.675   1.423   6.456 -1.3205 -0.9403  0.5057
   38MOL   H22514359   7.617   1.318   6.340 -0.8968 -0.3659  0.0855
   38MOL   H22614360   7.533   1.328   6.499 -1.5302 -4.0317 -0.7470
   38MOL   H22714361   7.569   1.098   6.565 -0.2420 -1.3702  1.0571
   38MOL   H22814362   7.729   1.016   6.565 -0.9443 -0.5317  0.2588
   38MOL   H22914363   7.655   1.048   6.415 -0.0568 -0.0292 -0.3401
   38MOL   C23014364   0.140   1.364   6.909  0.5003  0.5575 -0.1991
   38MOL   C23114365   0.133   1.215   6.948  0.1088  0.0626 -0.3513
   38MOL   C23214366   0.258   1.184   7.038 -0.1471 -0.3055 -0.4965
   38MOL   O23314367   0.242   1.166   7.158  0.1766 -0.1459  0.3984
   38MOL   N23414368   0.382   1.201   6.986  0.5242 -0.0367 -0.6617
   38MOL   C23514369   0.506   1.187   7.057 -0.0181 -0.8864 -0.2691
   38MOL   C23614370   0.542   1.044   7.054 -0.4727  0.5695  0.5228
   38MOL   C23714371   0.612   1.280   6.988  0.3880  0.7329 -0.1868
   38MOL   H23814372   0.132   1.430   6.996 -1.8039  0.7283 -0.4951
   38MOL   H23914373   0.235   1.387   6.862  0.7423 -2.4009 -1.2589
   38MOL   H24014374   0.153   1.162   6.855  2.7923  0.0275  0.2059
   38MOL   H24114375   0.393   1.234   6.891  2.0219  2.3048  0.2642
   38MOL   H24214376   0.488   1.224   7.158 -0.8804 -0.9576 -0.3929
   38MOL   H24314377   0.557   1.011   6.951 -2.8227  1.3282 -0.0714
   38MOL   H24414378   0.637   1.029   7.107  0.4351  1.9520 -0.6761
   38MOL   H24514379   0.466   0.987   7.107  0.1006  0.1444  0.8999
   38MOL   H24614380   0.718   1.255   6.986  0.1625 -0.1502 -1.1016
   38MOL   H24714381   0.615   1.369   7.051  1.5851 -0.0238  0.8691
   38MOL   H24814382   0.596   1.293   6.881 -1.8308  0.8052  0.1345
   38MOL   C24914383   7.830   1.171   7.009 -0.4024 -0.8222 -0.0900
   38MOL   C25014384   7.800   1.022   7.052 -0.1342  0.3453  0.8594
   38MOL   C25114385   0.002   0.926   6.938 -0.1665 -0.1033  0.2429
   38MOL   O25214386   7.812   0.951   6.821  0.4773 -0.0850 -0.0624
   38MOL   N25314387   0.046   0.807   6.978 -0.5052 -0.1674 -0.2448
   38MOL   C25414388   0.097   0.693   6.907 -0.2048 -0.3654 -0.2379
   38MOL   C25514389   0.248   0.699   6.893 -0.0007 -0.7437 -0.8918
   38MOL   C25614390   0.044   0.558   6.969 -0.3144 -0.5933 -0.0146
   38MOL   H25714391   7.760   1.189   6.928 -0.3506  0.2296  0.0928
   38MOL   H25814392   7.811   1.236   7.094  1.5703 -0.9989  0.5103
   38MOL   H25914393   0.019   1.003   7.144 -1.5392 -3.0370  1.0954
   38MOL   H26014394   0.054   0.796   7.078  0.5535 -0.4922 -0.3562
   38MOL   H26114395   0.055   0.698   6.806  2.4610 -0.2121 -1.4041
   38MOL   H26214396   0.288   0.618   6.832  0.4399 -0.1733 -1.3699
   38MOL   H26314397   0.278   0.793   6.845  0.3857  0.9566  2.5286
   38MOL   H26414398   0.303   0.706   6.987  0.0695 -1.1459 -0.9037
   38MOL   H26514399   7.772   0.551   6.965 -0.3329  0.1121 -0.7869
   38MOL   H26614400   0.078   0.467   6.919 -0.9658 -1.1371  0.5146
   38MOL   H26714401   0.082   0.543   7.070  1.7265 -1.3355 -0.8584
   38MOL   C26814402   7.644   1.014   7.085  0.1802  0.6947 -0.2000
   38MOL   C26914403   7.611   0.906   7.197 -0.2836 -0.0147  0.2891
   38MOL   C27014404   7.505   0.969   7.293  0.2121 -0.0429  0.2597
   38MOL   O27114405   7.393   1.001   7.242  0.0506  0.2473 -0.4288
   38MOL   N27214406   7.532   0.970   7.421 -0.7552 -0.1792  0.1022
   38MOL   C27314407   7.448   1.027   7.524  0.2018  0.3652  0.3684
   38MOL   C27414408   7.452   0.950   7.661 -0.2073 -0.8802  0.4006
   38MOL   C27514409   7.472   1.178   7.543  0.0556 -0.6761  0.8506
   38MOL   H27614410   7.617   1.111   7.126 -2.4808  0.8024 -2.1034
   38MOL   H27714411   7.577   1.009   6.999 -2.6167  0.4354  1.9320
   38MOL   H27814412   7.698   0.881   7.259 -0.7751 -1.2963  0.4856
   38MOL   H27914413   7.620   0.935   7.457 -0.4539 -1.1525 -1.5637
   38MOL   H28014414   7.347   0.999   7.493  0.0691 -0.7483  1.7742
   38MOL   H28114415   7.371   0.978   7.729 -0.4521 -1.5506  0.3893
   38MOL   H28214416   7.449   0.841   7.663  0.3773 -0.9281 -1.0122
   38MOL   H28314417   7.543   0.975   7.715 -0.4746  0.4543  0.2635
   38MOL   H28414418   7.474   1.229   7.447  1.0959 -0.4662  0.9781
   38MOL   H28514419   7.401   1.232   7.605  1.2800  3.1812 -0.9537
   38MOL   H28614420   7.571   1.186   7.588  1.3227  3.1164 -2.2808
   38MOL   C28714421   7.550   0.776   7.136  0.5250  1.0195  0.2107
   38MOL   C28814422   7.514   0.670   7.239  0.2411 -0.0675 -0.3850
   38MOL   C28914423   7.634   0.623   7.324  0.3420 -0.3360 -0.0055
   38MOL   O29014424   7.738   0.600   7.264 -0.0172 -0.1387  0.8435
   38MOL   N29114425   7.612   0.613   7.458  0.1353 -0.2460 -0.4436
   38MOL   C29214426   7.718   0.580   7.559 -1.0652  0.4205 -0.2925
   38MOL   C29314427   7.678   0.644   7.696  0.0922  0.1064 -0.3214
   38MOL   C29414428   7.742   0.429   7.570  0.2985  0.4632  0.0537
   38MOL   H29514429   7.466   0.799   7.070  1.1232 -3.8043 -2.4739
   38MOL   H29614430   7.613   0.734   7.057  0.6724 -0.2334  0.9859
   38MOL   H29714431   7.435   0.715   7.299  0.1852  0.5713 -0.9333
   38MOL   H29814432   7.519   0.626   7.494 -0.8793 -1.0500 -2.6381
   38MOL   H29914433   7.807   0.637   7.531 -0.6082 -1.4429 -2.8237
   38MOL   H30014434   7.766   0.665   7.757 -0.0075  1.7222 -0.6930
   38MOL   H30114435   7.638   0.744   7.675  0.6632  0.9779  2.5413
   38MOL   H30214436   7.614   0.573   7.747  0.6750 -0.5922 -0.5627
   38MOL   H30314437   7.656   0.363   7.576  1.3598 -0.7859  2.0964
   38MOL   H30414438   7.806   0.386   7.493 -0.2873 -2.7710  1.2903
   38MOL   H30514439   7.787   0.414   7.669 -0.0717 -0.8703  0.0322
   38MOL   C30614440   7.442   0.554   7.166  0.3226 -0.2767 -0.3078
   38MOL   C30714441   7.386   0.444   7.262  0.1238 -0.3041  0.3907
   38MOL   C30814442   7.429   0.306   7.216  0.4529 -0.3487 -0.3820
   38MOL   O30914443   7.356   0.213   7.190  0.7570 -0.2540  0.4481
   38MOL   N31014444   7.561   0.292   7.218  0.2984 -0.0605 -0.0107
   38MOL   C31114445   7.633   0.173   7.184 -0.1757  0.2933 -0.5862
   38MOL   C31214446   7.696   0.186   7.048 -0.1617  0.1204 -0.1208
   38MOL   C31314447   7.735   0.149   7.295 -0.5051 -0.2518 -0.3999
   38MOL   H31414448   7.356   0.591   7.110 -0.6713  0.2218  1.4924
   38MOL   H31514449   7.503   0.503   7.092  0.7215 -1.3737  0.7680
   38MOL   H31614450   7.440   0.454   7.356  1.0449  3.1373 -0.4375
   38MOL   H31714451   7.617   0.374   7.239 -0.1178 -0.0605  1.1246
   38MOL   H31814452   7.567   0.087   7.197  1.6576 -1.0167  0.3212
   38MOL   H31914453   7.614   0.189   6.977 -0.9804  0.0413  0.8029
   38MOL   H32014454   7.753   0.099   7.014  1.0368  0.6156  0.5740
   38MOL   H32114455   7.759   0.274   7.037  1.1628 -0.7602  0.2694
   38MOL   H32214456   7.795   0.240   7.293 -0.1359 -0.5231 -3.4319
   38MOL   H32314457   7.800   0.063   7.281 -0.5287 -0.5002  0.9146
   38MOL   H32414458   7.692   0.144   7.395  1.0393 -0.8548  0.2624
   38MOL   C32514459   7.230   0.463   7.289 -0.8694  0.6750 -0.0522
   38MOL   C32614460   7.187   0.385   7.412 -0.3940  0.1622 -0.3666
   38MOL   C32714461   7.256   0.431   7.545  0.0782 -0.1828 -0.4517
   38MOL   O32814462   7.288   0.549   7.567  0.7992 -0.0353  0.2233
   38MOL   N32914463   7.276   0.346   7.645  0.0492 -0.1959 -0.4533
   38MOL   C33014464   7.321   0.367   7.782  0.1265 -0.2508  0.1971
   38MOL   C33114465   7.427   0.260   7.829  0.1138 -0.0062 -0.4473
   38MOL   C33214466   7.203   0.365   0.042 -0.0673 -0.2479 -0.1776
   38MOL   H33314467   7.183   0.433   7.196 -0.3623  3.6338 -1.3061
   38MOL   H33414468   7.209   0.568   7.307  1.6715  0.8982  1.9958
   38MOL   H33514469   7.224   0.283   7.398 -2.2439 -0.8844  2.0977
   38MOL   H33614470   7.249   0.250   7.627  1.7351 -0.9210  0.7136
   38MOL   H33714471   7.368   0.466   7.789 -0.4587  0.3701 -3.4495
   38MOL   H33814472   7.451   0.253   0.099  0.2883  0.6096 -0.4482
   38MOL   H33914473   7.390   0.160   7.804 -1.4316  0.2691  0.6087
   38MOL   H34014474   7.523   0.278   7.782 -0.7943  1.8396 -1.6163
   38MOL   H34114475   7.136   0.448   0.021 -0.2928 -0.2637  0.4804
   38MOL   H34214476   7.245   0.375   0.142  0.2885  0.3597 -0.3882
   38MOL   H34314477   7.139   0.279   0.020  0.4807 -0.8692  0.6463
   38MOL   C34414478   7.034   0.350   7.426 -0.1080 -0.1112 -0.1452
   38MOL   C34514479   6.937   0.443   7.498  0.9164 -0.2767 -0.1606
   38MOL   C34614480   6.928   0.587   7.437 -0.1340  0.3648  0.3497
   38MOL   O34714481   6.921   0.603   7.320  0.6132  0.5794 -0.4411
   38MOL   N34814482   6.936   0.688   7.528  0.1101 -0.1862  0.7128
   38MOL   C34914483   6.973   0.824   7.484  0.5073  0.2631  0.4336
   38MOL   C35014484   6.853   0.919   7.471  0.6341  0.1637 -0.0534
   38MOL   C35114485   7.080   0.885   7.579 -0.4962 -0.0042 -0.2977
   38MOL   H35214486   7.029   0.257   7.483 -0.2535  0.6709  1.1554
   38MOL   H35314487   6.997   0.324   7.327 -0.7227  1.3664 -0.3151
   38MOL   H35414488   6.974   0.461   7.599 -0.5458 -0.5498  0.4250
   38MOL   H35514489   6.937   0.665   7.626  0.2132 -2.3043  0.2290
   38MOL   H35614490   7.028   0.811   7.391  1.3117 -0.0221  0.9457
   38MOL   H35714491   6.762   0.873   7.430  1.4470 -1.8808  0.3564
   38MOL   H35814492   6.819   0.965   7.563 -0.6431 -0.3069 -0.2788
   38MOL   H35914493   6.881   0.998   7.401  1.8397 -0.9122 -0.8070
   38MOL   H36014494   7.127   0.972   7.534  0.7676 -0.5557 -0.0547
   38MOL   H36114495   7.044   0.923   7.674 -2.1426 -3.2666  0.4488
   38MOL   H36214496   7.162   0.816   7.599  1.3220  0.9826 -3.7960
   38MOL   C36314497   6.806   0.363   7.531  0.1841  0.1565 -0.6752
   38MOL   C36414498   6.710   0.449   7.612 -0.1029  0.8216  0.9993
   38MOL   C36514499   6.565   0.454   7.564 -0.1624  0.7899  0.5367
   38MOL   O36614500   6.533   0.473   7.449 -0.1694 -0.1950  0.5083
   38MOL   N36714501   6.471   0.442   7.656 -0.0181 -0.2777 -0.0434
   38MOL   C36814502   6.328   0.443   7.626  0.2004 -0.0011 -0.7638
   38MOL   C36914503   6.257   0.329   7.694  0.2693  0.3038  0.0258
   38MOL   C37014504   6.266   0.583   7.654 -0.0470 -0.0445  0.0161
   38MOL   H37114505   6.824   0.267   7.580 -1.1839  1.0735  1.6910
   38MOL   H37214506   6.753   0.343   7.438 -2.6320 -0.4418  1.0174
   38MOL   H37314507   6.744   0.553   7.607  2.0866  0.0858 -0.0558
   38MOL   H37414508   6.505   0.428   7.750  0.4692 -2.5496 -0.5134
   38MOL   H37514509   6.311   0.430   7.519  1.6042 -0.6470 -0.9307
   38MOL   H37614510   6.277   0.231   7.651 -0.1883  0.9944 -1.8076
   38MOL   H37714511   6.276   0.320   7.801 -1.1259 -1.9938  0.1223
   38MOL   H37814512   6.149   0.338   7.683  0.1029 -0.3405  1.1064
   38MOL   H37914513   6.330   0.663   7.617  2.4316 -1.2252  1.6230
   38MOL   H38014514   6.167   0.599   7.611  0.9684  0.0491 -2.3525
   38MOL   H38114515   6.245   0.588   7.761 -2.7411 -1.6884 -0.3886
   38MOL   H38214516   6.714   0.394   7.706  1.8103  1.0471  1.0750
   39MOL     C114517   6.659   0.963   5.402 -0.2998  0.4536  0.0853
   39MOL     C214518   6.681   1.018   5.258 -0.0530 -0.2663 -0.0343
   39MOL     C314519   6.554   1.002   5.185  0.0614  0.4495  1.1180
   39MOL     O414520   6.447   0.998   5.249  0.4871  0.2111  0.0129
   39MOL     N514521   6.559   1.006   5.050 -0.2063 -0.2377  0.5390
   39MOL     C614522   6.446   0.989   4.954  1.0631 -0.3922 -0.3587
   39MOL     C714523   6.384   1.124   4.922 -0.4689 -0.1893  0.2075
   39MOL     C814524   6.488   0.924   4.827  0.5843 -0.4999 -0.9745
   39MOL     H914525   6.631   0.859   5.413  0.4973  0.2505  0.2647
   39MOL    H1014526   6.588   1.023   5.458 -0.8252 -1.6090  1.6501
   39MOL    H1114527   6.760   0.952   5.224  0.8577  0.2727  0.9885
   39MOL    H1214528   6.649   1.029   5.010  0.5754  0.5089  2.6691
   39MOL    H1314529   6.372   0.925   5.002 -0.1700  1.0866 -0.2744
   39MOL    H1414530   6.358   1.171   5.017 -4.4811  0.1418 -0.9700
   39MOL    H1514531   6.298   1.124   4.855  1.4417  0.4604 -2.3106
   39MOL    H1614532   6.454   1.192   4.874  1.2265 -2.6794 -0.9846
   39MOL    H1714533   6.559   0.845   4.853 -0.2804 -0.8705  0.3323
   39MOL    H1814534   6.406   0.878   4.770 -0.8588 -0.1255  0.7598
   39MOL    H1914535   6.541   0.988   4.756 -0.2212  0.2777 -0.8761
   39MOL    H2014536   6.752   0.971   5.458  0.3418 -0.4244 -0.8369
   39MOL    C2114537   6.723   1.174   5.257  0.5662  0.2689  0.0963
   39MOL    C2214538   6.839   1.220   5.171 -0.3040 -0.5024 -0.0928
   39MOL    C2314539   6.814   1.209   5.022  0.6986 -0.4837  0.9441
   39MOL    O2414540   6.807   1.101   4.971 -0.1841 -0.3151  0.4598
   39MOL    N2514541   6.800   1.326   4.951 -0.4233  0.0171  0.0808
   39MOL    C2614542   6.766   1.336   4.811  0.8901 -0.3542 -0.0206
   39MOL    C2714543   6.896   1.308   4.733 -0.0169  0.3725  0.3871
   39MOL    C2814544   6.713   1.476   4.771  0.1067  0.5578 -0.4749
   39MOL    H2914545   6.744   1.209   5.358 -0.6447 -0.7700  0.7214
   39MOL    H3014546   6.646   1.246   5.227  1.1360  0.9071  0.1548
   39MOL    H3114547   6.846   1.322   5.210  0.8172 -0.0714 -1.3893
   39MOL    H3214548   6.803   1.412   5.004 -1.2341 -0.5346  1.0367
   39MOL    H3314549   6.692   1.258   4.789  1.1031 -1.6595  3.6410
   39MOL    H3414550   6.983   1.357   4.777  0.1883  2.3141 -1.9985
   39MOL    H3514551   6.888   1.327   4.626 -1.5065  0.5729  0.5314
   39MOL    H3614552   6.921   1.202   4.742 -0.6453  0.2217  0.3764
   39MOL    H3714553   6.670   1.474   4.671 -0.3841 -3.7593 -0.2829
   39MOL    H3814554   6.642   1.518   4.843 -0.9906 -1.4783 -0.3294
   39MOL    H3914555   6.797   1.544   4.763  2.5150 -2.0488  1.5591
   39MOL    C4014556   6.973   1.155   5.205  0.2263  0.1325 -0.5788
   39MOL    C4114557   7.101   1.199   5.129  0.1764 -0.2424 -0.6536
   39MOL    C4214558   7.224   1.135   5.198 -0.0166 -0.0893 -0.2431
   39MOL    O4314559   7.266   1.179   5.303  0.7753  0.2732 -0.1215
   39MOL    N4414560   7.291   1.043   5.121 -0.3756  0.1807 -0.0054
   39MOL    C4514561   7.387   0.950   5.186  0.1322  0.0620 -0.2592
   39MOL    C4614562   7.313   0.824   5.208 -0.2058 -0.1411  0.7860
   39MOL    C4714563   7.507   0.935   5.102 -0.4744 -0.4261  0.8339
   39MOL    H4814564   6.960   1.047   5.194  0.2955  0.1700 -1.0446
   39MOL    H4914565   6.987   1.170   5.312 -0.8898 -0.4581 -0.3450
   39MOL    H5014566   7.093   1.161   5.027  1.0575  0.4166 -0.9821
   39MOL    H5114567   7.260   1.023   5.027  1.5006  0.5060 -0.7082
   39MOL    H5214568   7.415   1.002   5.278  0.3433 -0.2429 -0.1513
   39MOL    H5314569   7.258   0.834   5.301 -0.1313 -0.1924  0.8348
   39MOL    H5414570   7.370   0.732   5.194 -1.4901 -0.8894  0.3184
   39MOL    H5514571   7.229   0.808   5.139 -0.5188 -0.8528  1.3333
   39MOL    H5614572   7.593   0.908   5.163 -0.3818 -0.9246  0.4812
   39MOL    H5714573   7.540   1.034   5.070  2.5205 -1.4846  0.5290
   39MOL    H5814574   7.485   0.882   5.009  0.8387  0.2451  0.1336
   39MOL    C5914575   7.109   1.357   5.134 -0.2347  0.4090  0.5309
   39MOL    C6014576   7.241   1.436   5.090 -0.3277  0.4409 -0.1018
   39MOL    C6114577   7.226   1.582   5.117 -1.0300 -0.0746  0.2837
   39MOL    O6214578   7.118   1.632   5.091  0.1203  0.2283  0.3372
   39MOL    N6314579   7.334   1.642   5.169 -0.0367 -0.6344  0.0403
   39MOL    C6414580   7.363   1.788   5.170 -0.4909  0.4336 -0.6557
   39MOL    C6514581   7.441   1.817   5.306 -0.1882 -0.5646  0.1593
   39MOL    C6614582   7.438   1.828   5.041 -0.5048  0.1119  0.3843
   39MOL    H6714583   7.024   1.390   5.074  0.1069 -0.4862 -0.4555
   39MOL    H6814584   7.080   1.395   5.232 -1.2470  1.2152 -0.0687
   39MOL    H6914585   7.318   1.386   5.149  0.7776 -2.5279 -3.8808
   39MOL    H7014586   7.412   1.580   5.181  0.7970  0.0838 -1.4936
   39MOL    H7114587   7.264   1.834   5.174 -1.1545 -0.7431 -2.5143
   39MOL    H7214588   7.444   1.923   5.329 -1.2551 -0.5175  0.0989
   39MOL    H7314589   7.392   1.784   5.397  1.3946 -1.1679  0.8115
   39MOL    H7414590   7.545   1.784   5.302  0.8717  2.5652  0.4680
   39MOL    H7514591   7.531   1.772   5.038  0.3219  1.5168 -1.5256
   39MOL    H7614592   7.381   1.801   4.952  0.4337  0.6597 -0.3904
   39MOL    H7714593   7.460   1.935   5.041 -3.7845  0.8753 -0.3262
   39MOL    C7814594   7.290   1.403   4.945  0.4484  0.0355 -0.4457
   39MOL    C7914595   7.436   1.456   4.911  0.1868 -0.8605 -0.3760
   39MOL    C8014596   7.521   1.398   5.025 -0.2412  0.6051 -0.5367
   39MOL    O8114597   7.515   1.275   5.044  0.3688  0.2614  0.4652
   39MOL    N8214598   7.595   1.486   5.105 -0.0488 -0.4391 -0.0330
   39MOL    C8314599   7.664   1.449   5.225  0.5294 -0.3672 -0.0032
   39MOL    C8414600   7.762   1.557   5.267 -0.2657  0.3525  0.0743
   39MOL    C8514601   7.563   1.412   5.329  0.1973 -0.2242 -0.0367
   39MOL    H8614602   7.211   1.422   4.871 -0.2601  1.1166  0.5602
   39MOL    H8714603   7.301   1.295   4.941 -0.5178 -0.0633 -0.6324
   39MOL    H8814604   7.441   1.565   4.913 -0.8088 -0.7990 -0.9669
   39MOL    H8914605   7.617   1.577   5.067 -0.6839 -0.1848  0.1886
   39MOL    H9014606   7.729   1.364   5.204  0.2577 -0.7560  0.7155
   39MOL    H9114607   7.801   1.534   5.366  0.2571  2.0536  0.2808
   39MOL    H9214608   0.010   1.549   5.198 -0.5827 -0.1170 -0.2736
   39MOL    H9314609   7.723   1.657   5.252  1.0956  0.8376 -0.2495
   39MOL    H9414610   7.516   1.319   5.296  0.0934 -0.3772  0.5350
   39MOL    H9514611   7.488   1.491   5.334  0.5610  0.1029  0.3334
   39MOL    H9614612   7.604   1.406   5.430  1.4665  0.1208 -0.5288
   39MOL    C9714613   7.484   1.404   4.768  0.5792 -0.0352 -0.4213
   39MOL    C9814614   7.629   1.413   4.717 -0.3965  0.3317 -0.6883
   39MOL    C9914615   7.667   1.552   4.692  0.0388  0.0688  0.4951
   39MOL   O10014616   7.609   1.624   4.606 -0.2551  0.1556 -0.0392
   39MOL   N10114617   7.762   1.599   4.777  0.4571  0.2809 -0.2130
   39MOL   C10214618   7.821   1.732   4.774 -0.1707  0.3109 -0.5696
   39MOL   C10314619   0.001   1.771   4.919 -0.4165  0.1295 -0.2824
   39MOL   C10414620   0.118   1.722   4.700 -0.2694  0.9984  0.1431
   39MOL   H10514621   7.412   1.443   4.695 -1.7882 -1.0294  1.3377
   39MOL   H10614622   7.470   1.298   4.785 -0.7609  0.2579  0.4052
   39MOL   H10714623   7.691   1.365   4.793 -0.4511  0.1085 -0.7850
   39MOL   H10814624   7.816   1.531   4.830 -1.9001 -2.4241 -1.1854
   39MOL   H10914625   7.749   1.791   4.717 -1.2136 -1.3352 -0.9939
   39MOL   H11014626   7.739   1.754   4.963  0.6823 -2.4338  1.2475
   39MOL   H11114627   0.068   1.701   4.968 -0.5043 -1.1050 -1.8868
   39MOL   H11214628   0.024   1.877   4.929 -0.7245  0.2151 -0.4676
   39MOL   H11314629   0.100   1.679   4.601 -0.7967 -1.2317  1.1708
   39MOL   H11414630   0.201   1.676   4.753 -0.3984  0.9075  0.2675
   39MOL   H11514631   0.147   1.824   4.675  1.0872  0.2704 -1.3540
   39MOL   C11614632   7.651   1.313   4.594 -0.3887  0.1688 -0.1320
   39MOL   C11714633   7.796   1.286   4.556 -0.2439 -0.2513  0.2659
   39MOL   C11814634   0.027   1.210   4.669 -0.6408  0.0236  0.2648
   39MOL   O11914635   0.061   1.277   4.764 -0.1956 -0.3199  0.3729
   39MOL   N12014636   0.042   1.083   4.642  0.0974  0.2682 -0.5030
   39MOL   C12114637   0.094   0.980   4.734  0.4169  0.3396  0.3235
   39MOL   C12214638   0.008   0.846   4.734 -0.5071 -0.4409 -0.1628
   39MOL   C12314639   0.238   0.965   4.702 -0.0743  0.2227 -0.5838
   39MOL   H12414640   7.601   1.346   4.503 -1.0216 -0.6184 -0.0772
   39MOL   H12514641   7.600   1.218   4.612  3.3139 -1.7186  0.9494
   39MOL   H12614642   7.795   1.223   4.467  0.5937 -0.1109  0.1553
   39MOL   H12714643   7.834   1.044   4.561  0.0646  1.0790 -0.8763
   39MOL   H12814644   0.089   1.003   4.841 -2.3379 -4.8335  1.4955
   39MOL   H12914645   7.758   0.842   4.801  0.3106  0.1075  0.9334
   39MOL   H13014646   0.059   0.750   4.746  1.0775  0.4069  0.0197
   39MOL   H13114647   7.811   0.841   4.630 -0.6517  1.7014 -0.2425
   39MOL   H13214648   0.269   0.956   4.598  0.0120 -1.3348 -0.4421
   39MOL   H13314649   0.304   1.045   4.733 -2.5721  2.3413 -0.5382
   39MOL   H13414650   0.280   0.883   4.761 -0.9272  1.1906  1.4317
   39MOL   C13514651   0.037   1.417   4.512  0.0883 -0.1334  0.4275
   39MOL   C13614652   0.164   1.393   4.417 -0.1332  0.3603 -0.0774
   39MOL   C13714653   0.215   1.531   4.371  0.1366 -0.4240 -0.5812
   39MOL   O13814654   0.289   1.600   4.436  0.3112 -0.5116  0.1863
   39MOL   N13914655   0.170   1.569   4.253 -0.4891 -0.5685 -0.7612
   39MOL   C14014656   0.187   1.705   4.203 -1.0185  0.2468 -0.4549
   39MOL   C14114657   0.119   1.806   4.295 -0.1420 -0.2349 -0.6845
   39MOL   C14214658   0.147   1.708   4.053 -0.1217  0.0068 -0.6137
   39MOL   H14314659   0.077   1.456   4.606 -0.7648 -1.9461  1.5806
   39MOL   H14414660   7.805   1.491   4.469 -2.2307  0.0603  4.1470
   39MOL   H14514661   0.109   1.359   4.330 -0.1314 -0.7307  0.3392
   39MOL   H14614662   0.116   1.511   4.192 -0.6659  1.9971 -3.1329
   39MOL   H14714663   0.293   1.730   4.197 -0.9479 -0.4094 -2.7961
   39MOL   H14814664   0.151   1.799   4.399  1.4489  1.1780 -1.0621
   39MOL   H14914665   0.144   1.909   4.267 -2.3256  0.0373 -1.7280
   39MOL   H15014666   0.010   1.803   4.295 -0.1232 -0.9176 -0.1826
   39MOL   H15114667   0.044   1.678   4.032 -0.6667 -0.4174  2.4260
   39MOL   H15214668   0.213   1.640   4.000  0.7680 -0.6160  1.2426
   39MOL   H15314669   0.161   1.806   4.007  1.2919 -0.2998 -0.8403
   39MOL   C15414670   0.277   1.302   4.461 -0.1435 -0.1688 -0.6243
   39MOL   C15514671   0.414   1.303   4.383 -0.0670  0.2438 -0.7078
   39MOL   C15614672   0.393   1.244   4.240 -1.2734 -0.6667 -0.0453
   39MOL   O15714673   0.360   1.124   4.226 -0.0009  0.1826 -0.9022
   39MOL   N15814674   0.402   1.331   4.138 -0.0414  0.7731  0.3827
   39MOL   C15914675   0.412   1.298   3.997 -0.5080 -0.2232  0.1368
   39MOL   C16014676   0.553   1.244   3.953  0.4004  0.0551 -0.3578
   39MOL   C16114677   0.361   1.418   3.913 -0.8304  0.3544 -0.0962
   39MOL   H16214678   0.239   1.200   4.457  0.0527 -0.2650  0.0176
   39MOL   H16314679   0.299   1.321   4.566 -0.0103 -0.7540 -0.5454
   39MOL   H16414680   0.456   1.404   4.379 -2.9572  1.5156 -0.6230
   39MOL   H16514681   0.432   1.424   4.167  1.8624  0.5999 -0.9502
   39MOL   H16614682   0.347   1.213   3.977 -0.9074  0.1058  0.0477
   39MOL   H16714683   0.632   1.319   3.959 -0.5529  0.9915  0.8115
   39MOL   H16814684   0.569   1.154   4.012  2.1857  0.5648 -0.0346
   39MOL   H16914685   0.558   1.210   3.850  1.3541  3.1039 -1.3678
   39MOL   H17014686   0.254   1.430   3.927 -0.8374  0.5073 -0.2838
   39MOL   H17114687   0.373   1.400   3.806 -2.3335 -2.6151  0.1739
   39MOL   H17214688   0.402   1.514   3.945  0.9766 -0.4947  0.1971
   39MOL   C17314689   0.513   1.220   4.467 -0.2553  0.3672 -0.3248
   39MOL   C17414690   0.663   1.204   4.403 -0.2626 -0.5787  0.3830
   39MOL   C17514691   0.726   1.344   4.387  0.5868  0.2790  0.3561
   39MOL   O17614692   0.742   1.417   4.481 -0.5073  0.3351  0.4142
   39MOL   N17714693   0.752   1.377   4.257  0.3514  0.0614  0.0655
   39MOL   C17814694   0.808   1.501   4.211 -0.4495  0.1402 -0.5302
   39MOL   C17914695   0.705   1.583   4.123 -0.5185  0.3845 -0.6138
   39MOL   C18014696   0.925   1.460   4.123  0.1131 -0.1531 -0.0945
   39MOL   H18114697   0.489   1.115   4.482  1.2370 -0.1936 -1.7253
   39MOL   H18214698   0.515   1.264   4.567  1.0973  3.2039 -1.5319
   39MOL   H18314699   0.641   1.156   4.308 -2.5452  1.3577 -0.0991
   39MOL   H18414700   0.735   1.296   4.199  0.6827 -0.7087  1.0143
   39MOL   H18514701   0.841   1.566   4.293  1.1183 -1.0207 -0.2239
   39MOL   H18614702   0.757   1.648   4.054  3.6084 -0.3432  1.6562
   39MOL   H18714703   0.661   1.644   4.201  1.6305  1.3941 -0.1696
   39MOL   H18814704   0.636   1.516   4.071  0.8416 -2.4220  1.0741
   39MOL   H18914705   1.005   1.404   4.172 -0.0885 -0.4511 -0.1035
   39MOL   H19014706   0.973   1.548   4.081  0.8765 -1.6030 -2.3493
   39MOL   H19114707   0.888   1.405   4.037  0.7711 -2.5580  1.1081
   39MOL   C19214708   0.760   1.106   4.476  0.0634 -0.3363  0.2628
   39MOL   C19314709   0.911   1.099   4.453 -0.7002 -0.2362 -0.0686
   39MOL   C19414710   0.939   1.061   4.308  0.1764 -0.2005 -0.5628
   39MOL   O19514711   1.006   1.139   4.242  0.7166  0.0507 -0.2263
   39MOL   N19614712   0.878   0.948   4.262 -0.6245 -0.4719  0.1125
   39MOL   C19714713   0.896   0.892   4.133  0.2010  0.3253  0.1334
   39MOL   C19814714   1.006   0.788   4.150  0.3971 -0.0500  0.2950
   39MOL   C19914715   0.766   0.828   4.083  0.2977  0.4162  0.6209
   39MOL   H20014716   0.728   1.003   4.460 -1.7365  0.5229 -1.9837
   39MOL   H20114717   0.735   1.121   4.581  0.4944  0.0947  0.3065
   39MOL   H20214718   0.945   1.201   4.467 -3.4815  0.8293 -0.7624
   39MOL   H20314719   0.805   0.904   4.316 -0.5384  0.4239  0.9810
   39MOL   H20414720   0.933   0.969   4.065 -0.1723  0.4471  0.0650
   39MOL   H20514721   1.073   0.815   4.231 -0.8869  1.9674  0.7452
   39MOL   H20614722   1.064   0.784   4.058 -1.4430 -3.6809 -0.7777
   39MOL   H20714723   0.954   0.695   4.171 -0.1273 -0.6206 -3.2400
   39MOL   H20814724   0.773   0.773   3.989 -0.6081 -1.2520  1.5029
   39MOL   H20914725   0.683   0.898   4.068  0.9401  0.6066 -2.2559
   39MOL   H21014726   0.728   0.754   4.153  0.9745  1.5467  2.2064
   39MOL   C21114727   0.972   0.994   4.557 -0.2944  0.1014  0.5547
   39MOL   C21214728   1.126   0.978   4.566 -0.2686 -0.5358  0.0427
   39MOL   C21314729   1.202   1.102   4.602  0.8913  0.5470  0.8079
   39MOL   O21414730   1.144   1.176   4.679 -0.1492 -0.3915 -0.1960
   39MOL   N21514731   1.322   1.126   4.555  0.1071  0.2409  0.5279
   39MOL   C21614732   1.413   1.228   4.614  0.0612 -0.0797 -0.1679
   39MOL   C21714733   1.500   1.288   4.510 -0.8864 -0.2106 -0.6846
   39MOL   C21814734   1.497   1.163   4.726  0.1961 -0.0423 -0.0977
   39MOL   H21914735   0.927   0.901   4.522 -0.8249  1.0004 -1.1889
   39MOL   H22014736   0.924   1.008   4.654 -1.0380  0.3251  0.1577
   39MOL   H22114737   1.170   0.952   4.470 -0.1972 -0.2344 -0.0065
   39MOL   H22214738   1.349   1.078   4.470 -0.8418 -0.5250  0.6471
   39MOL   H22314739   1.365   1.314   4.661 -1.2224 -0.4710 -0.7250
   39MOL   H22414740   1.437   1.336   4.435 -0.1227 -0.4759 -1.5016
   39MOL   H22514741   1.569   1.362   4.550  0.0443 -2.0068  1.1377
   39MOL   H22614742   1.550   1.212   4.450 -0.0512 -0.2295  0.0291
   39MOL   H22714743   1.558   1.233   4.783 -1.9368 -0.7659  3.2235
   39MOL   H22814744   1.562   1.082   4.692 -0.8247  0.6069 -3.7961
   39MOL   H22914745   1.425   1.124   4.797 -0.1823 -1.6072 -1.3073
   39MOL   C23014746   1.169   0.859   4.657  0.5362 -0.4332 -0.4065
   39MOL   C23114747   1.147   0.711   4.599  0.3518 -0.0729  0.2804
   39MOL   C23214748   1.257   0.669   4.498 -0.3941 -0.0564  0.0017
   39MOL   O23314749   1.229   0.609   4.395  0.4990  0.1817  0.1266
   39MOL   N23414750   1.386   0.691   4.532 -0.0809 -0.5430  0.1045
   39MOL   C23514751   1.509   0.654   4.459 -0.4859 -0.6165  0.1109
   39MOL   C23614752   1.617   0.752   4.508  0.1871 -0.6723  0.3016
   39MOL   C23714753   1.535   0.502   4.490  0.3336  0.1471 -0.4306
   39MOL   H23814754   1.120   0.866   4.754  3.1675  1.5489  0.8102
   39MOL   H23914755   1.273   0.860   4.688  0.1783 -0.0529  0.8214
   39MOL   H24014756   1.046   0.699   4.558  0.1894  0.4212  0.5348
   39MOL   H24114757   1.414   0.729   4.622 -0.7985 -3.1728  1.4917
   39MOL   H24214758   1.493   0.667   4.352  0.7009  2.1438  0.2191
   39MOL   H24314759   1.630   0.745   4.616 -1.2902 -1.2354  0.4528
   39MOL   H24414760   1.701   0.751   4.438 -1.5163  1.5789 -1.8825
   39MOL   H24514761   1.580   0.854   4.490  0.0261 -0.6801  0.5765
   39MOL   H24614762   1.455   0.445   4.445  0.5218 -1.0916  0.7666
   39MOL   H24714763   1.532   0.489   4.598 -0.5314  2.2193 -0.1835
   39MOL   H24814764   1.634   0.489   4.446 -0.6270  0.3630 -2.7237
   39MOL   C24914765   1.142   0.613   4.726  0.0744 -0.1029  0.8454
   39MOL   C25014766   1.129   0.466   4.697  0.2565  0.0723  0.4434
   39MOL   C25114767   0.997   0.428   4.623 -0.4063  0.2056 -0.3766
   39MOL   O25214768   0.901   0.392   4.691 -0.5001  0.3351  0.1228
   39MOL   N25314769   0.996   0.446   4.489  0.4734  0.1588  0.1204
   39MOL   C25414770   0.881   0.404   4.411 -0.3224 -0.9320  0.5091
   39MOL   C25514771   0.791   0.527   4.386  0.1912 -0.8309 -0.1010
   39MOL   C25614772   0.931   0.342   4.286  0.0145  0.2826  0.1220
   39MOL   H25714773   1.053   0.653   4.776 -0.4049  0.0447 -0.1085
   39MOL   H25814774   1.226   0.648   4.786 -0.3913  1.6111  0.5482
   39MOL   H25914775   1.204   0.436   4.624 -2.9217 -2.4440 -1.9204
   39MOL   H26014776   1.069   0.494   4.439  0.3897 -1.6992 -1.8467
   39MOL   H26114777   0.819   0.330   4.460  0.0059 -2.1628 -0.8933
   39MOL   H26214778   0.763   0.588   4.472 -1.2335  1.0627 -1.8515
   39MOL   H26314779   0.843   0.600   4.324 -1.0496  0.5897  0.5007
   39MOL   H26414780   0.697   0.500   4.338 -0.5105 -2.1168  1.9402
   39MOL   H26514781   0.974   0.416   4.219 -1.7701  0.4742 -0.8469
   39MOL   H26614782   0.981   0.246   4.296 -1.5746 -0.3147  2.6885
   39MOL   H26714783   0.845   0.317   4.224 -0.1458 -2.5708  1.4107
   39MOL   C26814784   1.156   0.381   4.826  0.0771 -0.5326 -0.4255
   39MOL   C26914785   1.137   0.232   4.823  0.0307 -0.0336  0.5992
   39MOL   C27014786   1.274   0.156   4.820  0.3736 -0.0214  0.0312
   39MOL   O27114787   1.359   0.177   4.903  0.3855 -0.0960 -0.2478
   39MOL   N27214788   1.296   0.066   4.726  0.2262  0.1073  0.6652
   39MOL   C27314789   1.423   7.831   4.695  0.3898 -0.0387 -0.2105
   39MOL   C27414790   1.542   0.088   4.662 -0.0118 -0.9080 -0.0695
   39MOL   C27514791   1.458   7.738   4.808  0.3289 -0.0732  0.0136
   39MOL   H27614792   1.259   0.414   4.841  0.0781  0.1313 -1.8775
   39MOL   H27714793   1.109   0.427   4.913 -0.2586 -0.2736 -0.7475
   39MOL   H27814794   1.100   0.208   4.723  2.2066  0.1030 -0.2737
   39MOL   H27914795   1.226   0.057   4.654  0.6280 -2.4087  0.5564
   39MOL   H28014796   1.415   7.773   4.603 -1.0158  0.1867 -0.2349
   39MOL   H28114797   1.562   0.151   4.749  0.0302  0.4388 -1.0464
   39MOL   H28214798   1.630   0.033   4.628 -0.3490 -1.2817 -0.3459
   39MOL   H28314799   1.509   0.161   4.588 -0.5216  0.5057  1.5146
   39MOL   H28414800   1.364   7.705   4.851  0.8715  1.6343  2.6205
   39MOL   H28514801   1.527   7.661   4.774  0.0046 -1.3030  2.0557
   39MOL   H28614802   1.510   7.798   4.882 -0.2596  0.0985  0.2874
   39MOL   C28714803   1.035   0.200   4.937 -0.8201  0.1767 -0.0357
   39MOL   C28814804   0.959   0.072   4.903  0.7827 -0.2174  0.6965
   39MOL   C28914805   0.809   0.083   4.913 -0.1807  0.2682 -0.1963
   39MOL   O29014806   0.751   0.011   4.997 -0.2119 -0.3237  0.6882
   39MOL   N29114807   0.747   0.159   4.822 -0.3981 -0.5865  0.0031
   39MOL   C29214808   0.600   0.198   4.815 -0.5988  0.1844 -0.7600
   39MOL   C29314809   0.564   0.349   4.804 -0.1349 -0.0774  0.5130
   39MOL   C29414810   0.551   0.124   4.686  0.6757 -0.8133  0.1997
   39MOL   H29514811   1.085   0.199   5.034 -2.2531 -1.1696  0.7076
   39MOL   H29614812   0.968   0.286   4.944 -1.5001 -0.3153 -0.4268
   39MOL   H29714813   0.967   0.045   4.798 -0.2668 -0.8614  0.7685
   39MOL   H29814814   0.811   0.194   4.752  0.4813 -0.2671  0.9371
   39MOL   H29914815   0.544   0.161   4.901  0.6791 -1.8559 -0.7728
   39MOL   H30014816   0.572   0.398   4.901  0.5644 -0.1009  0.4643
   39MOL   H30114817   0.625   0.405   4.734  0.8865  0.1091  1.5359
   39MOL   H30214818   0.460   0.356   4.772  0.1882 -0.9521 -0.7407
   39MOL   H30314819   0.567   0.016   4.685 -1.3254 -1.1305  0.5567
   39MOL   H30414820   0.443   0.134   4.693  0.5507 -3.1580  2.6135
   39MOL   H30514821   0.585   0.178   4.598 -0.8766  0.6336  0.4561
   39MOL   C30614822   1.028   7.787   4.973 -0.1583 -0.1228 -0.2456
   39MOL   C30714823   0.982   7.644   4.940  0.0999 -0.0478 -0.0856
   39MOL   C30814824   0.941   7.577   5.071  1.1389  0.9179  0.2677
   39MOL   O30914825   1.024   7.501   5.124  0.0714 -0.0901  0.3492
   39MOL   N31014826   0.825   7.598   5.127  0.3626 -0.7540  0.4953
   39MOL   C31114827   0.786   7.550   5.259  0.7453  0.1881  0.1908
   39MOL   C31214828   0.686   7.642   5.327 -0.7617  0.4060 -0.6134
   39MOL   C31314829   0.733   7.412   5.251  0.4422 -0.4830 -0.0592
   39MOL   H31414830   1.137   7.788   4.965 -0.1575 -3.0815 -1.4651
   39MOL   H31514831   1.017   7.812   5.079  0.5423 -2.2385  0.3632
   39MOL   H31614832   0.892   7.642   4.878 -0.7549  0.2905  1.1317
   39MOL   H31714833   0.768   7.670   5.086  1.5148 -0.7383 -1.1053
   39MOL   H31814834   0.874   7.551   5.323 -0.5480 -1.1182  2.0309
   39MOL   H31914835   0.701   7.646   5.435  1.3166 -1.5379 -0.7995
   39MOL   H32014836   0.582   7.616   5.311 -0.1088 -2.8820  0.0210
   39MOL   H32114837   0.716   7.739   5.287  2.4340 -1.1720 -2.2328
   39MOL   H32214838   0.644   7.395   5.190 -0.5516 -1.3930  1.6159
   39MOL   H32314839   0.706   7.373   5.349 -0.7132 -2.0814 -0.9662
   39MOL   H32414840   0.808   7.340   5.217 -0.0745 -0.6148 -0.9263
   39MOL   C32514841   1.070   7.561   4.847  0.3177  0.1387  0.0880
   39MOL   C32614842   1.008   7.420   4.813  0.0881  0.8296  0.3623
   39MOL   C32714843   0.866   7.411   4.752 -0.5797 -0.5242  0.4886
   39MOL   O32814844   0.849   7.447   4.638  0.3678 -0.5998 -0.1498
   39MOL   N32914845   0.776   7.371   4.838 -0.2321  0.2459 -0.2034
   39MOL   C33014846   0.635   7.352   4.801  0.5632 -0.3535  0.5997
   39MOL   C33114847   0.553   7.487   4.802  0.4783  0.1673 -0.7665
   39MOL   C33214848   0.565   7.256   4.902 -0.4541 -0.4400  0.3295
   39MOL   H33314849   1.173   7.544   4.880  0.1785  2.3730  1.7999
   39MOL   H33414850   1.095   7.623   4.761  1.5262  1.2490  1.2203
   39MOL   H33514851   1.006   7.372   4.911  1.2986 -2.0541 -0.9703
   39MOL   H33614852   0.806   7.367   4.934 -2.6582  2.0470  0.6773
   39MOL   H33714853   0.624   7.311   4.701  1.4735 -0.1718  0.4168
   39MOL   H33814854   0.446   7.468   4.809  0.3768  0.5840 -1.2129
   39MOL   H33914855   0.576   7.550   4.889 -0.5520 -0.2197 -0.2098
   39MOL   H34014856   0.582   7.549   4.718  0.2658 -0.3664 -1.2343
   39MOL   H34114857   0.565   7.288   5.006 -2.5703  1.3392 -0.1657
   39MOL   H34214858   0.615   7.162   4.881  2.7314  2.1063 -4.4005
   39MOL   H34314859   0.463   7.235   4.871 -1.2880  0.8699  2.1290
   39MOL   C34414860   1.115   7.338   4.741  0.2979  0.1868 -0.0467
   39MOL   C34514861   1.129   7.355   4.584  0.0311 -0.1182 -0.5039
   39MOL   C34614862   1.162   7.498   4.538 -0.7162  0.8357  0.7643
   39MOL   O34714863   1.272   7.553   4.565  0.5317 -0.4061 -0.0934
   39MOL   N34814864   1.064   7.569   4.482  0.2465 -0.4378 -0.1443
   39MOL   C34914865   1.083   7.708   4.442 -0.3697 -0.6941  0.1341
   39MOL   C35014866   1.157   7.733   4.312  0.0855  0.0019 -0.6665
   39MOL   C35114867   0.944   7.769   4.456  0.1264  0.3528  0.3166
   39MOL   H35214868   1.104   7.232   4.766 -1.7940  0.0734 -1.3624
   39MOL   H35314869   1.213   7.353   4.786 -1.0993  0.0820  3.1780
   39MOL   H35414870   1.038   7.331   4.529 -0.1179 -0.6307 -0.0390
   39MOL   H35514871   0.973   7.532   4.506  0.0038  0.2182 -0.0592
   39MOL   H35614872   1.142   7.763   4.516  1.1597 -1.9675 -0.1105
   39MOL   H35714873   1.250   7.677   4.325 -0.4555 -0.7279  0.1540
   39MOL   H35814874   1.094   7.689   4.235 -1.1189 -1.2458  0.9774
   39MOL   H35914875   1.175   0.003   4.303  1.2747 -0.0976  0.4760
   39MOL   H36014876   0.947   0.034   4.415  1.6137  0.7810  1.4386
   39MOL   H36114877   0.868   7.710   4.404  1.7718 -0.1968 -1.5242
   39MOL   H36214878   0.905   7.777   4.558  2.6428  1.5291  1.2286
   39MOL   C36314879   1.232   7.265   4.515 -0.1795 -0.0851  0.4344
   39MOL   C36414880   1.371   7.231   4.579 -0.1608  0.0019  0.4674
   39MOL   C36514881   1.462   7.144   4.502 -0.2144 -0.1466 -0.4787
   39MOL   O36614882   1.435   7.129   4.383 -0.3924 -0.0147 -0.5961
   39MOL   N36714883   1.571   7.093   4.559  0.3043  0.5470  0.0854
   39MOL   C36814884   1.654   6.982   4.501 -0.0284 -0.2971  0.5716
   39MOL   C36914885   1.801   7.001   4.541 -0.4689  0.1473  0.4976
   39MOL   C37014886   1.593   6.846   4.545  0.5125 -0.1012  1.1322
   39MOL   H37114887   1.258   7.298   4.414  0.1747 -0.8510  0.2666
   39MOL   H37214888   1.172   7.175   4.500 -1.5603  0.6130  1.6715
   39MOL   H37314889   1.332   7.179   4.666 -1.8334  0.5486  0.0701
   39MOL   H37414890   1.599   7.115   4.653  4.0103  2.2133 -1.3037
   39MOL   H37514891   1.646   6.993   4.393 -2.1796  0.2612  0.7707
   39MOL   H37614892   1.855   6.928   4.481  2.2589  2.2843  0.2222
   39MOL   H37714893   1.839   7.098   4.511 -1.0190  0.4403  0.7458
   39MOL   H37814894   1.822   6.976   4.645  0.6956  0.9171  0.4586
   39MOL   H37914895   1.629   6.819   4.644  0.9473 -1.9821  0.4744
   39MOL   H38014896   1.484   6.846   4.549  0.4938  1.1005  0.7613
   39MOL   H38114897   1.603   6.769   4.470 -0.4554  1.0851 -0.2385
   39MOL   H38214898   1.425   7.321   4.609  1.5226 -0.5578 -0.8260
   40MOL     C114899   4.190   3.568   2.169  0.1922 -0.2153  0.0422
   40MOL     C214900   4.318   3.648   2.121 -0.2574 -0.7712  0.3765
   40MOL     C314901   4.415   3.665   2.239 -0.0072 -0.2246  0.0203
   40MOL     O414902   4.395   3.611   2.347  0.2958  0.0592  0.1734
   40MOL     N514903   4.528   3.738   2.219  0.3096 -0.6171 -0.1567
   40MOL     C614904   4.640   3.738   2.309  0.4558 -0.2627 -0.2458
   40MOL     C714905   4.758   3.791   2.225 -0.4557  0.0683  0.2539
   40MOL     C814906   4.613   3.821   2.438  0.0103 -0.4711 -0.0715
   40MOL     H914907   4.134   3.527   2.085  2.0479  0.3003 -1.4630
   40MOL    H1014908   4.119   3.627   2.227 -1.2196 -2.0023  0.1877
   40MOL    H1114909   4.290   3.750   2.094  1.0002  0.3104  2.9433
   40MOL    H1214910   4.546   3.773   2.126 -0.9104  0.1673 -0.1161
   40MOL    H1314911   4.673   3.638   2.336  1.1863  0.1017  0.2271
   40MOL    H1414912   4.744   3.894   2.193 -0.4787 -0.3111 -1.0047
   40MOL    H1514913   4.774   3.734   2.133  0.8246  0.3547  0.2862
   40MOL    H1614914   4.855   3.785   2.275 -0.7228 -1.7133  0.5927
   40MOL    H1714915   4.596   3.927   2.424  1.0049 -0.0321  1.8635
   40MOL    H1814916   4.513   3.790   2.469 -1.2040 -0.6278 -3.9723
   40MOL    H1914917   4.687   3.806   2.517 -1.8234  0.3879  1.8947
   40MOL    H2014918   4.211   3.479   2.228  1.9677 -0.3269 -0.7248
   40MOL    C2114919   4.388   3.577   2.001 -1.0247 -0.5434 -0.4874
   40MOL    C2214920   4.352   3.615   1.852  0.3641 -0.2130  0.0625
   40MOL    C2314921   4.363   3.768   1.828 -0.0542  0.2822  0.3040
   40MOL    O2414922   4.268   3.843   1.844  0.0020 -0.0579  0.4365
   40MOL    N2514923   4.478   3.821   1.781  0.1557  0.1497 -0.1862
   40MOL    C2614924   4.493   3.950   1.716  0.1664 -0.5643  0.0900
   40MOL    C2714925   4.624   3.958   1.639  0.0061 -1.1872 -0.1534
   40MOL    C2814926   4.482   4.051   1.828  0.3201  0.5463 -0.1541
   40MOL    H2914927   4.393   3.468   2.013  0.9851 -0.4890 -0.5816
   40MOL    H3014928   4.494   3.599   1.992 -1.2373  1.7053  1.8459
   40MOL    H3114929   4.419   3.559   1.788 -1.5335 -1.8487 -0.5219
   40MOL    H3214930   4.554   3.754   1.783 -0.4894 -0.6223  5.0053
   40MOL    H3314931   4.413   3.963   1.644  0.4474 -2.0324 -0.5163
   40MOL    H3414932   4.635   4.055   1.590 -3.3357 -0.2977  0.7427
   40MOL    H3514933   4.638   3.875   1.570  1.4522 -1.9381  1.0291
   40MOL    H3614934   4.708   3.965   1.708 -0.9667  3.5060  0.7502
   40MOL    H3714935   4.552   4.046   1.912  0.5315  2.2803 -0.2056
   40MOL    H3814936   4.500   4.147   1.780  1.8421 -0.2516 -1.2150
   40MOL    H3914937   4.377   4.058   1.858 -0.0815 -2.2078 -0.7940
   40MOL    C4014938   4.212   3.570   1.811  0.2735 -0.1371 -0.5158
   40MOL    C4114939   4.186   3.567   1.655 -0.6099  1.5101  0.0284
   40MOL    C4214940   4.080   3.660   1.597 -0.1239  0.2476 -0.3658
   40MOL    O4314941   3.996   3.616   1.517 -0.2985 -0.4480 -0.5125
   40MOL    N4414942   4.082   3.782   1.647 -0.4337 -0.3110  0.0214
   40MOL    C4514943   3.980   3.882   1.610 -0.3860  0.3507 -0.2081
   40MOL    C4614944   3.948   3.968   1.732 -0.4568  0.6149  0.2635
   40MOL    C4714945   4.019   3.964   1.483 -0.0431  0.3974 -0.3842
   40MOL    H4814946   4.140   3.632   1.865  0.1268  0.8575 -1.8430
   40MOL    H4914947   4.187   3.471   1.850 -1.7787  1.7502  3.2079
   40MOL    H5014948   4.279   3.607   1.613  0.6144 -0.0061  1.2043
   40MOL    H5114949   4.145   3.817   1.718 -0.2679 -1.4011  0.4296
   40MOL    H5214950   3.888   3.829   1.585 -0.3373  1.8890 -3.9529
   40MOL    H5314951   3.928   3.894   1.809 -1.3302 -1.1177 -1.5838
   40MOL    H5414952   3.849   4.013   1.719 -0.7781 -0.2476 -0.2935
   40MOL    H5514953   4.031   4.035   1.756  0.8613 -0.7317 -0.4050
   40MOL    H5614954   4.063   3.904   1.403 -1.8327 -1.3304 -0.0985
   40MOL    H5714955   4.079   4.051   1.512 -1.1974  1.0912 -0.0673
   40MOL    H5814956   3.930   4.011   1.443  1.6658  1.4932 -3.0736
   40MOL    C5914957   4.183   3.426   1.585  0.8228  0.3377 -1.1362
   40MOL    C6014958   4.242   3.425   1.437 -0.4589 -0.2324  0.4117
   40MOL    C6114959   4.149   3.352   1.344 -0.2633 -0.2278 -0.4619
   40MOL    O6214960   4.186   3.251   1.286  0.2845  0.3830 -0.1383
   40MOL    N6314961   4.027   3.396   1.339 -0.1042  0.5381  0.4800
   40MOL    C6414962   3.920   3.357   1.245  0.0794 -0.3078 -0.2445
   40MOL    C6514963   3.804   3.318   1.348 -0.5580 -0.0504 -0.4041
   40MOL    C6614964   3.883   3.477   1.164 -0.3416  0.1052 -1.5655
   40MOL    H6714965   4.236   3.347   1.639  0.3629  2.6248  2.8318
   40MOL    H6814966   4.081   3.390   1.595  0.0971  2.6715  0.1177
   40MOL    H6914967   4.251   3.524   1.393  0.5177 -1.2659 -1.7615
   40MOL    H7014968   4.018   3.472   1.405  1.7709  0.4477  0.8875
   40MOL    H7114969   3.956   3.273   1.185 -0.7847 -0.1372 -1.0104
   40MOL    H7214970   3.834   3.236   1.412 -3.6149 -1.1226 -0.2907
   40MOL    H7314971   3.788   3.402   1.415  5.3070 -0.5455  1.9024
   40MOL    H7414972   3.715   3.290   1.291  0.6933 -0.4644 -2.2246
   40MOL    H7514973   3.971   3.518   1.114 -0.5274  2.6364  0.1070
   40MOL    H7614974   3.807   3.447   1.092  0.0440 -1.6631 -1.2491
   40MOL    H7714975   3.852   3.567   1.216  0.2497  0.3469 -1.6218
   40MOL    C7814976   4.388   3.366   1.446  0.0187  0.2874 -0.4148
   40MOL    C7914977   4.482   3.360   1.322 -0.3248 -0.2161  0.2951
   40MOL    C8014978   4.482   3.489   1.238  0.2260 -0.6095 -0.1231
   40MOL    O8114979   4.480   3.595   1.296 -0.4239  0.8762 -0.4625
   40MOL    N8214980   4.491   3.483   1.105 -0.1093  0.0054 -0.2115
   40MOL    C8314981   4.482   3.597   1.012  0.5904  0.1612 -0.1121
   40MOL    C8414982   4.635   3.639   0.985 -0.2060 -0.0704  0.1594
   40MOL    C8514983   4.406   3.557   0.883 -0.0405 -0.0094  0.9125
   40MOL    H8614984   4.385   3.267   1.491 -0.6685  0.3851 -0.2512
   40MOL    H8714985   4.434   3.426   1.525  0.9455 -2.0812  0.9083
   40MOL    H8814986   4.447   3.277   1.261 -2.6273 -0.3696  1.7692
   40MOL    H8914987   4.496   3.391   1.065 -1.4161 -0.8546  1.5525
   40MOL    H9014988   4.429   3.674   1.068 -2.0576 -4.0894  3.5726
   40MOL    H9114989   4.682   3.654   1.082  1.7802  0.8018 -0.9072
   40MOL    H9214990   4.687   3.565   0.925 -0.4927  1.7973 -2.5158
   40MOL    H9314991   4.646   3.730   0.924 -3.5495 -0.6651 -1.4418
   40MOL    H9414992   4.442   3.464   0.838 -1.3617 -0.1600  0.1283
   40MOL    H9514993   4.417   3.640   0.813 -0.7093 -0.8606 -0.2378
   40MOL    H9614994   4.301   3.544   0.908  0.0715 -1.9178  0.5448
   40MOL    C9714995   4.625   3.322   1.367 -0.2320  0.0786 -0.0893
   40MOL    C9814996   4.713   3.428   1.442  0.8646  0.0088 -0.1418
   40MOL    C9914997   4.807   3.515   1.360 -0.0933 -0.0255 -0.5827
   40MOL   O10014998   4.909   3.466   1.309 -0.3680 -0.0445  0.0043
   40MOL   N10114999   4.792   3.649   1.350 -0.3687  0.5004  0.2854
   40MOL   C10215000   4.878   3.737   1.274 -0.3818 -0.1392 -0.5846
   40MOL   C10315001   4.802   3.865   1.228 -0.3304 -0.1343  0.2707
   40MOL   C10415002   5.003   3.775   1.366 -0.1926  0.6346  0.0289
   40MOL   H10515003   4.683   3.287   1.281 -1.4624 -0.7987 -0.5771
   40MOL   H10615004   4.612   3.230   1.423  2.5123  1.3980  2.8968
   40MOL   H10715005   4.648   3.489   1.506  0.3619 -1.8980  1.2014
   40MOL   H10815006   4.706   3.683   1.391 -0.4964 -0.6133  0.9524
   40MOL   H10915007   4.899   3.686   1.180 -0.7890  0.6204 -1.0866
   40MOL   H11015008   4.874   3.923   1.171 -0.3729  0.3844  0.7312
   40MOL   H11115009   4.708   3.845   1.176 -0.7374 -3.4037  2.1164
   40MOL   H11215010   4.758   3.920   1.312  2.5693 -0.8530  2.3104
   40MOL   H11315011   5.051   3.684   1.402  1.6786  0.6509 -2.3014
   40MOL   H11415012   4.989   3.840   1.452  2.2861  1.4074 -0.1170
   40MOL   H11515013   5.078   3.828   1.308 -1.2676  2.1733  0.0222
   40MOL   C11615014   4.794   3.349   1.550 -0.0122  0.1186  0.2346
   40MOL   C11715015   4.855   3.434   1.662 -0.3958 -0.3160  0.2423
   40MOL   C11815016   5.011   3.422   1.662  0.4873  1.1031 -0.0069
   40MOL   O11915017   5.062   3.383   1.760 -0.6351 -0.2094 -0.3910
   40MOL   N12015018   5.078   3.462   1.551  0.4988 -0.2180 -0.3473
   40MOL   C12115019   5.217   3.455   1.531  0.1582  0.4129  0.5589
   40MOL   C12215020   5.238   3.432   1.377  0.0747  0.0388  0.0678
   40MOL   C12315021   5.298   3.580   1.580 -0.1709  0.9333  0.3492
   40MOL   H12415022   4.874   3.299   1.495  0.8481  0.8133  0.8430
   40MOL   H12515023   4.727   3.277   1.598 -1.7553  1.4057 -0.2225
   40MOL   H12615024   4.843   3.537   1.629  0.3262 -0.7957 -1.5609
   40MOL   H12715025   5.016   3.488   1.475  1.5174 -2.2176 -1.8875
   40MOL   H12815026   5.260   3.368   1.581 -0.0097 -0.1577 -0.2802
   40MOL   H12915027   5.341   3.422   1.343  0.6043  0.8380  1.3988
   40MOL   H13015028   5.210   3.528   1.333  0.4867 -0.1618 -0.6362
   40MOL   H13115029   5.174   3.350   1.345  1.6744 -1.2405  0.1006
   40MOL   H13215030   5.284   3.575   1.688 -0.9691  2.7944  0.3584
   40MOL   H13315031   5.406   3.573   1.568 -0.0844  2.1371  0.3585
   40MOL   H13415032   5.255   3.674   1.544 -0.0506  0.9935  0.3617
   40MOL   C13515033   4.782   3.408   1.792  0.7153  0.0711  0.0784
   40MOL   C13615034   4.830   3.489   1.921 -0.9314 -0.0370 -0.6882
   40MOL   C13715035   4.819   3.635   1.897  0.4798 -0.3311  0.5578
   40MOL   O13815036   4.716   3.688   1.863  0.2071 -0.2816 -0.3365
   40MOL   N13915037   4.935   3.702   1.909  0.0125  0.1972  0.5307
   40MOL   C14015038   4.967   3.843   1.871  0.7319 -0.3721  0.2524
   40MOL   C14115039   5.003   3.841   1.719 -0.2387  0.8717 -0.1448
   40MOL   C14215040   5.079   3.905   1.961 -0.3847  0.5486  0.8710
   40MOL   H14315041   4.794   3.301   1.811  2.1394 -0.0879 -1.6061
   40MOL   H14415042   4.675   3.417   1.774  0.8415 -0.2436 -0.8817
   40MOL   H14515043   4.933   3.458   1.942 -0.3465  1.4111 -1.3368
   40MOL   H14615044   5.019   3.649   1.929  1.3431  1.9025 -0.3902
   40MOL   H14715045   4.883   3.910   1.886  0.9085  0.4065 -2.0115
   40MOL   H14815046   5.099   3.798   1.692 -0.8353 -1.1974  0.9021
   40MOL   H14915047   4.931   3.779   1.666  0.1616  1.8407 -1.8523
   40MOL   H15015048   4.985   3.946   1.698 -1.4389  0.5752 -0.6217
   40MOL   H15115049   5.169   3.845   1.961  0.3622  1.6496 -0.3264
   40MOL   H15215050   5.040   3.926   2.061  0.7418  1.5446  1.1071
   40MOL   H15315051   5.100   4.005   1.922  3.0121 -0.3241  0.3373
   40MOL   C15415052   4.743   3.446   2.044 -0.3760 -0.0324 -0.0571
   40MOL   C15515053   4.763   3.297   2.089  0.5270  0.4531 -0.3039
   40MOL   C15615054   4.672   3.287   2.211  0.1996  0.2773  0.2619
   40MOL   O15715055   4.669   3.374   2.301  0.6943 -0.6488  0.7001
   40MOL   N15815056   4.590   3.178   2.210  0.1936 -0.8534  0.3923
   40MOL   C15915057   4.485   3.140   2.306  0.7428  0.5995 -0.2949
   40MOL   C16015058   4.441   2.991   2.285 -0.6365 -0.7577  0.0823
   40MOL   C16115059   4.361   3.234   2.289  0.4940 -0.2667  0.3792
   40MOL   H16215060   4.637   3.443   2.016  0.1328  0.3587 -2.0859
   40MOL   H16315061   4.755   3.516   2.127 -2.0756 -1.0356  1.0857
   40MOL   H16415062   4.743   3.226   2.010  3.0288  0.0326 -0.6170
   40MOL   H16515063   4.618   3.104   2.147 -0.2639 -0.2220 -0.5503
   40MOL   H16615064   4.527   3.141   2.407 -0.3922  1.9880  0.1770
   40MOL   H16715065   4.393   2.961   2.192  0.3079  2.3316 -1.4840
   40MOL   H16815066   4.528   2.925   2.294  1.2290  1.9828  3.4292
   40MOL   H16915067   4.372   2.965   2.365  0.5533 -0.0275  1.3640
   40MOL   H17015068   4.276   3.198   2.347  2.0028 -2.4501  1.3117
   40MOL   H17115069   4.333   3.238   2.184 -0.1740  1.2442  0.5928
   40MOL   H17215070   4.385   3.335   2.323 -0.0345  0.2179 -0.6720
   40MOL   C17315071   4.910   3.258   2.121 -0.6877 -0.4802  0.1842
   40MOL   C17415072   4.981   3.342   2.226 -0.5312 -0.1557 -0.3038
   40MOL   C17515073   4.995   3.256   2.347  0.0740  0.8118 -0.4723
   40MOL   O17615074   5.095   3.188   2.366  0.2182 -0.1832  0.6235
   40MOL   N17715075   4.907   3.262   2.446  0.1752 -0.5326 -0.3815
   40MOL   C17815076   4.909   3.195   2.577  0.0418  0.0858 -1.1602
   40MOL   C17915077   4.782   3.116   2.599 -0.6051  0.2084  0.2364
   40MOL   C18015078   4.933   3.295   2.692 -0.2595  0.4846  0.4064
   40MOL   H18115079   4.970   3.263   2.030 -0.4821 -1.9953  0.2178
   40MOL   H18215080   4.902   3.154   2.152  1.9517 -0.8052 -0.1505
   40MOL   H18315081   4.913   3.426   2.243 -2.5956 -1.6151 -1.0720
   40MOL   H18415082   4.823   3.316   2.435 -0.1691 -0.8514  0.6215
   40MOL   H18515083   4.992   3.125   2.586  0.9227  1.2828  0.5088
   40MOL   H18615084   4.774   3.038   2.523  0.9364  0.3041 -0.0396
   40MOL   H18715085   4.687   3.169   2.608 -0.9734 -0.7920  2.5619
   40MOL   H18815086   4.791   3.070   2.697  0.3816  4.2165  2.1233
   40MOL   H18915087   4.851   3.367   2.700 -1.6971 -1.0955  0.1292
   40MOL   H19015088   5.026   3.346   2.665  0.3639 -1.1705 -0.6287
   40MOL   H19115089   4.939   3.259   2.795  2.7592 -0.8888 -0.2048
   40MOL   C19215090   5.113   3.409   2.175  0.3214 -0.7770 -0.0302
   40MOL   C19315091   5.213   3.465   2.277  0.6277 -0.2749  0.6822
   40MOL   C19415092   5.145   3.587   2.335 -0.2669 -0.1604 -0.2583
   40MOL   O19515093   5.122   3.687   2.269 -0.3675 -0.5272  0.3381
   40MOL   N19615094   5.111   3.578   2.468 -0.3948 -0.1519 -0.2789
   40MOL   C19715095   5.078   3.684   2.566 -0.2677 -0.3535 -0.3955
   40MOL   C19815096   4.933   3.680   2.619  0.0987  0.1749 -0.2945
   40MOL   C19915097   5.181   3.665   2.683  0.2799 -0.3030  0.3991
   40MOL   H20015098   5.089   3.486   2.101 -0.7822 -2.1274 -1.1020
   40MOL   H20115099   5.170   3.336   2.117  0.7724 -0.5859  0.1711
   40MOL   H20215100   5.228   3.395   2.358 -0.2024 -0.0373  1.0559
   40MOL   H20315101   5.134   3.485   2.500 -0.4059 -0.3557 -0.8589
   40MOL   H20415102   5.108   3.785   2.538 -0.5735  0.2989  1.5465
   40MOL   H20515103   4.870   3.701   2.532 -1.1940  1.5467  0.9398
   40MOL   H20615104   4.909   3.760   2.690  3.1736  0.6567  0.2729
   40MOL   H20715105   4.911   3.584   2.664  0.2951 -0.7990 -2.2306
   40MOL   H20815106   5.188   3.746   2.757  0.8370 -0.0328  0.0602
   40MOL   H20915107   5.284   3.670   2.646  0.8565  1.0209  2.1225
   40MOL   H21015108   5.157   3.573   2.736 -1.0846 -1.0554 -1.4639
   40MOL   C21115109   5.355   3.494   2.214 -0.0953 -0.3495  0.5166
   40MOL   C21215110   5.472   3.489   2.318  0.0256  0.4403  0.6428
   40MOL   C21315111   5.494   3.345   2.357  0.5738 -0.1717  0.1315
   40MOL   O21415112   5.540   3.269   2.279 -0.4932  0.2677  0.4362
   40MOL   N21515113   5.468   3.299   2.479  0.3512  0.8702  0.3087
   40MOL   C21615114   5.468   3.382   2.601  0.0712  0.3943  0.0685
   40MOL   C21715115   5.583   3.346   2.692  0.5501 -0.1271  0.5194
   40MOL   C21815116   5.340   3.339   2.681 -0.1872 -0.7200 -0.1308
   40MOL   H21915117   5.357   3.589   2.160  0.8627 -1.0089 -0.6585
   40MOL   H22015118   5.376   3.417   2.139  1.1675  0.7655 -0.3070
   40MOL   H22115119   5.428   3.534   2.407 -1.8240  0.4745 -0.2650
   40MOL   H22215120   5.490   3.201   2.494 -2.5841  0.4459  2.4304
   40MOL   H22315121   5.460   3.491   2.594  0.2305  0.2844 -2.0641
   40MOL   H22415122   5.580   3.239   2.709  0.9132 -0.1654  0.3621
   40MOL   H22515123   5.677   3.377   2.645 -1.1195  0.2056 -2.7440
   40MOL   H22615124   5.576   3.398   2.788  0.3212 -0.5372  0.7252
   40MOL   H22715125   5.341   3.234   2.710  2.0987  0.3728  4.0646
   40MOL   H22815126   5.258   3.342   2.610 -0.7132 -1.0093  0.4666
   40MOL   H22915127   5.310   3.403   2.763 -0.7781 -0.8623 -0.2330
   40MOL   C23015128   5.604   3.564   2.284  0.1573  0.3711  0.3902
   40MOL   C23115129   5.582   3.708   2.305  0.1334 -0.1466  0.3236
   40MOL   C23215130   5.622   3.750   2.446  0.3458 -0.8552 -0.2502
   40MOL   O23315131   5.534   3.769   2.532  0.2187 -0.2354  0.1094
   40MOL   N23415132   5.751   3.761   2.469  0.5926 -0.0021 -0.2345
   40MOL   C23515133   5.816   3.811   2.592  0.3248 -0.6135  0.2542
   40MOL   C23615134   5.969   3.787   2.582  0.4456 -0.3960  0.0022
   40MOL   C23715135   5.773   3.961   2.615 -0.2157 -0.2704 -0.3529
   40MOL   H23815136   5.635   3.540   2.183 -0.3781 -1.6092  0.6846
   40MOL   H23915137   5.682   3.519   2.345 -0.1145  0.5788  0.9038
   40MOL   H24015138   5.475   3.730   2.294  0.2381 -0.2767 -1.0278
   40MOL   H24115139   5.815   3.731   2.397 -1.1905  2.0991 -2.7833
   40MOL   H24215140   5.769   3.751   2.670 -0.0034  0.4831  0.9107
   40MOL   H24315141   6.009   3.831   2.491  0.5684 -1.4988 -0.4868
   40MOL   H24415142   6.025   3.821   2.670 -0.5929  0.3355  0.3909
   40MOL   H24515143   5.997   3.684   2.605  0.0382 -0.3109  0.9209
   40MOL   H24615144   5.804   4.011   2.523  0.7930 -1.3172 -0.5976
   40MOL   H24715145   5.818   4.011   2.701 -2.1937  2.0069 -0.5802
   40MOL   H24815146   5.664   3.962   2.624 -0.0544  0.9541  2.0206
   40MOL   C24915147   5.647   3.782   2.191  0.5983  0.8880  0.7960
   40MOL   C25015148   5.636   3.939   2.204 -0.9720  0.3693  0.0470
   40MOL   C25115149   5.488   3.974   2.181  0.8257 -0.3792 -0.2803
   40MOL   O25215150   5.439   3.966   2.066  0.7880 -0.2676 -0.5192
   40MOL   N25315151   5.422   4.005   2.289 -0.0990 -0.8896  0.0501
   40MOL   C25415152   5.281   4.029   2.298 -0.6771 -0.2272 -0.0335
   40MOL   C25515153   5.233   4.044   2.441  0.0846  0.1292 -0.4254
   40MOL   C25615154   5.232   4.143   2.198 -0.3855  0.3816  0.4934
   40MOL   H25715155   5.613   3.759   2.090  0.2953  0.1272  1.0671
   40MOL   H25815156   5.755   3.770   2.186  0.5482  0.3249  1.1128
   40MOL   H25915157   5.675   3.966   2.302 -0.7327  1.1342 -0.2503
   40MOL   H26015158   5.476   3.988   2.373  2.9579 -1.9827 -2.0304
   40MOL   H26115159   5.252   3.930   2.260  2.0921 -1.3523  0.6584
   40MOL   H26215160   5.269   3.970   2.512 -3.5875 -1.4251 -0.0483
   40MOL   H26315161   5.250   4.146   2.473  2.5662 -0.0990 -0.9473
   40MOL   H26415162   5.125   4.028   2.449  0.2457 -1.0078 -0.3493
   40MOL   H26515163   5.240   4.112   2.094  0.1160  0.2232  0.5799
   40MOL   H26615164   5.124   4.156   2.209 -0.4451 -0.9729  1.5972
   40MOL   H26715165   5.284   4.239   2.206  1.4009 -0.5723  0.4887
   40MOL   C26815166   5.733   4.012   2.110 -0.6045 -0.2681  0.1655
   40MOL   C26915167   5.767   4.158   2.150 -0.2705 -0.0857  0.8073
   40MOL   C27015168   5.912   4.180   2.186 -0.2562 -0.7775  0.1883
   40MOL   O27115169   5.984   4.246   2.111 -0.1766 -0.4292 -0.2228
   40MOL   N27215170   5.948   4.153   2.310 -0.0072  0.2593 -0.2847
   40MOL   C27315171   6.076   4.189   2.379  0.1359 -0.7020 -0.2814
   40MOL   C27415172   6.061   4.194   2.531 -0.2253 -0.3887  0.7233
   40MOL   C27515173   6.181   4.088   2.335 -0.4707  0.0476  0.3418
   40MOL   H27615174   5.825   3.954   2.116 -0.6036 -0.3567 -0.6160
   40MOL   H27715175   5.698   4.005   2.007 -2.3214  1.1705  0.6412
   40MOL   H27815176   5.697   4.191   2.227 -0.4539 -1.0392  1.0575
   40MOL   H27915177   5.873   4.124   2.371 -0.0362 -1.2972 -1.0314
   40MOL   H28015178   6.108   4.286   2.342 -0.2025 -0.1921  0.7480
   40MOL   H28115179   6.155   4.211   2.584 -0.4698 -0.8378  1.2965
   40MOL   H28215180   5.988   4.270   2.558  0.1434  0.0349  0.5465
   40MOL   H28315181   6.018   4.098   2.555  0.1434 -0.5266  0.8350
   40MOL   H28415182   6.175   3.992   2.386 -0.2060 -0.0695  0.1508
   40MOL   H28515183   6.177   4.071   2.227 -2.0002 -1.9915  0.7038
   40MOL   H28615184   6.283   4.117   2.360 -0.0280 -0.4478 -0.8393
   40MOL   C28715185   5.734   4.259   2.036  0.3003 -0.3396 -0.2384
   40MOL   C28815186   5.584   4.260   1.993  0.2686  0.4609 -0.4304
   40MOL   C28915187   5.568   4.210   1.851 -0.0931  0.0702 -0.0964
   40MOL   O29015188   5.628   4.267   1.758  0.3452  0.2628  0.3135
   40MOL   N29115189   5.500   4.098   1.831 -0.1804 -0.6625  0.4401
   40MOL   C29215190   5.476   4.025   1.705 -0.2300  0.3731  0.1019
   40MOL   C29315191   5.394   3.899   1.729 -0.0924  0.3225  0.3464
   40MOL   C29415192   5.408   4.112   1.602  0.1698 -0.6648  0.5650
   40MOL   H29515193   5.759   4.358   2.075 -0.9352 -1.0228  2.4444
   40MOL   H29615194   5.797   4.248   1.948  1.6551  1.9439  0.4111
   40MOL   H29715195   5.539   4.191   2.064  0.3332 -0.2803 -1.0964
   40MOL   H29815196   5.454   4.060   1.912 -0.7037  0.3003  0.5962
   40MOL   H29915197   5.574   3.999   1.666  0.1568  1.5590  0.2887
   40MOL   H30015198   5.288   3.914   1.753  0.0223  0.3836  0.8159
   40MOL   H30115199   5.386   3.843   1.636  1.6098  1.6553 -0.6131
   40MOL   H30215200   5.440   3.822   1.791  0.6556  0.3259 -0.1977
   40MOL   H30315201   5.364   4.059   1.517 -0.8151  2.5463 -0.9785
   40MOL   H30415202   5.327   4.167   1.650  1.2054  0.4214  1.0748
   40MOL   H30515203   5.470   4.185   1.551 -0.3851 -1.0228 -0.6454
   40MOL   C30615204   5.507   4.400   2.027  0.1325 -0.6685  0.2516
   40MOL   C30715205   5.509   4.516   1.927 -0.1864 -0.0787  0.1279
   40MOL   C30815206   5.647   4.573   1.912  0.3478 -0.1731 -1.1535
   40MOL   O30915207   5.714   4.608   2.009  0.0395  0.5791  1.1721
   40MOL   N31015208   5.687   4.586   1.785  0.3255  0.0027  0.4268
   40MOL   C31115209   5.811   4.647   1.740 -0.1076 -0.0566 -0.6271
   40MOL   C31215210   5.875   4.543   1.651  0.7799 -0.4470 -0.2866
   40MOL   C31315211   5.777   4.778   1.669  0.3167 -0.2406 -0.3128
   40MOL   H31415212   5.402   4.372   2.041 -1.2812  3.4650 -1.4915
   40MOL   H31515213   5.542   4.422   2.128  1.0109 -1.2931  0.0941
   40MOL   H31615214   5.483   4.484   1.826  0.2981  0.2114 -0.0889
   40MOL   H31715215   5.639   4.550   1.704 -0.1519 -0.3556  0.8693
   40MOL   H31815216   5.876   4.671   1.824 -3.0029  1.2805  1.3541
   40MOL   H31915217   5.978   4.574   1.632  0.7162 -0.0528  0.0132
   40MOL   H32015218   5.821   4.529   1.557  0.9100  0.0870 -0.4423
   40MOL   H32115219   5.877   4.453   1.712 -1.4610  2.1378  3.7689
   40MOL   H32215220   5.732   4.769   1.571 -0.2127  1.9423 -0.3047
   40MOL   H32315221   5.873   4.825   1.645  1.5717 -1.3942  2.1604
   40MOL   H32415222   5.722   4.856   1.722  0.3494 -1.1730  1.1216
   40MOL   C32515223   5.405   4.617   1.987  0.1173 -0.2510 -0.6194
   40MOL   C32615224   5.383   4.741   1.907  0.1902 -0.3457 -0.8325
   40MOL   C32715225   5.319   4.709   1.772 -0.5834 -0.3598  0.2159
   40MOL   O32815226   5.206   4.662   1.770 -0.1189 -0.2084  0.5443
   40MOL   N32915227   5.397   4.707   1.658 -0.6458  0.5138 -0.9506
   40MOL   C33015228   5.362   4.661   1.529  0.3498  0.2947  0.1252
   40MOL   C33115229   5.427   4.524   1.507 -0.1241  0.0294 -0.9463
   40MOL   C33215230   5.393   4.771   1.421 -0.2865  0.2196 -0.6996
   40MOL   H33315231   5.438   4.659   2.083 -0.1149  0.3841 -0.8165
   40MOL   H33415232   5.307   4.574   2.003  0.0017 -0.5394 -2.0781
   40MOL   H33515233   5.478   4.792   1.893  0.2575 -0.5089 -0.9579
   40MOL   H33615234   5.480   4.763   1.667  1.0875 -1.9227 -1.1321
   40MOL   H33715235   5.254   4.645   1.528  0.4146 -0.1727  0.2704
   40MOL   H33815236   5.535   4.519   1.512 -0.2138 -1.2893 -0.0453
   40MOL   H33915237   5.386   4.458   1.584  0.9597  1.2403  0.6916
   40MOL   H34015238   5.404   4.485   1.408  2.2043 -1.1287 -1.0570
   40MOL   H34115239   5.401   4.727   1.321  0.3654  3.2195 -2.0012
   40MOL   H34215240   5.485   4.826   1.440  0.5720 -1.2854 -0.4180
   40MOL   H34315241   5.315   4.845   1.408  1.7303  2.0647 -2.8004
   40MOL   C34415242   5.301   4.844   1.990  0.7510  0.2010 -0.8461
   40MOL   C34515243   5.312   4.989   1.937  0.1497 -0.0734  0.0407
   40MOL   C34615244   5.203   5.007   1.831  0.0481  0.9423 -0.1475
   40MOL   O34715245   5.084   4.980   1.857  0.1300  0.0150 -0.9255
   40MOL   N34815246   5.244   5.064   1.715  0.2255  0.0006 -0.1422
   40MOL   C34915247   5.164   5.102   1.606 -0.4383  0.3827  0.1731
   40MOL   C35015248   5.059   5.212   1.632  0.6297 -0.2642 -0.5920
   40MOL   C35115249   5.266   5.139   1.497 -0.5649  0.2864 -0.4943
   40MOL   H35215250   5.337   4.847   2.093 -2.5475  3.8315  0.3404
   40MOL   H35315251   5.201   4.800   1.992  1.7150 -2.0332 -0.9712
   40MOL   H35415252   5.410   4.995   1.891  1.1191 -2.0551  1.7413
   40MOL   H35515253   5.331   5.112   1.726  0.8860 -1.3855  0.8455
   40MOL   H35615254   5.111   5.011   1.577 -1.1336  0.5000  1.0545
   40MOL   H35715255   4.969   5.173   1.681 -0.1225  2.9152  0.6641
   40MOL   H35815256   5.099   5.294   1.693  0.4243 -1.1531  0.7647
   40MOL   H35915257   5.036   5.251   1.533 -0.6517  0.1186 -0.1649
   40MOL   H36015258   5.205   5.155   1.408 -0.1523  0.3285 -0.7736
   40MOL   H36115259   5.311   5.233   1.530 -1.6239  0.2143  1.2122
   40MOL   H36215260   5.342   5.064   1.475  1.1417  1.9763 -0.5396
   40MOL   C36315261   5.303   5.109   2.042 -0.2483  0.4607 -0.0040
   40MOL   C36415262   5.304   5.261   1.988 -0.3874 -0.3867 -0.2430
   40MOL   C36515263   5.435   5.295   1.910 -0.5951 -0.2015  0.2963
   40MOL   O36615264   5.446   5.241   1.797 -0.6164  0.1634  0.2724
   40MOL   N36715265   5.528   5.374   1.958  0.3566  0.7371  0.5861
   40MOL   C36815266   5.661   5.392   1.904  0.4116 -0.4437 -0.6465
   40MOL   C36915267   5.654   5.509   1.801 -0.0901 -0.4601 -0.1840
   40MOL   C37015268   5.747   5.438   2.022 -0.1395 -0.1800  0.2544
   40MOL   H37115269   5.393   5.098   2.104 -0.3821 -1.5958 -0.1373
   40MOL   H37215270   5.215   5.088   2.102  0.1934 -2.9527 -0.4676
   40MOL   H37315271   5.299   5.322   2.078  0.2665  0.6880 -0.9224
   40MOL   H37415272   5.510   5.404   2.053  0.2486 -0.6121  1.0055
   40MOL   H37515273   5.708   5.309   1.852 -0.4973 -1.8398  0.7248
   40MOL   H37615274   5.749   5.555   1.771 -1.1951  0.4256 -2.4129
   40MOL   H37715275   5.604   5.489   1.707  1.5567 -1.0953 -0.9582
   40MOL   H37815276   5.594   5.584   1.853 -1.1908 -2.3142  1.3025
   40MOL   H37915277   5.746   5.362   2.100  0.1978 -0.0594  0.3765
   40MOL   H38015278   5.848   5.449   1.981 -0.9748  3.2810 -1.0583
   40MOL   H38115279   5.726   5.530   2.076 -1.5232  0.1553 -0.8468
   40MOL   H38215280   5.216   5.301   1.938 -0.5480  1.6586  1.6157
   41MOL     C115281   4.668   4.740   5.076 -0.3105 -0.7011  0.0682
   41MOL     C215282   4.799   4.689   5.024  0.6667 -0.9813 -0.2001
   41MOL     C315283   4.869   4.805   4.954 -0.3119  0.7263  0.1134
   41MOL     O415284   4.886   4.912   5.011  0.4748  0.3023 -0.3425
   41MOL     N515285   4.898   4.784   4.822 -0.4315 -0.2557 -0.2134
   41MOL     C615286   4.938   4.888   4.719 -0.4969  0.5574  0.7045
   41MOL     C715287   5.091   4.883   4.695 -0.0485 -0.4842  0.8190
   41MOL     C815288   4.869   4.864   4.588 -0.2513 -0.3356  0.3587
   41MOL     H915289   4.600   4.667   5.120  2.4686 -1.3138  3.5510
   41MOL    H1015290   4.613   4.815   5.019 -1.4890 -0.3505  1.6428
   41MOL    H1115291   4.771   4.627   4.939 -2.4794  0.2785 -0.1527
   41MOL    H1215292   4.909   4.686   4.801 -0.0779 -0.8469  2.5255
   41MOL    H1315293   4.917   4.990   4.750 -1.2761  0.4304  0.6184
   41MOL    H1415294   5.136   4.784   4.701  1.2471 -0.1107 -1.8661
   41MOL    H1515295   5.137   4.944   4.773 -2.5942  0.6933  1.4531
   41MOL    H1615296   5.112   4.931   4.599 -2.4334  2.3670  1.6301
   41MOL    H1715297   4.763   4.888   4.594 -0.4304 -1.2966  1.1448
   41MOL    H1815298   4.912   4.931   4.512  0.9613 -2.9264 -1.3243
   41MOL    H1915299   4.868   4.767   4.539 -2.8658  0.7915 -1.9480
   41MOL    H2015300   4.695   4.802   5.160  0.0428  1.1344 -1.3731
   41MOL    C2115301   4.876   4.592   5.118 -0.4917 -0.2948 -0.6999
   41MOL    C2215302   5.014   4.534   5.062 -1.1856  0.4625 -0.7823
   41MOL    C2315303   4.986   4.452   4.929 -0.6656 -0.4757  0.0025
   41MOL    O2415304   4.985   4.509   4.817 -0.3155  0.4257  0.0462
   41MOL    N2515305   4.978   4.323   4.935  0.4687 -0.4362 -0.5699
   41MOL    C2615306   4.942   4.240   4.822 -0.5769 -0.3379  0.2028
   41MOL    C2715307   4.788   4.235   4.797  0.2254 -0.2951 -0.2741
   41MOL    C2815308   4.990   4.099   4.863  0.1228  0.2418 -0.6421
   41MOL    H2915309   4.801   4.518   5.146 -2.0821  2.3280  2.2292
   41MOL    H3015310   4.904   4.637   5.213  0.8406 -1.9794 -0.2554
   41MOL    H3115311   5.079   4.619   5.042 -1.4375  1.3035  1.8599
   41MOL    H3215312   4.991   4.277   5.024  0.5411  1.2236  0.2870
   41MOL    H3315313   4.993   4.274   4.732 -0.7829  0.4105  0.3641
   41MOL    H3415314   4.757   4.322   4.739 -0.2697 -1.1084 -1.2522
   41MOL    H3515315   4.735   4.238   4.893 -0.4555 -0.7743 -0.6279
   41MOL    H3615316   4.753   4.144   4.749 -0.7562 -0.0201 -0.0849
   41MOL    H3715317   4.947   4.023   4.797  2.6415 -0.1726 -1.8716
   41MOL    H3815318   5.098   4.087   4.854  0.2743 -0.6792  2.0828
   41MOL    H3915319   4.956   4.071   4.962  0.6954  2.6416  0.2609
   41MOL    C4015320   5.098   4.454   5.168  0.1663  0.2169  0.0379
   41MOL    C4115321   5.238   4.408   5.127  0.4220 -0.0392 -0.0159
   41MOL    C4215322   5.254   4.263   5.078 -0.2974  0.6175  0.4240
   41MOL    O4315323   5.183   4.169   5.116  0.0865  0.2773 -0.0047
   41MOL    N4415324   5.350   4.255   4.984  0.0064 -0.8863  0.0403
   41MOL    C4515325   5.387   4.127   4.913  0.1834 -0.3306  0.0594
   41MOL    C4615326   5.428   4.158   4.770  0.0041  0.3948  0.0508
   41MOL    C4715327   5.503   4.057   4.991  0.3292  0.2721 -0.2284
   41MOL    H4815328   5.042   4.371   5.212  0.1268  0.6733  0.8631
   41MOL    H4915329   5.113   4.524   5.250 -1.5072  1.0357 -0.3472
   41MOL    H5015330   5.269   4.481   5.052 -1.0844  0.6868  0.0480
   41MOL    H5115331   5.400   4.340   4.964  0.6197 -0.9083  1.4072
   41MOL    H5215332   5.305   4.055   4.907  0.2092 -0.1775 -2.8074
   41MOL    H5315333   5.448   4.067   4.713  3.8425 -0.6076  2.8298
   41MOL    H5415334   5.514   4.224   4.772  0.6432 -0.3663 -1.3006
   41MOL    H5515335   5.348   4.211   4.720  0.2700  1.1156  0.3877
   41MOL    H5615336   5.539   3.973   4.932 -0.0658  0.0638 -0.1724
   41MOL    H5715337   5.482   4.024   5.093  1.8534 -0.4071 -0.1185
   41MOL    H5815338   5.596   4.114   4.989 -0.8174  2.3227  2.2253
   41MOL    C5915339   5.328   4.443   5.248  0.1005 -0.0948  0.0232
   41MOL    C6015340   5.484   4.443   5.246  0.7719  0.3315 -0.6237
   41MOL    C6115341   5.544   4.514   5.125 -0.5849 -0.5471 -0.3929
   41MOL    O6215342   5.547   4.467   5.010 -0.5468  0.4815 -0.1772
   41MOL    N6315343   5.590   4.632   5.161 -0.3047  0.2189 -1.1166
   41MOL    C6415344   5.666   4.716   5.075 -0.4042 -0.6684  0.4202
   41MOL    C6515345   5.813   4.665   5.055 -0.1320 -0.0321 -0.3717
   41MOL    C6615346   5.601   4.746   4.936  0.3324  1.4314  0.9072
   41MOL    H6715347   5.310   4.547   5.272  0.3013 -0.2167  0.7259
   41MOL    H6815348   5.293   4.401   5.343  1.7906  0.6520  1.0189
   41MOL    H6915349   5.502   4.501   5.336 -2.2239 -0.8008  0.7724
   41MOL    H7015350   5.566   4.676   5.248  0.2243 -0.5877 -0.5525
   41MOL    H7115351   5.664   4.818   5.114 -3.0877 -0.3995 -0.3122
   41MOL    H7215352   5.818   4.558   5.034  0.9007  0.1387 -1.0471
   41MOL    H7315353   5.856   4.711   4.966  2.8510  0.8068  1.4279
   41MOL    H7415354   5.880   4.670   5.141  1.2206 -0.0558 -1.3948
   41MOL    H7515355   5.499   4.779   4.955  0.0946  1.2702 -0.0996
   41MOL    H7615356   5.656   4.833   4.899  0.9063  0.7918  0.2549
   41MOL    H7715357   5.601   4.668   4.861 -0.8791  1.0289  1.3177
   41MOL    C7815358   5.545   4.302   5.257 -0.4055  0.0899 -0.1066
   41MOL    C7915359   5.696   4.304   5.276 -0.1874 -0.3143 -0.3536
   41MOL    C8015360   5.747   4.387   5.401  0.3994  0.1747  0.2985
   41MOL    O8115361   5.718   4.344   5.512  0.1013 -0.6681  0.0789
   41MOL    N8215362   5.821   4.494   5.378 -0.1908  0.6185 -0.2424
   41MOL    C8315363   5.883   4.577   5.489  0.2030  0.7554  0.4500
   41MOL    C8415364   6.006   4.508   5.541  0.1868  0.5187 -0.6002
   41MOL    C8515365   5.918   4.715   5.424 -0.2583  0.7961 -0.4684
   41MOL    H8615366   5.505   4.237   5.179  0.5565  1.2015 -1.5459
   41MOL    H8715367   5.509   4.266   5.354 -1.3626  0.9665 -0.1226
   41MOL    H8815368   5.745   4.349   5.189 -1.3866  1.1322 -0.3144
   41MOL    H8915369   5.839   4.524   5.283  0.4268 -1.0414 -0.6725
   41MOL    H9015370   5.810   4.582   5.570 -1.3176 -1.2689 -0.7369
   41MOL    H9115371   6.075   4.467   5.467 -0.1259  0.9835 -1.1527
   41MOL    H9215372   6.073   4.574   5.596  0.3677 -0.6080  0.5380
   41MOL    H9315373   5.986   4.432   5.616  1.3969 -0.6545 -1.4521
   41MOL    H9415374   5.994   4.702   5.348  1.9772 -2.6892  2.2049
   41MOL    H9515375   5.942   4.789   5.501  2.3511 -0.3408 -0.1463
   41MOL    H9615376   5.828   4.753   5.376 -1.6788 -1.4927  0.3060
   41MOL    C9715377   5.753   4.160   5.278 -0.2271 -0.1801  0.2233
   41MOL    C9815378   5.902   4.139   5.293  0.6010  0.8722  0.0828
   41MOL    C9915379   5.994   4.218   5.201 -0.0565  0.1666 -0.0790
   41MOL   O10015380   5.952   4.261   5.095  0.7065 -0.1178  0.0739
   41MOL   N10115381   6.119   4.249   5.244  0.5944 -0.5564 -0.4530
   41MOL   C10215382   6.227   4.310   5.161 -0.0297 -0.1616  0.6038
   41MOL   C10315383   6.202   4.457   5.116  0.2505 -0.2025  0.2935
   41MOL   C10415384   6.350   4.326   5.257 -0.2193  0.5871 -0.6393
   41MOL   H10515385   5.721   4.114   5.185 -2.9140  2.8536 -0.4266
   41MOL   H10615386   5.698   4.099   5.350  0.4034  0.3870  1.1988
   41MOL   H10715387   5.913   4.177   5.395  0.5974 -0.4751  0.6010
   41MOL   H10815388   6.151   4.203   5.328  1.5781  1.1770  0.1231
   41MOL   H10915389   6.236   4.250   5.071  1.4592  1.3671 -0.2952
   41MOL   H11015390   6.150   4.509   5.196 -1.6461 -0.6114 -0.6642
   41MOL   H11115391   6.291   4.515   5.090 -0.6126  1.3060  0.6614
   41MOL   H11215392   6.148   4.461   5.021 -0.6089  0.0345  0.7885
   41MOL   H11315393   6.442   4.312   5.200 -0.4751  0.4213 -1.0158
   41MOL   H11415394   6.344   4.255   5.339  0.5193  0.1070 -0.9926
   41MOL   H11515395   6.372   4.424   5.299 -0.9613  1.1217 -1.4842
   41MOL   C11615396   5.943   3.988   5.283  0.4191  0.2257  0.0163
   41MOL   C11715397   5.946   3.910   5.416  0.7934 -0.2683 -0.1091
   41MOL   C11815398   6.043   3.968   5.515 -0.3990  0.6339  0.2431
   41MOL   O11915399   6.126   4.058   5.493 -0.6225 -0.1788 -0.4882
   41MOL   N12015400   6.040   3.899   5.633  0.1160 -0.3649 -0.7805
   41MOL   C12115401   6.146   3.905   5.735  0.3008 -0.0716 -0.5433
   41MOL   C12215402   6.110   3.804   5.844 -0.0697 -0.1296  0.4300
   41MOL   C12315403   6.281   3.860   5.675  0.2853 -0.3812  0.1388
   41MOL   H12415404   6.046   3.981   5.248  0.9236 -0.7322  1.6129
   41MOL   H12515405   5.894   3.935   5.201  0.8225 -0.1716  0.0311
   41MOL   H12615406   5.847   3.923   5.461  0.7717  1.3772 -0.6062
   41MOL   H12715407   5.962   3.837   5.651  0.3552 -0.0521  1.4217
   41MOL   H12815408   6.147   4.004   5.781 -1.9560 -1.5545  2.8949
   41MOL   H12915409   6.079   3.708   5.805 -0.1668 -0.3075  0.9386
   41MOL   H13015410   6.024   3.850   5.893  0.0060  0.0417  0.4027
   41MOL   H13115411   6.187   3.785   5.919 -0.4016  0.0491  0.8257
   41MOL   H13215412   6.348   3.804   5.740  1.3375 -0.8694 -1.3313
   41MOL   H13315413   6.271   3.781   5.602 -1.3330 -0.7523  0.7337
   41MOL   H13415414   6.330   3.940   5.619  0.4578 -0.3708  0.3011
   41MOL   C13515415   5.968   3.759   5.389  0.1079  0.1644  0.3436
   41MOL   C13615416   5.842   3.666   5.405 -0.1673  0.4171  0.1061
   41MOL   C13715417   5.809   3.640   5.554 -0.1477  0.2197  0.2633
   41MOL   O13815418   5.820   3.726   5.640 -0.2838 -0.0473  0.0259
   41MOL   N13915419   5.773   3.511   5.580  0.2350 -0.3768  0.7101
   41MOL   C14015420   5.736   3.457   5.711  0.0972 -0.2336  0.0688
   41MOL   C14115421   5.855   3.376   5.755 -0.5259  0.0189 -0.1545
   41MOL   C14215422   5.600   3.379   5.711 -0.2169  0.5352  0.2875
   41MOL   H14315423   6.052   3.719   5.445  1.4721  0.3953 -1.5126
   41MOL   H14415424   5.998   3.750   5.285  0.3166 -0.8591  0.4840
   41MOL   H14515425   5.873   3.572   5.358  0.9797  1.1805 -0.7010
   41MOL   H14615426   5.743   3.461   5.497 -0.7324  1.6043 -0.1713
   41MOL   H14715427   5.732   3.541   5.779  1.1572  0.9604 -1.3095
   41MOL   H14815428   5.866   3.279   5.706 -2.3099 -0.5614  0.5500
   41MOL   H14915429   5.945   3.433   5.731 -0.1468 -0.0103  1.1160
   41MOL   H15015430   5.858   3.358   5.863 -1.6110  1.2179  0.0868
   41MOL   H15115431   5.593   3.341   5.813  0.0250  0.2385  0.1949
   41MOL   H15215432   5.596   3.299   5.637  0.8267 -1.3747  2.2081
   41MOL   H15315433   5.511   3.439   5.696 -0.1658  0.6243  0.3441
   41MOL   C15415434   5.725   3.730   5.317 -0.5559  0.3973 -0.3250
   41MOL   C15515435   5.594   3.650   5.303  0.4469 -0.0119  0.2664
   41MOL   C15615436   5.628   3.508   5.274  0.5952 -0.0731  0.3075
   41MOL   O15715437   5.613   3.425   5.359 -0.4870 -0.5187  0.0981
   41MOL   N15815438   5.676   3.477   5.149  0.2880  0.3427  0.2574
   41MOL   C15915439   5.697   3.337   5.101 -0.4445 -0.4780  0.3133
   41MOL   C16015440   5.810   3.330   4.994  0.1415  0.0134  0.1660
   41MOL   C16115441   5.555   3.278   5.061 -0.2127  0.2092 -0.7159
   41MOL   H16215442   5.768   3.746   5.218  1.3158  0.4268  0.4547
   41MOL   H16315443   5.698   3.820   5.372 -2.0590  0.4821 -1.1868
   41MOL   H16415444   5.536   3.650   5.396  1.0320 -1.2744  0.6368
   41MOL   H16515445   5.693   3.554   5.085  0.9794  0.1778  0.2377
   41MOL   H16615446   5.723   3.277   5.188  1.0173  2.2088  1.7818
   41MOL   H16715447   5.778   3.363   4.895 -0.3223 -0.0306  0.2979
   41MOL   H16815448   5.893   3.392   5.029  1.1507 -1.4627  0.3930
   41MOL   H16915449   5.840   3.226   4.989  0.4582  0.0239  1.6487
   41MOL   H17015450   5.503   3.336   4.985 -1.5957 -0.4971 -0.3070
   41MOL   H17115451   5.484   3.274   5.143 -1.8492  2.4231 -1.9810
   41MOL   H17215452   5.564   3.175   5.028  0.0220 -0.6800  2.0340
   41MOL   C17315453   5.511   3.699   5.184 -0.1821 -0.5807  0.6681
   41MOL   C17415454   5.378   3.627   5.152  0.0149  0.2209  0.1273
   41MOL   C17515455   5.285   3.612   5.272 -0.6281  0.0721  0.0882
   41MOL   O17615456   5.196   3.694   5.296  0.0269 -0.3273  0.5865
   41MOL   N17715457   5.310   3.515   5.356 -0.1780 -0.3400 -0.0116
   41MOL   C17815458   5.210   3.479   5.455 -0.3239 -0.0699  0.3635
   41MOL   C17915459   5.228   3.563   5.587 -0.6947  0.9341  0.0709
   41MOL   C18015460   5.220   3.332   5.473  0.4083  0.6051  0.6200
   41MOL   H18115461   5.575   3.700   5.096  1.0695 -1.0744  1.5626
   41MOL   H18215462   5.487   3.802   5.211  1.7642 -0.2514  1.2006
   41MOL   H18315463   5.401   3.526   5.119  2.1841  1.3494 -1.9335
   41MOL   H18415464   5.390   3.456   5.342 -0.8514 -0.9098 -1.6069
   41MOL   H18515465   5.112   3.505   5.416  0.8078  2.9095 -0.6485
   41MOL   H18615466   5.331   3.599   5.589 -0.3746  0.5489 -4.2786
   41MOL   H18715467   5.210   3.498   5.672 -0.1293 -1.1321 -1.3578
   41MOL   H18815468   5.158   3.646   5.595 -0.1398  1.4639 -0.4598
   41MOL   H18915469   5.122   3.312   5.518  0.9267  1.6525  2.2953
   41MOL   H19015470   5.302   3.293   5.533 -0.6641 -2.9585 -0.0974
   41MOL   H19115471   5.239   3.296   5.372 -0.3799  0.2797  0.5814
   41MOL   C19215472   5.302   3.701   5.033  0.1106  0.7589  0.1478
   41MOL   C19315473   5.184   3.619   4.966 -0.2728  0.6027 -0.5067
   41MOL   C19415474   5.240   3.483   4.908  0.3992 -0.1926  0.1498
   41MOL   O19515475   5.327   3.483   4.819  0.6053 -0.2727  0.0668
   41MOL   N19615476   5.181   3.369   4.950 -0.4830  0.1549 -0.4314
   41MOL   C19715477   5.225   3.233   4.915  0.1372 -0.6466 -0.2654
   41MOL   C19815478   5.206   3.149   5.037 -0.5245 -0.4155  0.1935
   41MOL   C19915479   5.148   3.187   4.794  0.1260  0.1068  0.3360
   41MOL   H20015480   5.371   3.728   4.954 -1.2324  2.7393 -0.3865
   41MOL   H20115481   5.261   3.797   5.064  1.5736  1.3039  0.4096
   41MOL   H20215482   5.107   3.590   5.037 -0.2603 -0.8564 -1.0570
   41MOL   H20315483   5.111   3.385   5.021  0.1305  0.6458  0.0713
   41MOL   H20415484   5.331   3.241   4.889 -0.1176  3.9461 -0.2494
   41MOL   H20515485   5.215   3.042   5.015 -1.3304  0.0757 -2.7150
   41MOL   H20615486   5.107   3.163   5.079 -0.3242 -2.2729  1.3514
   41MOL   H20715487   5.280   3.158   5.117 -0.7253 -1.3127  0.4903
   41MOL   H20815488   5.178   3.090   4.756  2.5964  1.4204 -1.2069
   41MOL   H20915489   5.164   3.259   4.713  0.1030  0.1825  0.3981
   41MOL   H21015490   5.041   3.177   4.808  0.2758 -0.8699  0.8090
   41MOL   C21115491   5.120   3.699   4.853 -0.1544 -0.1650 -0.3139
   41MOL   C21215492   5.015   3.629   4.770 -0.5057  0.8376 -0.9599
   41MOL   C21315493   4.898   3.571   4.841 -0.3489  0.0355  0.0938
   41MOL   O21415494   4.856   3.628   4.944 -0.3903 -0.0688  0.3873
   41MOL   N21515495   4.854   3.464   4.778 -0.8039  0.4619 -0.1484
   41MOL   C21615496   4.754   3.367   4.819 -0.1303  0.0711  0.1396
   41MOL   C21715497   4.615   3.423   4.845  0.1530  0.0368 -0.0649
   41MOL   C21815498   4.796   3.319   4.959 -0.3110 -0.1499 -0.4637
   41MOL   H21915499   5.187   3.751   4.783  0.9284 -0.1221  0.7391
   41MOL   H22015500   5.064   3.773   4.909 -0.1171  0.6920 -1.3795
   41MOL   H22115501   5.066   3.548   4.716 -0.7914  0.7002 -1.0235
   41MOL   H22215502   4.886   3.459   4.682  1.1618  0.8489  0.4524
   41MOL   H22315503   4.747   3.282   4.752 -0.9388  0.1979  0.0547
   41MOL   H22415504   4.581   3.454   4.746  3.5109 -0.3303 -1.4092
   41MOL   H22515505   4.540   3.348   4.869 -2.0253  1.9616 -0.6697
   41MOL   H22615506   4.611   3.510   4.911  0.1420  1.6665 -2.1524
   41MOL   H22715507   4.903   3.330   4.970 -0.3159  0.3548 -0.8685
   41MOL   H22815508   4.768   3.214   4.968 -1.4388  0.1525 -0.2936
   41MOL   H22915509   4.757   3.381   5.039  1.4372 -0.0273  0.3009
   41MOL   C23015510   4.964   3.719   4.658 -0.0426  0.1015 -0.0108
   41MOL   C23115511   5.021   3.709   4.517  0.1215 -0.4891 -0.4030
   41MOL   C23215512   4.995   3.571   4.447 -0.4632  0.2776 -0.8104
   41MOL   O23315513   4.901   3.501   4.474 -0.3133 -0.1818  0.7370
   41MOL   N23415514   5.081   3.519   4.362 -0.0282 -0.4304  0.0857
   41MOL   C23515515   5.066   3.382   4.308  0.2917 -0.2480 -0.0870
   41MOL   C23615516   5.093   3.363   4.159 -0.6405  0.0078 -1.3458
   41MOL   C23715517   5.151   3.285   4.397  0.9711  0.5440 -0.6311
   41MOL   H23815518   4.975   3.824   4.685 -0.1353 -0.8441  4.0510
   41MOL   H23915519   4.856   3.710   4.647  0.1135 -0.5929 -1.0735
   41MOL   H24015520   5.129   3.708   4.532  0.1692  1.6304 -0.5009
   41MOL   H24115521   5.173   3.559   4.348  0.4256 -1.9150 -1.2694
   41MOL   H24215522   4.963   3.347   4.310 -0.2887  1.4214  1.3158
   41MOL   H24315523   5.003   3.371   4.099 -2.2421  0.6268  1.0594
   41MOL   H24415524   5.149   3.449   4.125 -1.2750  0.5121 -1.1210
   41MOL   H24515525   5.144   3.272   4.126  1.3233  0.0449  1.4070
   41MOL   H24615526   5.134   3.190   4.347  1.4236 -0.4849  1.1163
   41MOL   H24715527   5.107   3.274   4.496  0.5823 -1.1066 -0.9644
   41MOL   H24815528   5.253   3.319   4.412  0.9193  1.1000 -1.5154
   41MOL   C24915529   4.993   3.825   4.424  0.2499 -0.0194  0.2475
   41MOL   C25015530   5.054   3.966   4.474  0.7057  0.0946  0.6539
   41MOL   C25115531   5.032   4.074   4.362  0.2232  0.0928  0.6668
   41MOL   O25215532   5.023   4.046   4.246  0.5917 -0.0621  0.1282
   41MOL   N25315533   4.999   4.199   4.406  0.1535 -0.5136 -0.3529
   41MOL   C25415534   4.938   4.300   4.324 -0.3226  0.2572 -0.4403
   41MOL   C25515535   4.787   4.254   4.306  0.7265  0.1280 -0.4500
   41MOL   C25615536   4.962   4.432   4.395  0.1122  0.2021 -0.3212
   41MOL   H25715537   4.885   3.839   4.420  0.1657 -0.0637  1.8075
   41MOL   H25815538   5.021   3.811   4.320 -0.4199 -2.2702  0.3358
   41MOL   H25915539   4.989   3.997   4.556 -0.2673  2.0317 -0.8091
   41MOL   H26015540   4.992   4.211   4.506  1.4837  1.3270 -0.4543
   41MOL   H26115541   4.978   4.308   4.223  0.9717  0.6823  0.1067
   41MOL   H26215542   4.753   4.313   4.221  1.4510 -0.8961 -1.4685
   41MOL   H26315543   4.792   4.149   4.274  0.5547  0.2266 -0.7947
   41MOL   H26415544   4.728   4.271   4.396 -0.6445  2.6694 -1.8051
   41MOL   H26515545   4.933   4.432   4.500  2.7846  2.4821  0.4675
   41MOL   H26615546   5.066   4.463   4.395  0.3643 -0.6191 -0.8694
   41MOL   H26715547   4.911   4.510   4.340  0.9140  0.0879 -1.2369
   41MOL   C26815548   5.201   3.966   4.517 -0.8289  0.7904  0.3390
   41MOL   C26915549   5.296   3.893   4.417  0.0114  0.5331 -0.3143
   41MOL   C27015550   5.380   3.997   4.341  0.7060  0.4085  0.1733
   41MOL   O27115551   5.498   4.019   4.358 -0.1288  0.2719 -0.1224
   41MOL   N27215552   5.323   4.038   4.230 -0.4721  0.2849 -0.1636
   41MOL   C27315553   5.384   4.120   4.119  0.4753  0.9277 -0.2414
   41MOL   C27415554   5.365   4.040   3.991 -0.1285  0.4305  0.4591
   41MOL   C27515555   5.328   4.259   4.124 -0.0076  0.2976  0.0610
   41MOL   H27615556   5.229   4.071   4.530  1.8996  0.1260  0.1558
   41MOL   H27715557   5.216   3.924   4.617  1.0671 -1.1857 -0.7309
   41MOL   H27815558   5.237   3.846   4.338  0.8058 -3.5351  1.3734
   41MOL   H27915559   5.231   4.002   4.209 -1.1092  0.5911  1.9726
   41MOL   H28015560   5.491   4.131   4.138  0.8376 -1.0960 -1.0391
   41MOL   H28115561   5.432   3.955   3.988  0.4779  0.6641  4.4580
   41MOL   H28215562   5.268   4.011   3.951 -0.0222  0.1086  0.4352
   41MOL   H28315563   5.412   4.097   3.910 -1.7850 -0.5110 -1.2019
   41MOL   H28415564   5.219   4.254   4.119 -0.0781  1.1083  0.5874
   41MOL   H28515565   5.353   4.319   4.212 -1.6547  0.1057  0.6866
   41MOL   H28615566   5.351   4.317   4.035  0.3259  0.5232  0.2956
   41MOL   C28715567   5.393   3.797   4.498 -0.3616 -0.2962  0.1820
   41MOL   C28815568   5.503   3.716   4.428 -0.3357 -0.3752  0.0803
   41MOL   C28915569   5.443   3.629   4.314  0.2922  1.0885  0.0818
   41MOL   O29015570   5.322   3.609   4.301 -0.0336 -0.2695  0.1426
   41MOL   N29115571   5.533   3.587   4.221  0.2107 -0.1419  0.1088
   41MOL   C29215572   5.496   3.519   4.098 -0.3648  0.5831  0.2018
   41MOL   C29315573   5.585   3.566   3.980 -0.1471 -0.0482  0.0171
   41MOL   C29415574   5.482   3.367   4.103  0.7265  0.7918  0.6304
   41MOL   H29515575   5.445   3.862   4.568 -0.9898 -0.6288  0.9662
   41MOL   H29615576   5.335   3.732   4.564 -1.9495  0.1404 -0.7502
   41MOL   H29715577   5.573   3.787   4.383 -0.6082  0.1716  0.5228
   41MOL   H29815578   5.630   3.610   4.236  0.8305 -2.2609 -0.4128
   41MOL   H29915579   5.398   3.560   4.073 -0.0189  1.0873 -0.3287
   41MOL   H30015580   5.672   3.502   3.971  0.2253  0.0960  2.2661
   41MOL   H30115581   5.539   3.558   3.881  0.7306 -1.3900 -0.2972
   41MOL   H30215582   5.608   3.673   3.982 -2.0861  0.3769  1.2441
   41MOL   H30315583   5.421   3.334   4.019  1.9705  2.5488 -0.9984
   41MOL   H30415584   5.572   3.307   4.108 -1.5129 -2.7422  0.2784
   41MOL   H30515585   5.418   3.338   4.187 -0.8335  2.0845 -0.0838
   41MOL   C30615586   5.599   3.631   4.520 -0.4046  0.3380 -0.0787
   41MOL   C30715587   5.749   3.679   4.538  0.3311  0.5629 -0.4320
   41MOL   C30815588   5.814   3.706   4.404  0.6557 -0.5681 -0.4393
   41MOL   O30915589   5.829   3.614   4.326  0.2713 -0.1706 -0.0319
   41MOL   N31015590   5.830   3.832   4.374 -0.1691  0.3526 -0.0474
   41MOL   C31115591   5.879   3.892   4.247 -0.0992 -0.0540 -0.0241
   41MOL   C31215592   5.764   3.943   4.167  0.1855 -0.4530  0.3109
   41MOL   C31315593   5.984   4.006   4.269  0.4589  1.3257 -0.1229
   41MOL   H31415594   5.561   3.628   4.622 -0.6266  0.5570 -0.1561
   41MOL   H31515595   5.605   3.529   4.481  2.0398  1.5023 -2.9553
   41MOL   H31615596   5.755   3.772   4.595  0.6636 -1.0127  2.1846
   41MOL   H31715597   5.800   3.904   4.437  0.8006  1.6749 -1.0525
   41MOL   H31815598   5.927   3.819   4.183 -1.3169 -2.7454  2.0641
   41MOL   H31915599   5.802   3.986   4.074  2.4180 -0.6374  1.1064
   41MOL   H32015600   5.715   4.025   4.221  0.0625 -0.6913  0.5599
   41MOL   H32115601   5.692   3.864   4.146 -0.0501  0.2331 -1.5733
   41MOL   H32215602   6.034   4.029   4.176  1.1909  0.7761  0.1272
   41MOL   H32315603   6.061   3.977   4.341 -1.6087 -1.9627  0.9267
   41MOL   H32415604   5.941   4.101   4.300  3.1013  2.5482 -0.1180
   41MOL   C32515605   5.832   3.568   4.615 -0.2749 -0.2387  0.0155
   41MOL   C32615606   5.980   3.605   4.650 -0.2528  0.0587 -0.2291
   41MOL   C32715607   5.967   3.712   4.754 -0.4144 -0.6770 -0.2716
   41MOL   O32815608   5.886   3.692   4.851 -0.8938  0.0237  0.0456
   41MOL   N32915609   6.049   3.817   4.750  0.1982 -0.6488  0.8869
   41MOL   C33015610   6.041   3.933   4.839 -0.1262 -0.1930  0.6402
   41MOL   C33115611   6.089   4.067   4.775 -0.1878 -0.2500 -0.4385
   41MOL   C33215612   6.113   3.909   4.975 -0.7576 -0.4456  0.9857
   41MOL   H33315613   5.834   3.481   4.549 -0.3077 -0.6198  0.5081
   41MOL   H33415614   5.780   3.540   4.707 -0.7853  2.3091  0.5517
   41MOL   H33515615   6.025   3.639   4.556 -0.7323  0.8098 -0.1911
   41MOL   H33615616   6.114   3.823   4.673 -1.0073 -2.8832 -0.3511
   41MOL   H33715617   5.933   3.947   4.848 -0.3751 -2.2351  1.0724
   41MOL   H33815618   6.042   4.158   4.815 -0.0141  0.1484 -1.1252
   41MOL   H33915619   6.197   4.064   4.788 -0.2982 -2.0084  0.1665
   41MOL   H34015620   6.058   4.062   4.671 -0.1720  0.2777 -0.4712
   41MOL   H34115621   6.068   3.830   5.035  1.1260 -2.0353  0.3679
   41MOL   H34215622   6.116   3.993   5.044 -0.9934 -0.4838  1.0430
   41MOL   H34315623   6.212   3.865   4.960 -1.1278 -0.3610 -2.0360
   41MOL   C34415624   6.056   3.488   4.704 -0.4455 -0.4509  0.0465
   41MOL   C34515625   6.090   3.376   4.600 -0.2069  0.9778  0.3850
   41MOL   C34615626   6.181   3.426   4.483 -0.4489  0.3018 -0.3500
   41MOL   O34715627   6.297   3.461   4.502 -0.4296 -0.5731 -0.4324
   41MOL   N34815628   6.120   3.431   4.367  0.6612 -0.1302  0.0077
   41MOL   C34915629   6.194   3.451   4.238  0.4520 -0.8774 -0.3834
   41MOL   C35015630   6.198   3.321   4.156  0.1653 -0.0661 -0.3380
   41MOL   C35115631   6.154   3.573   4.158 -0.3068  0.1624 -0.1917
   41MOL   H35215632   6.003   3.442   4.788  0.8610 -3.6123 -0.7664
   41MOL   H35315633   6.153   3.517   4.744  0.7969 -1.5954 -2.0477
   41MOL   H35415634   5.999   3.339   4.552  1.4041 -1.5935 -0.7734
   41MOL   H35515635   6.021   3.413   4.372  1.0570 -1.9820  1.8092
   41MOL   H35615636   6.297   3.472   4.266 -0.7019  0.9820  2.6952
   41MOL   H35715637   6.097   3.291   4.127  0.1878 -1.3947  0.9337
   41MOL   H35815638   6.256   3.331   4.064  0.2944 -3.1173 -0.6471
   41MOL   H35915639   6.240   3.243   4.219 -0.9245  0.0379  0.5313
   41MOL   H36015640   6.167   3.664   4.217 -1.3359 -0.2784  0.7132
   41MOL   H36115641   6.221   3.584   4.073 -0.0733 -0.3613 -0.0726
   41MOL   H36215642   6.050   3.576   4.127 -0.4644  2.8559  0.3968
   41MOL   C36315643   6.150   3.249   4.673 -0.3650 -0.0462 -0.3992
   41MOL   C36415644   6.290   3.267   4.743 -0.3277 -0.4785  0.3828
   41MOL   C36515645   6.343   3.130   4.799  0.2607  0.4469  0.2812
   41MOL   O36615646   6.263   3.042   4.816  0.1311  0.1756 -0.3712
   41MOL   N36715647   6.476   3.117   4.828  0.2398  0.3877 -0.3458
   41MOL   C36815648   6.534   2.988   4.879 -0.1490 -0.7291  1.0133
   41MOL   C36915649   6.603   2.908   4.766 -0.1828 -0.1554 -0.4041
   41MOL   C37015650   6.622   3.022   4.997  0.3793  0.4208 -0.0536
   41MOL   H37115651   6.153   3.163   4.605  1.8764 -0.7321  0.5191
   41MOL   H37215652   6.080   3.224   4.753  0.7494  0.6540  0.8084
   41MOL   H37315653   6.273   3.332   4.828  0.9783 -1.6001  1.5333
   41MOL   H37415654   6.534   3.199   4.831 -0.6516  1.0251 -0.3210
   41MOL   H37515655   6.449   2.937   4.925 -1.8588  0.1214 -1.1399
   41MOL   H37615656   6.650   2.978   4.697 -0.9473  0.6646 -0.1063
   41MOL   H37715657   6.674   2.833   4.801  0.3489  0.7134  0.4232
   41MOL   H37815658   6.528   2.851   4.712 -2.2798  1.3116  0.8272
   41MOL   H37915659   6.640   2.940   5.066  0.7221 -0.3614 -1.0647
   41MOL   H38015660   6.716   3.069   4.966 -0.4170  1.3214 -1.1503
   41MOL   H38115661   6.577   3.099   5.060  0.6871 -0.0130  0.7015
   41MOL   H38215662   6.372   3.301   4.679  0.1397 -1.5250  0.4200
   42MOL     C115663   4.936   6.894   7.350 -0.0071  0.0295 -0.0554
   42MOL     C215664   4.944   6.829   7.482  0.5203 -0.2585 -0.2495
   42MOL     C315665   4.835   6.885   7.574  0.5540 -0.1880 -0.6119
   42MOL     O415666   4.724   6.882   7.527  0.1534  0.3747 -0.2302
   42MOL     N515667   4.865   6.961   7.686  0.0258  0.2861  0.2233
   42MOL     C615668   4.767   7.038   7.766 -0.0382 -0.2490  0.5585
   42MOL     C715669   4.849   7.085   0.053  0.4598 -0.5374  0.2259
   42MOL     C815670   4.734   7.157   7.678 -0.2523  0.0629 -0.2350
   42MOL     H915671   4.841   6.880   7.298 -1.1278  1.3217  1.6178
   42MOL    H1015672   5.015   6.849   7.289 -0.5041  2.1404 -2.3416
   42MOL    H1115673   5.035   6.867   7.528 -1.6441  1.2743  2.9412
   42MOL    H1215674   4.959   6.977   7.719  0.2538 -2.2475  0.9563
   42MOL    H1315675   4.684   6.970   7.783  0.1938 -1.3409 -2.3253
   42MOL    H1415676   4.899   7.003   0.105 -1.3439 -1.1962  0.9432
   42MOL    H1515677   4.781   7.143   0.116  0.9761  1.6252 -1.1446
   42MOL    H1615678   4.923   7.156   0.015 -0.4118 -0.2173 -0.8812
   42MOL    H1715679   4.831   7.199   7.652  0.1605 -0.7297 -0.0061
   42MOL    H1815680   4.681   7.120   7.591 -1.1760  1.5847 -0.3247
   42MOL    H1915681   4.670   7.234   7.721 -1.4843 -1.4136  0.6350
   42MOL    H2015682   4.961   6.999   7.359 -0.0871  0.1431 -1.0934
   42MOL    C2115683   4.957   6.668   7.470  0.2993  0.1450  0.6557
   42MOL    C2215684   4.826   6.601   7.422 -0.1124  0.0147 -0.0673
   42MOL    C2315685   4.742   6.543   7.531 -1.0545 -0.2350  0.6610
   42MOL    O2415686   4.787   6.451   7.597  0.0892  0.4609 -0.1258
   42MOL    N2515687   4.619   6.600   7.546  1.0059  0.1340 -0.2840
   42MOL    C2615688   4.528   6.570   7.660  0.3810 -1.1097  0.3837
   42MOL    C2715689   4.405   6.491   7.622 -0.6732  0.2799  0.1909
   42MOL    C2815690   4.484   6.700   7.738 -0.0336  0.6447 -0.3647
   42MOL    H2915691   4.998   6.623   7.560 -0.2184 -0.0595  0.7921
   42MOL    H3015692   5.040   6.657   7.400 -0.0272 -2.5814  0.6237
   42MOL    H3115693   4.768   6.679   7.372 -1.5497 -1.2582 -0.4222
   42MOL    H3215694   4.615   6.688   7.496  2.6190  0.2512 -0.2417
   42MOL    H3315695   4.586   6.509   7.730 -0.4861 -2.6055 -0.1784
   42MOL    H3415696   4.327   6.551   7.575  0.0844  1.3852  0.3234
   42MOL    H3515697   4.362   6.446   7.712  1.9178  0.7299  1.7122
   42MOL    H3615698   4.429   6.410   7.554 -0.4593 -0.5542  1.2395
   42MOL    H3715699   4.411   6.687   7.819  0.8882 -2.0921  0.0662
   42MOL    H3815700   4.559   6.768   7.777  0.7604  0.1956 -1.1171
   42MOL    H3915701   4.435   6.763   7.663 -1.6995 -0.0572  0.1046
   42MOL    C4015702   4.859   6.486   7.324  0.3636  0.1423  0.6283
   42MOL    C4115703   4.739   6.400   7.280 -0.0451 -0.1734 -0.3375
   42MOL    C4215704   4.739   6.258   7.346 -0.4947 -0.3804 -0.5274
   42MOL    O4315705   4.839   6.184   7.346  0.2295 -0.0377 -0.2112
   42MOL    N4415706   4.621   6.217   7.395  0.2625 -0.0461 -0.4704
   42MOL    C4515707   4.584   6.087   7.460  0.2052  0.5842 -1.0301
   42MOL    C4615708   4.606   6.093   7.613 -0.4256 -0.0454  0.2240
   42MOL    C4715709   4.439   6.048   7.425  0.2622  0.3195 -0.0547
   42MOL    H4815710   4.925   6.414   7.371 -0.2399 -0.1963  0.9646
   42MOL    H4915711   4.911   6.535   7.241  1.1797  0.5531  1.3739
   42MOL    H5015712   4.656   6.464   7.309  1.5352  0.7239  2.3919
   42MOL    H5115713   4.537   6.272   7.383  0.2431 -0.0181 -0.2090
   42MOL    H5215714   4.648   6.016   7.407 -1.0662 -0.8356 -0.7262
   42MOL    H5315715   4.546   6.014   7.657 -0.9581  0.1624 -0.1284
   42MOL    H5415716   4.565   6.189   7.643 -1.3508 -0.7886  1.4128
   42MOL    H5515717   4.709   6.084   7.648 -1.1016 -1.6911  1.8804
   42MOL    H5615718   4.433   6.033   7.317  1.8761  0.2382 -0.1413
   42MOL    H5715719   4.379   6.133   7.458  1.1567  0.0144  2.4075
   42MOL    H5815720   4.412   5.962   7.485  1.7033 -0.0983  0.0188
   42MOL    C5915721   4.736   6.387   7.127  0.2309  0.0617  0.2381
   42MOL    C6015722   4.617   6.314   7.055 -0.2685 -0.4780  0.2255
   42MOL    C6115723   4.486   6.369   7.112  0.1303  0.4843  0.1187
   42MOL    O6215724   4.423   6.310   7.200  0.0104 -0.0432 -0.5818
   42MOL    N6315725   4.450   6.490   7.068  0.9462  0.1047 -0.6655
   42MOL    C6415726   4.346   6.570   7.132 -0.0029 -0.1622  0.6058
   42MOL    C6515727   4.391   6.603   7.274 -0.3124  0.6563 -0.1233
   42MOL    C6615728   4.334   6.702   7.053 -0.3684  0.1662 -1.0319
   42MOL    H6715729   4.731   6.490   7.092 -2.6011  0.0195  0.4072
   42MOL    H6815730   4.831   6.356   7.083  0.1307  1.2244 -0.8509
   42MOL    H6915731   4.610   6.342   6.950 -0.3343 -3.9223 -0.7355
   42MOL    H7015732   4.526   6.535   7.019  1.0182 -0.2205 -0.8513
   42MOL    H7115733   4.256   6.508   7.138  1.0838 -2.2809 -3.3187
   42MOL    H7215734   4.494   6.637   7.269  0.0308 -0.4439 -0.6215
   42MOL    H7315735   4.350   6.693   7.321  0.5312  0.6853  0.5688
   42MOL    H7415736   4.387   6.515   7.338  0.2699 -0.2683 -1.3377
   42MOL    H7515737   4.234   6.740   7.070 -0.1939  0.0967  0.2161
   42MOL    H7615738   4.411   6.778   7.071 -2.1838  2.0007 -0.8655
   42MOL    H7715739   4.326   6.681   6.947  0.2388 -3.0060 -0.5171
   42MOL    C7815740   4.628   6.156   7.054 -0.3292  0.4857  0.4074
   42MOL    C7915741   4.766   6.085   7.029 -0.3379 -0.5486  0.4578
   42MOL    C8015742   4.778   5.948   7.103  0.2873  0.2569 -0.2279
   42MOL    O8115743   4.733   5.846   7.051 -0.6175 -0.1078 -0.0823
   42MOL    N8215744   4.859   5.944   7.210 -0.0131  0.3566 -0.3192
   42MOL    C8315745   4.916   5.822   7.271 -0.4602  0.0048  0.7451
   42MOL    C8415746   5.055   5.799   7.214 -0.4350  0.2533  0.5294
   42MOL    C8515747   4.921   5.832   7.418 -0.0004 -0.0318  0.1550
   42MOL    H8615748   4.565   6.122   6.972  0.6508  1.2002 -0.6596
   42MOL    H8715749   4.578   6.111   7.141 -0.9010  0.4226  0.0484
   42MOL    H8815750   4.838   6.149   7.079  0.6404 -0.7481 -0.6646
   42MOL    H8915751   4.882   6.032   7.254 -0.1769  1.2818 -2.0118
   42MOL    H9015752   4.863   5.730   7.248  0.5092 -0.2325 -0.5989
   42MOL    H9115753   5.062   5.790   7.106  3.9808 -1.3216  0.8168
   42MOL    H9215754   5.133   5.867   7.247 -1.0799  1.6904 -0.8917
   42MOL    H9315755   5.088   5.701   7.251  1.6421  1.3944  1.8215
   42MOL    H9415756   4.819   5.815   7.452 -0.4821  2.3435 -0.0236
   42MOL    H9515757   4.955   5.925   7.463  2.1215 -1.1682  0.9300
   42MOL    H9615758   4.972   5.744   7.456  0.2829  0.2722  0.4708
   42MOL    C9715759   4.805   6.080   6.877  0.1531 -0.0620  0.5179
   42MOL    C9815760   4.951   6.041   6.844 -0.3062  0.3437  0.4010
   42MOL    C9915761   5.041   6.150   6.892  0.1194  0.2141  0.2992
   42MOL   O10015762   5.035   6.262   6.842 -0.3842  0.3797  0.0623
   42MOL   N10115763   5.118   6.113   6.994 -0.1731  0.0837  0.5553
   42MOL   C10215764   5.190   6.203   7.080  0.1028  0.0679 -0.4523
   42MOL   C10315765   5.114   6.231   7.203  0.8009  0.0878  0.8287
   42MOL   C10415766   5.331   6.143   7.107 -1.4443  0.5095  0.2119
   42MOL   H10515767   4.778   6.168   6.819 -1.8077 -2.0848 -1.7559
   42MOL   H10615768   4.729   6.013   6.837  0.5911 -1.3441  1.8080
   42MOL   H10715769   4.974   5.944   6.888  1.1478  1.5584  2.4283
   42MOL   H10815770   5.149   6.017   6.992  0.1078  0.1620  1.1154
   42MOL   H10915771   5.204   6.298   7.027 -2.1404 -0.5923 -2.3014
   42MOL   H11015772   5.168   6.289   7.278  1.4885  1.2777 -0.5511
   42MOL   H11115773   5.018   6.279   7.181  0.5525 -0.8371 -0.1226
   42MOL   H11215774   5.097   6.136   7.253  0.6633 -0.8229 -0.9160
   42MOL   H11315775   5.380   6.116   7.014  0.6477  4.9466 -0.1414
   42MOL   H11415776   5.322   6.063   7.181  1.2870 -0.5379 -0.5267
   42MOL   H11515777   5.401   6.214   7.151 -1.3942  0.2694  0.5228
   42MOL   C11615778   4.971   6.020   6.693  0.3083 -0.6880 -0.4337
   42MOL   C11715779   5.103   5.974   6.625 -0.7413 -0.4510 -0.7635
   42MOL   C11815780   5.157   5.848   6.699  0.1814 -0.0785  0.2969
   42MOL   O11915781   5.216   5.863   6.806  0.0390 -0.5288 -0.1854
   42MOL   N12015782   5.142   5.724   6.649  0.9140 -0.0309  0.3549
   42MOL   C12115783   5.170   5.598   6.716  0.0319 -0.3800  0.3137
   42MOL   C12215784   5.102   5.582   6.855 -0.2610 -0.1216 -0.2375
   42MOL   C12315785   5.125   5.487   6.615  0.1364 -0.2405  0.6883
   42MOL   H12415786   4.958   6.115   6.640  0.7253 -1.7670 -2.4746
   42MOL   H12515787   4.896   5.946   6.666 -1.0485 -0.7493  3.1536
   42MOL   H12615788   5.087   5.956   6.519 -0.2089 -0.9477 -0.7580
   42MOL   H12715789   5.121   5.719   6.550  0.3088 -1.3029  0.5325
   42MOL   H12815790   5.276   5.580   6.735  0.6511  1.4563 -1.2403
   42MOL   H12915791   4.994   5.590   6.846 -0.3039  2.7216  1.9052
   42MOL   H13015792   5.140   5.657   6.925 -2.4158 -0.9411  1.8737
   42MOL   H13115793   5.120   5.487   6.905 -1.0872 -0.1302  0.0425
   42MOL   H13215794   5.163   5.499   6.513 -1.8965  0.5222 -0.0167
   42MOL   H13315795   5.132   5.387   6.656  3.3283 -0.8237 -1.1077
   42MOL   H13415796   5.020   5.510   6.598  0.1872  0.5208  1.3796
   42MOL   C13515797   5.222   6.069   6.620  0.0285  0.1176 -0.6214
   42MOL   C13615798   5.198   6.193   6.529 -0.1578 -0.3393 -0.5885
   42MOL   C13715799   5.320   6.291   6.546  0.0689 -0.2683  0.8346
   42MOL   O13815800   5.414   6.279   6.466  0.1116 -1.0217  0.1073
   42MOL   N13915801   5.302   6.396   6.635  0.1327  0.6043  0.0635
   42MOL   C14015802   5.398   6.497   6.677 -0.0217 -0.4413 -0.6496
   42MOL   C14115803   5.508   6.433   6.773  0.0487  0.7201 -0.0977
   42MOL   C14215804   5.316   6.604   6.736 -0.4964 -0.0758 -0.1740
   42MOL   H14315805   5.296   6.009   6.568 -0.6545 -0.0343 -1.4351
   42MOL   H14415806   5.251   6.104   6.719  0.0853  0.0776 -0.6233
   42MOL   H14515807   5.120   6.261   6.564  2.5712  1.9775  1.2749
   42MOL   H14615808   5.213   6.390   6.682 -0.6489 -1.6880 -1.6112
   42MOL   H14715809   5.447   6.527   6.585  0.6017  0.8875  0.1044
   42MOL   H14815810   5.469   6.384   6.862 -0.0650  0.2656 -0.3977
   42MOL   H14915811   5.554   6.346   6.726  0.3949 -1.3328  3.8450
   42MOL   H15015812   5.600   6.489   6.791 -0.4654  0.8081  2.4103
   42MOL   H15115813   5.248   6.567   6.813  0.3390 -0.2380  0.4949
   42MOL   H15215814   5.257   6.655   6.660 -1.1682  1.2807  1.2265
   42MOL   H15315815   5.368   6.685   6.787  0.9750  0.0709 -1.8740
   42MOL   C15415816   5.170   6.153   6.380  0.2634  0.1607  0.5287
   42MOL   C15515817   5.159   6.267   6.274 -0.5055 -0.9031 -0.1853
   42MOL   C15615818   5.044   6.371   6.315  0.3582 -0.4211 -0.5338
   42MOL   O15715819   4.932   6.325   6.351 -0.4995 -0.1419 -0.1616
   42MOL   N15815820   5.075   6.499   6.325  0.1081 -0.6772  0.5700
   42MOL   C15915821   4.984   6.590   6.395  0.8680  0.1191  0.2132
   42MOL   C16015822   5.033   6.731   6.364  0.5749  0.2520  0.2091
   42MOL   C16115823   4.971   6.567   6.548  0.4527 -0.4697 -0.0115
   42MOL   H16215824   5.079   6.095   6.362 -0.0094  0.1560  1.9096
   42MOL   H16315825   5.242   6.080   6.342  0.4145  1.8157 -2.5065
   42MOL   H16415826   5.257   6.315   6.271 -0.2521 -1.4174 -0.2232
   42MOL   H16515827   5.172   6.526   6.314 -0.4401  1.1488 -0.0235
   42MOL   H16615828   4.883   6.586   6.354  1.2317  1.9302 -0.9698
   42MOL   H16715829   5.050   6.751   6.258 -1.2223 -1.7569 -0.5096
   42MOL   H16815830   4.958   6.798   6.408  0.4685  0.1058  0.2510
   42MOL   H16915831   5.135   6.738   6.401  0.2811 -1.9117  1.4632
   42MOL   H17015832   4.911   6.644   6.596 -0.7258 -1.6551  0.4458
   42MOL   H17115833   5.065   6.581   6.602 -0.1973 -0.0495  1.0192
   42MOL   H17215834   4.918   6.478   6.582 -0.4817 -0.5351 -1.5865
   42MOL   C17315835   5.150   6.209   6.133  0.1169 -0.8151 -0.1225
   42MOL   C17415836   5.030   6.122   6.103  0.3581  0.2995  0.5609
   42MOL   C17515837   4.958   6.166   5.970  0.2764  1.0679  0.1705
   42MOL   O17615838   5.005   6.131   5.864  0.3221 -0.2838 -0.4825
   42MOL   N17715839   4.851   6.244   5.992 -0.1015 -0.1075  0.3297
   42MOL   C17815840   4.776   6.318   5.891  0.0030 -0.4979  0.3995
   42MOL   C17915841   4.768   6.467   5.926  0.6713 -0.1059  0.5042
   42MOL   C18015842   4.637   6.258   5.887  0.1390  0.0946  0.1008
   42MOL   H18115843   5.242   6.151   6.124  1.4705  1.1180  0.8763
   42MOL   H18215844   5.162   6.285   6.056 -2.5350  0.6264  0.8019
   42MOL   H18315845   4.949   6.132   6.176 -0.6335 -1.7434 -0.2057
   42MOL   H18415846   4.822   6.257   6.088  0.1123  0.3159  0.3378
   42MOL   H18515847   4.822   6.306   5.793  0.6493  1.0581  0.4904
   42MOL   H18615848   4.686   6.482   5.997  0.7656  1.7762  0.2386
   42MOL   H18715849   4.758   6.519   5.831  1.0102 -0.3941  0.3145
   42MOL   H18815850   4.856   6.510   5.974  1.3872  0.2583 -1.1318
   42MOL   H18915851   4.598   6.226   5.984 -1.8983 -0.3810 -0.8464
   42MOL   H19015852   4.632   6.163   5.835  3.7700  0.6175 -1.3141
   42MOL   H19115853   4.567   6.326   5.838  1.5787 -0.3757 -2.7294
   42MOL   C19215854   5.067   5.967   6.106 -0.2597 -0.8568 -0.9625
   42MOL   C19315855   4.962   5.885   6.185  0.0163 -0.1892  0.6232
   42MOL   C19415856   5.025   5.760   6.245 -0.3779 -0.1981  0.3507
   42MOL   O19515857   5.076   5.763   6.356 -0.2213 -0.4360  0.6591
   42MOL   N19615858   5.033   5.645   6.172  0.8586  0.6138  0.2523
   42MOL   C19715859   5.103   5.523   6.209  0.0877 -0.2502  0.1515
   42MOL   C19815860   5.043   5.396   6.154 -0.0903  0.4047  0.0455
   42MOL   C19915861   5.255   5.534   6.193  0.4545 -0.5481  0.1456
   42MOL   H20015862   5.163   5.955   6.155 -0.9546 -1.8552  0.1920
   42MOL   H20115863   5.087   5.944   6.002 -0.1308 -0.2785 -1.0674
   42MOL   H20215864   4.937   5.956   6.264 -0.9131 -0.2526  0.3920
   42MOL   H20315865   4.984   5.643   6.084 -1.1393  0.4056  1.3458
   42MOL   H20415866   5.082   5.514   6.316  1.6897  2.0011  0.6935
   42MOL   H20515867   4.935   5.398   6.170  0.2367 -0.0858  2.5438
   42MOL   H20615868   5.084   5.308   6.202 -1.6639 -0.8634 -0.8704
   42MOL   H20715869   5.058   5.373   6.048 -1.7586 -0.0881 -0.1053
   42MOL   H20815870   5.292   5.627   6.236  1.6998 -0.9452 -0.0623
   42MOL   H20915871   5.276   5.546   6.087  0.6663  2.8903  0.5375
   42MOL   H21015872   5.312   5.452   6.236  0.1494 -0.4137  0.8143
   42MOL   C21115873   4.834   5.858   6.102 -0.1763 -0.7350  0.6149
   42MOL   C21215874   4.716   5.824   6.182 -0.9840  0.3353  0.5363
   42MOL   C21315875   4.665   5.952   6.255  0.2356 -0.0747  1.4377
   42MOL   O21415876   4.648   6.054   6.187 -0.7297 -0.1538  0.1757
   42MOL   N21515877   4.629   5.936   6.383  0.0412  0.5528  0.2544
   42MOL   C21615878   4.585   6.049   6.459  0.3852  0.1751 -0.6538
   42MOL   C21715879   4.692   6.141   6.500 -0.7056  0.1489  0.5047
   42MOL   C21815880   4.486   6.008   6.575 -0.4946 -0.1011 -0.2625
   42MOL   H21915881   4.851   5.770   6.040  3.5850  0.4846 -0.2135
   42MOL   H22015882   4.814   5.940   6.034  1.1746  0.3136  1.4550
   42MOL   H22115883   4.738   5.752   6.260  0.9351 -1.1208 -1.3003
   42MOL   H22215884   4.615   5.840   6.410  1.7726 -0.1443 -1.1896
   42MOL   H22315885   4.520   6.114   6.400  1.0515  0.9754 -0.5121
   42MOL   H22415886   4.764   6.149   6.419  0.6804  1.1143  1.8101
   42MOL   H22515887   4.666   6.241   6.535 -0.5889  0.7325 -1.0310
   42MOL   H22615888   4.747   6.102   6.586 -0.0980 -0.1118  0.0037
   42MOL   H22715889   4.423   6.097   6.584  0.7710  0.8297 -0.5124
   42MOL   H22815890   4.521   5.985   6.675 -0.4395  0.1947 -0.2129
   42MOL   H22915891   4.408   5.944   6.533 -1.3352  0.9204 -0.2796
   42MOL   C23015892   4.598   5.776   6.092 -0.0683 -0.0905 -0.0536
   42MOL   C23115893   4.561   5.629   6.114 -0.1334  0.1985  0.0299
   42MOL   C23215894   4.479   5.604   6.246  0.3579  0.5618  0.4673
   42MOL   O23315895   4.489   5.687   6.337  0.3126 -0.1522 -0.1557
   42MOL   N23415896   4.405   5.492   6.263 -0.3283  0.5706  0.2119
   42MOL   C23515897   4.339   5.449   6.386 -0.1027  0.6450  0.5549
   42MOL   C23615898   4.181   5.451   6.365 -0.5047 -0.2173  0.2500
   42MOL   C23715899   4.381   5.304   6.432  0.2720 -0.1810  0.0140
   42MOL   H23815900   4.627   5.779   5.987  0.2638 -1.9785 -0.0310
   42MOL   H23915901   4.511   5.841   6.101  0.3856  0.2800  2.0047
   42MOL   H24015902   4.660   5.582   6.114 -1.3141 -2.6807 -5.1228
   42MOL   H24115903   4.420   5.427   6.187  3.3853  0.9982  0.4730
   42MOL   H24215904   4.362   5.523   6.463  4.1214 -0.2664  0.2881
   42MOL   H24315905   4.138   5.550   6.351 -0.8209 -0.3727  0.1303
   42MOL   H24415906   4.155   5.397   6.274  1.2701 -0.1908 -0.2933
   42MOL   H24515907   4.135   5.390   6.442  2.2152 -1.0625  1.2832
   42MOL   H24615908   4.351   5.281   6.534  1.9789 -2.4394  0.0299
   42MOL   H24715909   4.490   5.298   6.430  0.2560 -0.2873 -0.5659
   42MOL   H24815910   4.345   5.227   6.364 -2.0101  1.4382 -0.6846
   42MOL   C24915911   4.485   5.577   5.987  0.0152 -0.0984  0.0068
   42MOL   C25015912   4.583   5.540   5.874 -0.4930 -0.3863 -0.1549
   42MOL   C25115913   4.510   5.539   5.739 -1.2448 -0.0832 -0.1292
   42MOL   O25215914   4.410   5.473   5.725 -0.0818 -0.2611  0.8957
   42MOL   N25315915   4.565   5.598   5.635  0.6015  0.0987  0.0293
   42MOL   C25415916   4.520   5.581   5.497 -0.3784  0.3606  0.2790
   42MOL   C25515917   4.485   5.708   5.425 -0.5856  0.0880 -0.0154
   42MOL   C25615918   4.630   5.507   5.429  0.1346 -0.2309 -0.3320
   42MOL   H25715919   4.416   5.652   5.950 -1.6554 -1.4770  0.2681
   42MOL   H25815920   4.436   5.484   6.016  0.8450 -0.4444  0.3337
   42MOL   H25915921   4.671   5.604   5.865 -0.5239 -0.1215  1.4186
   42MOL   H26015922   4.649   5.651   5.653  1.1792 -0.2923 -1.4576
   42MOL   H26115923   4.431   5.519   5.491  1.0882 -1.9118  1.2864
   42MOL   H26215924   4.395   5.747   5.470 -0.2518 -0.4635  1.1459
   42MOL   H26315925   4.563   5.784   5.422 -1.0333  0.5263 -0.6291
   42MOL   H26415926   4.454   5.695   5.321 -1.4291 -1.0526  0.3771
   42MOL   H26515927   4.731   5.527   5.465  0.2204 -0.4727 -0.4324
   42MOL   H26615928   4.605   5.402   5.444 -1.7969 -0.1233 -2.5010
   42MOL   H26715929   4.631   5.515   5.320 -1.9356 -1.0792 -0.4295
   42MOL   C26815930   4.652   5.407   5.908 -0.3165 -0.1427  0.2525
   42MOL   C26915931   4.772   5.363   5.815  0.2695  0.2536  0.5394
   42MOL   C27015932   4.880   5.469   5.804  0.0324 -0.5055  0.5198
   42MOL   O27115933   4.905   5.551   5.894 -0.6361 -0.0303  0.1169
   42MOL   N27215934   4.964   5.456   5.699  0.0908  0.2305  0.3925
   42MOL   C27315935   5.080   5.545   5.682 -0.5405  0.0890  0.0487
   42MOL   C27415936   5.204   5.519   5.777 -0.3743 -0.2017  0.1259
   42MOL   C27515937   5.114   5.549   5.538  0.5225 -0.2981  0.6063
   42MOL   H27615938   4.695   5.402   6.008  0.5525 -0.0845 -0.1069
   42MOL   H27715939   4.577   5.329   5.903  0.6102 -0.9086 -2.0360
   42MOL   H27815940   4.726   5.347   5.717 -0.7407  1.2616  0.8429
   42MOL   H27915941   4.950   5.378   5.637 -2.9934 -0.1882  1.5510
   42MOL   H28015942   5.032   5.642   5.698 -2.4301 -0.7166 -0.5490
   42MOL   H28115943   5.180   5.555   5.877 -1.3032 -1.0535  0.2119
   42MOL   H28215944   5.221   5.411   5.783 -0.4612 -0.2878 -1.0863
   42MOL   H28315945   5.295   5.552   5.727  0.4854 -2.5410  0.0724
   42MOL   H28415946   5.021   5.570   5.485 -1.1736 -2.6255  2.5383
   42MOL   H28515947   5.182   5.633   5.519 -0.3385  0.7689  2.1617
   42MOL   H28615948   5.151   5.453   5.503  1.8430  0.2607  0.4066
   42MOL   C28715949   4.832   5.229   5.862 -0.3649  0.3590  0.5767
   42MOL   C28815950   4.937   5.153   5.766 -0.0346  0.3060 -0.7558
   42MOL   C28915951   4.877   5.157   5.624 -0.1862  0.0287  0.1558
   42MOL   O29015952   4.929   5.226   5.531 -0.0603  0.0076 -0.4749
   42MOL   N29115953   4.759   5.093   5.609  0.8254  0.2824 -0.6265
   42MOL   C29215954   4.686   5.081   5.485 -0.3289  0.1716  0.3057
   42MOL   C29315955   4.764   4.990   5.383  0.1695 -0.4767 -0.6787
   42MOL   C29415956   4.555   5.015   5.514 -0.2330 -0.8778 -0.2526
   42MOL   H29515957   4.890   5.257   5.950  1.9292  1.3156 -1.1814
   42MOL   H29615958   4.751   5.160   5.884  0.1557 -0.7786 -0.9756
   42MOL   H29715959   5.026   5.215   5.759 -0.8283  1.3514 -1.7419
   42MOL   H29815960   4.718   5.059   5.695  2.9422  1.0614  0.7379
   42MOL   H29915961   4.679   5.183   5.450  0.7056  0.1399  0.0079
   42MOL   H30015962   4.859   5.037   5.355 -0.3730  0.4692 -0.9729
   42MOL   H30115963   4.799   4.895   5.421  1.5121 -0.4435 -1.7682
   42MOL   H30215964   4.707   4.971   5.292  2.2215 -0.6862 -1.9690
   42MOL   H30315965   4.510   5.070   5.596  1.8845 -1.0157  1.0300
   42MOL   H30415966   4.493   5.016   5.424  0.1271  0.8658 -0.5110
   42MOL   H30515967   4.566   4.910   5.538  0.4747 -0.7045  0.2110
   42MOL   C30615968   4.957   5.014   5.822 -0.6583 -0.0159 -0.1254
   42MOL   C30715969   5.093   4.944   5.778 -0.4908 -0.1842 -0.8407
   42MOL   C30815970   5.225   5.019   5.820  0.4808 -0.1120  0.0491
   42MOL   O30915971   5.290   5.091   5.737  0.0854 -0.3003  0.3460
   42MOL   N31015972   5.264   5.005   5.949 -0.3302  0.3741  0.3181
   42MOL   C31115973   5.386   5.058   6.002 -0.4282  0.0931 -0.0461
   42MOL   C31215974   5.356   5.160   6.123 -0.7557  0.9846  0.3538
   42MOL   C31315975   5.461   4.931   6.048 -0.6205  0.2409  0.5475
   42MOL   H31415976   4.963   5.029   5.930 -3.1739  0.3732 -0.0240
   42MOL   H31515977   4.883   4.944   5.783 -0.0906  0.2164 -1.6469
   42MOL   H31615978   5.091   4.849   5.832 -1.9406  0.9773  1.1916
   42MOL   H31715979   5.214   4.940   6.008 -2.1035  1.7475  0.3734
   42MOL   H31815980   5.444   5.117   5.931  0.1519  1.3425  1.4498
   42MOL   H31915981   5.443   5.221   6.146 -0.3708 -0.1761  2.0583
   42MOL   H32015982   5.319   5.105   6.210  0.7490  1.1581  1.1126
   42MOL   H32115983   5.281   5.231   6.088 -0.2754  0.6677 -1.3760
   42MOL   H32215984   5.392   4.857   6.088 -1.9461  0.3741 -1.4131
   42MOL   H32315985   5.530   4.961   6.127 -1.5263  1.9357  0.7180
   42MOL   H32415986   5.505   4.877   5.964 -0.3505  1.3497 -0.0366
   42MOL   C32515987   5.087   4.902   5.622  0.4682 -0.4013  0.3199
   42MOL   C32615988   5.182   4.796   5.573 -0.7778  0.0220 -0.3785
   42MOL   C32715989   5.113   4.661   5.607  0.0452 -0.1836 -0.0094
   42MOL   O32815990   5.031   4.610   5.534 -0.8162 -0.1320 -0.0930
   42MOL   N32915991   5.159   4.587   5.713  0.0839 -0.3716 -0.3011
   42MOL   C33015992   5.095   4.457   5.758 -0.1889  0.2976 -0.6479
   42MOL   C33115993   5.112   4.445   5.908  0.3740  0.2627  0.1039
   42MOL   C33215994   5.157   4.340   5.675 -0.1189  0.2244 -0.6170
   42MOL   H33315995   5.112   4.990   5.564  0.6183  0.1240  1.1812
   42MOL   H33415996   4.986   4.882   5.588 -0.4964  0.7953  2.3690
   42MOL   H33515997   5.279   4.820   5.616 -1.7574  2.3575  0.6000
   42MOL   H33615998   5.240   4.619   5.764 -0.7230 -1.8188  1.9616
   42MOL   H33715999   4.988   4.462   5.740 -0.3090 -0.6890 -0.2426
   42MOL   H33816000   5.088   4.539   5.958 -0.7874 -0.1869  0.4114
   42MOL   H33916001   5.065   4.359   5.954 -2.3429  0.8491 -1.4809
   42MOL   H34016002   5.218   4.431   5.930 -0.0535 -0.6059  1.6448
   42MOL   H34116003   5.253   4.315   5.719 -0.6558 -1.0247 -0.1243
   42MOL   H34216004   5.185   4.369   5.574 -0.1936  2.8070  0.0675
   42MOL   H34316005   5.091   4.253   5.677 -1.6577  1.3926  1.0443
   42MOL   C34416006   5.208   4.805   5.419 -0.2328 -0.4610  0.2128
   42MOL   C34516007   5.296   4.915   5.364 -0.9640  1.1884  0.0815
   42MOL   C34616008   5.441   4.909   5.412  0.2475  0.0471  0.0929
   42MOL   O34716009   5.521   4.825   5.366 -0.4617  0.0862 -0.5711
   42MOL   N34816010   5.482   5.008   5.497 -0.4546 -0.1671  0.8547
   42MOL   C34916011   5.611   5.011   5.567 -0.0453 -0.1593 -0.3395
   42MOL   C35016012   5.661   5.153   5.555 -0.2495  0.5344 -0.0753
   42MOL   C35116013   5.585   4.972   5.707 -0.1764  0.1919 -0.7734
   42MOL   H35216014   5.111   4.803   5.369  0.0876  3.3525 -0.7212
   42MOL   H35316015   5.260   4.712   5.394  1.3558 -0.2702  2.6437
   42MOL   H35416016   5.256   5.006   5.409 -2.4097  0.8755 -0.5543
   42MOL   H35516017   5.408   5.061   5.540  0.4847  1.3046  0.7141
   42MOL   H35616018   5.676   4.940   5.516 -0.3522 -0.5994 -0.1212
   42MOL   H35716019   5.743   5.161   5.625 -1.8646  1.1518  1.7822
   42MOL   H35816020   5.700   5.174   5.455  0.6425  1.1659  0.3902
   42MOL   H35916021   5.592   5.235   5.577 -0.0846  0.4065  0.9055
   42MOL   H36016022   5.672   4.920   5.747 -0.6233  0.3629  0.4364
   42MOL   H36116023   5.563   5.056   5.774  4.6849  1.6852 -0.8356
   42MOL   H36216024   5.508   4.896   5.713  0.1172 -0.0763 -0.3715
   42MOL   C36316025   5.293   4.912   5.209  0.1620 -0.5701  0.1298
   42MOL   C36416026   5.165   4.969   5.132  0.4206  0.4617  0.4570
   42MOL   C36516027   5.171   5.120   5.121 -0.5671  0.7139  0.0945
   42MOL   O36616028   5.281   5.183   5.123  0.3568 -0.2530 -0.1662
   42MOL   N36716029   5.055   5.188   5.124 -0.3242 -0.0422 -0.3429
   42MOL   C36816030   5.063   5.331   5.113  0.3455 -0.7264  0.5832
   42MOL   C36916031   4.936   5.387   5.048  0.2491 -0.8849  0.3083
   42MOL   C37016032   5.089   5.399   5.246 -0.2523  0.9895 -0.5935
   42MOL   H37116033   5.313   4.809   5.180 -1.6433 -0.4663 -1.6477
   42MOL   H37216034   5.381   4.966   5.175 -0.9824 -0.1595 -2.3076
   42MOL   H37316035   5.083   4.948   5.201  1.4893 -0.7973  1.3730
   42MOL   H37416036   4.967   5.139   5.131 -0.7578  1.0726  2.7352
   42MOL   H37516037   5.137   5.353   5.037  1.0462  0.5346  1.5994
   42MOL   H37616038   4.940   5.496   5.048 -2.9962 -0.7273 -0.8840
   42MOL   H37716039   4.925   5.343   4.949 -2.2391 -0.5103  0.3928
   42MOL   H37816040   4.847   5.356   5.103  0.5421 -2.1632  0.0860
   42MOL   H37916041   5.090   5.507   5.239 -0.2643  1.0271 -0.0144
   42MOL   H38016042   5.011   5.368   5.315 -0.6146 -1.6134 -2.0774
   42MOL   H38116043   5.175   5.367   5.305 -1.4537  2.6811  2.1792
   42MOL   H38216044   5.152   4.914   5.039  3.7090 -1.1275  0.8400
   43MOL     C116045   6.178   5.580   0.544  0.5454 -0.0593  0.1571
   43MOL     C216046   6.292   5.579   0.643  0.2271 -0.1479  0.7891
   43MOL     C316047   6.292   5.708   0.726  1.0748 -0.8715 -0.4190
   43MOL     O416048   6.220   5.708   0.826 -0.3163 -0.2488  0.6643
   43MOL     N516049   6.377   5.802   0.685 -0.2187 -0.2556  0.4561
   43MOL     C616050   6.418   5.920   0.761 -0.1446  0.1466  0.3795
   43MOL     C716051   6.570   5.928   0.778 -0.1201 -0.2656 -1.2560
   43MOL     C816052   6.352   6.045   0.700  0.1468  0.1228  0.7984
   43MOL     H916053   6.142   5.681   0.525 -0.2889 -0.4911 -0.5985
   43MOL    H1016054   6.094   5.526   0.589  0.2870  1.2376  1.2614
   43MOL    H1116055   6.380   5.565   0.580 -0.6568 -1.0577 -0.2622
   43MOL    H1216056   6.420   5.793   0.595 -2.7368 -0.8444 -0.7400
   43MOL    H1316057   6.387   5.916   0.866  0.7323  0.1472  0.6395
   43MOL    H1416058   6.595   6.014   0.840  0.2360 -1.9062  0.9474
   43MOL    H1516059   6.622   5.925   0.682  0.0495 -1.3261 -1.1439
   43MOL    H1616060   6.589   5.833   0.828 -1.1028  0.5508  0.7042
   43MOL    H1716061   6.380   6.058   0.596  0.6843  1.5766  1.1093
   43MOL    H1816062   6.246   6.045   0.725  0.5299  0.8542  2.5406
   43MOL    H1916063   6.385   6.133   0.756  1.5742  0.4497 -0.5410
   43MOL    H2016064   6.198   5.520   0.455 -2.5993 -1.2770  0.1930
   43MOL    C2116065   6.285   5.451   0.728 -0.3993 -0.7127  0.1818
   43MOL    C2216066   6.399   5.445   0.835 -0.6230  0.3087  0.5367
   43MOL    C2316067   6.538   5.454   0.765 -0.0943  1.1206  0.2725
   43MOL    O2416068   6.555   5.418   0.647  0.4345 -0.1186 -0.2885
   43MOL    N2516069   6.641   5.488   0.846 -0.4344  0.8069 -0.0426
   43MOL    C2616070   6.778   5.495   0.812  0.3926  1.3567  0.0003
   43MOL    C2716071   6.840   5.354   0.843 -0.0309 -0.3186  0.9744
   43MOL    C2816072   6.836   5.614   0.885  0.4936 -0.0226  0.1068
   43MOL    H2916073   6.307   5.365   0.664 -2.5130  0.9160 -2.8837
   43MOL    H3016074   6.195   5.441   0.788 -0.9269  0.5674 -0.3892
   43MOL    H3116075   6.389   5.530   0.902  1.1421 -0.6407  2.0296
   43MOL    H3216076   6.616   5.494   0.944 -1.5779  1.0333 -0.3357
   43MOL    H3316077   6.781   5.515   0.705  0.6929 -3.2486 -0.9594
   43MOL    H3416078   6.762   5.281   0.823 -0.1389  0.5237 -1.8805
   43MOL    H3516079   6.859   5.357   0.950 -1.2016 -1.1678  1.2153
   43MOL    H3616080   6.928   5.334   0.781  0.3165 -1.5917  1.8522
   43MOL    H3716081   6.788   5.708   0.858  0.4396  0.5212  2.0374
   43MOL    H3816082   6.824   5.594   0.991  0.6461 -0.2916  0.0743
   43MOL    H3916083   6.941   5.629   0.858  0.3624  0.2305 -0.2750
   43MOL    C4016084   6.383   5.319   0.923 -0.0374  0.7922 -0.0994
   43MOL    C4116085   6.309   5.347   1.057 -0.3463 -0.1204 -0.0766
   43MOL    C4216086   6.400   5.446   1.143  0.1928 -0.0679 -0.1525
   43MOL    O4316087   6.522   5.440   1.143  0.5847  0.0859 -0.3112
   43MOL    N4416088   6.333   5.541   1.209 -0.5077  0.1047  0.3749
   43MOL    C4516089   6.394   5.643   1.302  1.0149 -0.3855  0.3336
   43MOL    C4616090   6.441   5.776   1.225  0.4872 -0.2984 -0.4133
   43MOL    C4716091   6.294   5.675   1.416  0.5350 -0.3256 -0.3645
   43MOL    H4816092   6.484   5.283   0.944  0.1592  0.7839 -1.0218
   43MOL    H4916093   6.340   5.242   0.858  3.2262  1.0663 -2.7048
   43MOL    H5016094   6.221   5.402   1.023 -1.0689 -0.9418  0.4471
   43MOL    H5116095   6.234   5.541   1.192 -0.3655 -0.0375 -0.4768
   43MOL    H5216096   6.479   5.591   1.346  1.3851 -0.8358 -0.8857
   43MOL    H5316097   6.369   5.832   1.166  0.2266  0.4275  0.5907
   43MOL    H5416098   6.533   5.759   1.169 -0.9013 -0.1839 -2.7757
   43MOL    H5516099   6.474   5.845   1.302  0.0489 -0.4334 -0.1047
   43MOL    H5616100   6.191   5.699   1.391  0.0679 -2.9353 -1.0362
   43MOL    H5716101   6.326   5.754   1.485 -1.7519  1.7693 -1.6401
   43MOL    H5816102   6.288   5.586   1.480  1.0826  0.4893  0.8537
   43MOL    C5916103   6.282   5.219   1.144 -0.2854 -0.2281 -0.1206
   43MOL    C6016104   6.147   5.150   1.099  0.5155 -0.1801 -0.2646
   43MOL    C6116105   6.025   5.243   1.079 -0.1159  0.1701 -0.6827
   43MOL    O6216106   5.982   5.306   1.179 -0.9811 -0.1102  0.1354
   43MOL    N6316107   5.975   5.256   0.955  0.4604  0.3116 -0.3320
   43MOL    C6416108   5.858   5.337   0.917  0.2727 -0.0979  0.4068
   43MOL    C6516109   5.835   5.336   0.763  0.0416 -0.8565 -0.9064
   43MOL    C6616110   5.727   5.295   0.995  0.0509 -0.4188 -0.6530
   43MOL    H6716111   6.366   5.149   1.138 -1.1366 -1.1790 -1.1208
   43MOL    H6816112   6.267   5.259   1.245  2.3756 -0.2721  0.3219
   43MOL    H6916113   6.166   5.100   1.004 -1.8299 -2.0263  0.2027
   43MOL    H7016114   6.021   5.209   0.878 -1.5470 -1.2913 -0.6000
   43MOL    H7116115   5.886   5.439   0.945  1.1522 -0.6089  1.4571
   43MOL    H7216116   5.929   5.369   0.719 -0.0361 -0.3809 -0.7213
   43MOL    H7316117   5.812   5.239   0.720 -0.2992 -1.7499  1.2263
   43MOL    H7416118   5.759   5.412   0.741  1.8351  1.2165 -0.1216
   43MOL    H7516119   5.743   5.328   1.097 -1.5977  0.7736 -0.7736
   43MOL    H7616120   5.646   5.350   0.948 -0.0695 -0.1758 -0.1593
   43MOL    H7716121   5.704   5.189   0.985  0.9920 -0.5834 -1.1495
   43MOL    C7816122   6.108   5.018   1.172  0.5294  0.6747  0.6385
   43MOL    C7916123   6.092   5.031   1.325  0.4762  0.1700  0.5377
   43MOL    C8016124   5.946   4.996   1.356 -0.1862 -0.0439 -0.2325
   43MOL    O8116125   5.906   4.882   1.376 -0.0619 -0.3166  0.3455
   43MOL    N8216126   5.861   5.099   1.373 -0.7306  0.2986 -0.2266
   43MOL    C8316127   5.720   5.097   1.416 -0.2883  0.1796 -0.0039
   43MOL    C8416128   5.688   5.221   1.505 -0.4586  0.3323 -0.9187
   43MOL    C8516129   5.619   5.083   1.298  0.4995 -0.3129  0.0205
   43MOL    H8616130   6.190   4.948   1.153 -0.9024 -1.1550  1.1066
   43MOL    H8716131   6.028   4.961   1.125  1.0976 -0.0090  0.4900
   43MOL    H8816132   6.095   5.137   1.350  0.9672 -0.2950  2.5033
   43MOL    H8916133   5.903   5.191   1.377 -0.1572 -0.0510  2.2851
   43MOL    H9016134   5.705   5.005   1.473 -0.4977 -0.1411 -0.5658
   43MOL    H9116135   5.590   5.262   1.482 -0.8560  0.8528  1.6205
   43MOL    H9216136   5.691   5.190   1.609  1.1164  0.2884 -0.9643
   43MOL    H9316137   5.760   5.302   1.494  0.1529 -0.3068 -1.7214
   43MOL    H9416138   5.609   5.169   1.232 -0.3249 -0.7360 -0.4216
   43MOL    H9516139   5.517   5.080   1.337 -0.0097 -0.1016 -1.2753
   43MOL    H9616140   5.620   4.988   1.245 -0.4199  0.5827 -1.6700
   43MOL    C9716141   6.175   4.937   1.403 -0.3781  0.0627 -1.3033
   43MOL    C9816142   6.172   4.945   1.561 -0.3219 -0.9761  0.2630
   43MOL    C9916143   6.209   5.086   1.590  0.9097  0.0015  0.2497
   43MOL   O10016144   6.326   5.130   1.586  0.2820  0.7571  0.5586
   43MOL   N10116145   6.106   5.160   1.633  0.3891  0.3667 -0.7153
   43MOL   C10216146   6.095   5.309   1.657 -0.2898  0.1881  0.2789
   43MOL   C10316147   6.088   5.388   1.524  0.7116  0.0190  0.2264
   43MOL   C10416148   5.976   5.339   1.756  0.2225 -0.3252  0.0328
   43MOL   H10516149   6.281   4.954   1.382 -0.7194  0.8799 -2.4247
   43MOL   H10616150   6.151   4.834   1.375 -0.1163 -0.1813 -0.6372
   43MOL   H10716151   6.069   4.928   1.593 -0.7533  0.4523 -0.3415
   43MOL   H10816152   6.024   5.103   1.641  0.6178  0.0724 -0.4919
   43MOL   H10916153   6.182   5.342   1.714 -1.6008  2.8689  0.7702
   43MOL   H11016154   6.000   5.353   1.470  0.7149 -3.6678  2.4370
   43MOL   H11116155   6.087   5.496   1.540 -0.5516  0.1251 -0.4863
   43MOL   H11216156   6.180   5.363   1.472  1.9512  0.7066  2.0314
   43MOL   H11316157   5.884   5.302   1.711  0.3966  1.7986 -2.1160
   43MOL   H11416158   5.965   5.439   1.798  2.0911 -0.1359  0.1243
   43MOL   H11516159   5.976   5.285   1.851 -0.6211 -0.2135  0.1031
   43MOL   C11616160   6.268   4.835   1.616 -0.2324  0.3913  0.5026
   43MOL   C11716161   6.271   4.797   1.769 -0.0478  0.1558 -0.6511
   43MOL   C11816162   6.350   4.903   1.855  0.6091  0.2330  0.0387
   43MOL   O11916163   6.296   4.974   1.944 -0.0050 -0.3156  0.0846
   43MOL   N12016164   6.478   4.921   1.824  0.7346 -0.1581 -0.2470
   43MOL   C12116165   6.568   5.025   1.871  0.2956  0.1702 -0.3812
   43MOL   C12216166   6.623   4.994   2.011  0.8775  0.2029  1.1612
   43MOL   C12316167   6.683   5.034   1.769  0.3449 -0.3031  0.1848
   43MOL   H12416168   6.370   4.856   1.584  0.2132 -0.8687  1.0448
   43MOL   H12516169   6.243   4.739   1.570 -0.2908  0.1617  1.0122
   43MOL   H12616170   6.169   4.804   1.807  0.8399 -1.8241  2.3531
   43MOL   H12716171   6.508   4.873   1.740 -0.1362 -2.5778  0.7849
   43MOL   H12816172   6.517   5.120   1.887 -0.9077 -0.0351 -2.8414
   43MOL   H12916173   6.696   5.072   2.026  0.5328  0.6130  0.7377
   43MOL   H13016174   6.671   4.896   2.011 -0.6164 -0.5554  2.5024
   43MOL   H13116175   6.552   4.987   2.093 -1.5524 -2.9944 -1.0525
   43MOL   H13216176   6.641   5.087   1.683  1.2719  0.8357  0.4133
   43MOL   H13316177   6.774   5.086   1.800 -1.0095  0.9089  2.2205
   43MOL   H13416178   6.709   4.934   1.734  0.5041  0.6205 -2.4643
   43MOL   C13516179   6.338   4.657   1.792 -0.5274 -0.4174  0.4530
   43MOL   C13616180   6.254   4.558   1.878  0.1409 -0.3773 -0.3557
   43MOL   C13716181   6.277   4.422   1.812  0.7321 -0.1958  0.0684
   43MOL   O13816182   6.389   4.393   1.762 -0.5129  0.0071  1.3669
   43MOL   N13916183   6.179   4.331   1.811  0.5158 -0.2237 -0.3435
   43MOL   C14016184   6.172   4.204   1.750 -0.1331 -0.0349 -0.0458
   43MOL   C14116185   6.055   4.196   1.654 -0.7963  0.3748  0.1409
   43MOL   C14216186   6.162   4.094   1.857  0.2768  0.5691  0.2338
   43MOL   H14316187   6.435   4.670   1.841  0.4609  1.8183 -1.9569
   43MOL   H14416188   6.370   4.621   1.694 -1.2922  1.8699 -0.6540
   43MOL   H14516189   6.149   4.587   1.876  0.4382  0.9722  1.7105
   43MOL   H14616190   6.103   4.348   1.875  1.7767 -1.7790  1.6290
   43MOL   H14716191   6.261   4.194   1.687  0.2867  2.3258  0.0988
   43MOL   H14816192   6.054   4.115   1.581  0.5939  0.4161  0.0602
   43MOL   H14916193   5.961   4.173   1.705 -1.0935 -0.0738 -0.6067
   43MOL   H15016194   6.041   4.286   1.594  0.4556  0.3077 -0.2613
   43MOL   H15116195   6.170   4.003   1.799 -2.1360  0.8696 -0.6374
   43MOL   H15216196   6.076   4.089   1.925 -0.5498 -1.0648 -0.8935
   43MOL   H15316197   6.248   4.116   1.919 -0.0334  2.4638  0.0415
   43MOL   C15416198   6.294   4.551   2.026 -0.1531  0.1540 -0.1765
   43MOL   C15516199   6.221   4.641   2.131 -0.4025  0.5789  0.2479
   43MOL   C15616200   6.307   4.643   2.255 -0.2258  0.2682  0.4104
   43MOL   O15716201   6.336   4.538   2.318  0.8305 -0.1881 -0.1228
   43MOL   N15816202   6.353   4.766   2.288  0.3234 -0.2330 -0.0620
   43MOL   C15916203   6.428   4.800   2.412  0.3637 -0.4890  0.7801
   43MOL   C16016204   6.354   4.759   2.549 -0.2923  0.0419  0.4428
   43MOL   C16116205   6.456   4.951   2.414  0.5132  0.1787 -0.3827
   43MOL   H16216206   6.396   4.587   2.027 -0.6438  1.5483  2.2796
   43MOL   H16316207   6.289   4.447   2.059  0.1493 -0.3139 -1.5584
   43MOL   H16416208   6.211   4.743   2.095 -0.5037  0.0810 -1.1676
   43MOL   H16516209   6.332   4.840   2.223  0.1468  1.2226  1.6207
   43MOL   H16616210   6.524   4.751   2.399 -0.9618 -2.8649 -0.4632
   43MOL   H16716211   6.418   4.788   2.632  2.7565 -3.9682 -0.3207
   43MOL   H16816212   6.257   4.806   2.562 -0.3876  1.4440 -4.5383
   43MOL   H16916213   6.350   4.650   2.551 -1.4172  0.0738  0.2293
   43MOL   H17016214   6.513   4.979   2.502  1.6907  1.3735 -1.4975
   43MOL   H17116215   6.370   5.018   2.405 -0.5748 -1.2450 -0.8529
   43MOL   H17216216   6.519   4.973   2.327 -0.6028  0.6287 -1.0949
   43MOL   C17316217   6.081   4.575   2.166  0.1685  0.2886 -0.3377
   43MOL   C17416218   5.990   4.639   2.277  0.2545  0.6935  0.0352
   43MOL   C17516219   5.966   4.786   2.241  0.4589  0.1679  0.2423
   43MOL   O17616220   6.029   4.877   2.302 -1.0396 -0.2043 -0.2615
   43MOL   N17716221   5.871   4.811   2.149 -0.1545 -0.2043 -0.6795
   43MOL   C17816222   5.842   4.949   2.101  0.1452  1.0949  0.5096
   43MOL   C17916223   5.700   4.945   2.015 -0.4624 -0.4337 -0.4924
   43MOL   C18016224   5.963   5.006   2.026 -0.2107 -0.0864 -0.2446
   43MOL   H18116225   6.106   4.478   2.209  0.3247  0.0382 -0.9819
   43MOL   H18216226   6.035   4.560   2.068  0.5944 -0.3601 -0.4474
   43MOL   H18316227   6.056   4.633   2.363 -0.4644 -1.2765  0.4818
   43MOL   H18416228   5.829   4.730   2.105 -0.8967  0.7724 -1.7948
   43MOL   H18516229   5.828   5.008   2.192 -1.6688  0.7453  0.4811
   43MOL   H18616230   5.696   5.038   1.958  2.3016  0.7914  1.1782
   43MOL   H18716231   5.616   4.922   2.080  0.1678 -1.1374  0.0791
   43MOL   H18816232   5.705   4.870   1.936 -0.0495 -0.4421 -0.4633
   43MOL   H18916233   5.984   4.937   1.944  1.6870 -0.5752  0.6443
   43MOL   H19016234   6.060   5.011   2.075  0.3280  1.4863 -1.4171
   43MOL   H19116235   5.937   5.097   1.972 -1.4392 -0.1678  0.1891
   43MOL   C19216236   5.867   4.553   2.319 -0.6776 -0.4042 -0.0390
   43MOL   C19316237   5.760   4.608   2.418  0.8635 -0.2880  0.1618
   43MOL   C19416238   5.821   4.626   2.557  1.3453 -0.9075 -0.5808
   43MOL   O19516239   5.839   4.524   2.627  0.0136 -0.2158 -0.0125
   43MOL   N19616240   5.848   4.745   2.593 -0.2964 -0.3117 -0.3982
   43MOL   C19716241   5.904   4.793   2.720  0.8336 -0.0427 -0.4697
   43MOL   C19816242   5.935   4.942   2.706 -0.3582  0.4427  0.9688
   43MOL   C19916243   5.808   4.773   2.840 -0.2233  0.0854 -0.0842
   43MOL   H20016244   5.903   4.463   2.369  0.3447  0.5518  0.9656
   43MOL   H20116245   5.824   4.522   2.223  0.1254  4.5757 -2.1800
   43MOL   H20216246   5.724   4.701   2.374 -1.2935 -0.0949  2.2254
   43MOL   H20316247   5.831   4.817   2.524  0.0931  0.3540  0.1952
   43MOL   H20416248   5.996   4.737   2.738  0.3235 -0.4432  1.0179
   43MOL   H20516249   5.988   4.993   2.787  1.2116 -0.0571  0.2606
   43MOL   H20616250   5.843   4.996   2.683 -1.4384 -1.7296  0.0194
   43MOL   H20716251   5.997   4.963   2.619 -0.4753  2.7128  1.4036
   43MOL   H20816252   5.721   4.837   2.845  0.9452  1.6595  0.3710
   43MOL   H20916253   5.866   4.790   2.931 -0.6003  0.6206  0.0565
   43MOL   H21016254   5.771   4.672   2.862 -1.8818  0.1778 -2.2839
   43MOL   C21116255   5.645   4.507   2.419  0.0168  0.1550  0.3304
   43MOL   C21216256   5.518   4.561   2.489  0.6184 -0.1236 -0.4133
   43MOL   C21316257   5.467   4.704   2.455  0.3773  0.3795  0.4469
   43MOL   O21416258   5.401   4.726   2.352 -0.1099  0.4699  0.3052
   43MOL   N21516259   5.493   4.807   2.540 -0.1952 -0.3419  0.1596
   43MOL   C21616260   5.494   4.945   2.508  0.1248  0.3961 -0.4722
   43MOL   C21716261   5.615   4.997   2.428  0.5484 -0.1872 -0.6400
   43MOL   C21816262   5.466   5.025   2.639 -0.4402 -0.5677 -0.0417
   43MOL   H21916263   5.681   4.410   2.453  1.1336  0.6089  0.4657
   43MOL   H22016264   5.619   4.499   2.314 -1.8014  0.7081  0.7201
   43MOL   H22116265   5.532   4.556   2.597 -0.8302 -0.3780 -0.2237
   43MOL   H22216266   5.527   4.781   2.632 -0.5964  0.2407  0.4757
   43MOL   H22316267   5.406   4.958   2.445  0.1869 -2.9428 -1.3444
   43MOL   H22416268   5.623   4.948   2.331 -1.4089 -2.9354  0.5443
   43MOL   H22516269   5.599   5.102   2.404  0.5656 -0.3137 -1.2246
   43MOL   H22616270   5.709   4.979   2.480  0.0134  1.0025  0.7926
   43MOL   H22716271   5.397   4.980   2.711  0.7039 -1.0116  0.7815
   43MOL   H22816272   5.429   5.126   2.622  3.3323  1.1203  1.2981
   43MOL   H22916273   5.556   5.022   2.700 -0.9904 -2.6687  0.6963
   43MOL   C23016274   5.401   4.459   2.456 -0.3882  0.3238  0.4069
   43MOL   C23116275   5.266   4.485   2.532 -0.4680  0.1030  0.3733
   43MOL   C23216276   5.147   4.425   2.466 -1.0116  0.6610  0.3304
   43MOL   O23316277   5.096   4.326   2.511 -0.0716  0.0046 -0.2481
   43MOL   N23416278   5.107   4.481   2.355 -0.0665 -0.1313 -0.0079
   43MOL   C23516279   4.983   4.471   2.281 -0.1284  0.5294 -0.2906
   43MOL   C23616280   4.870   4.545   2.360  0.0736  0.3116  0.3403
   43MOL   C23716281   5.014   4.525   2.140 -0.4770  0.1361  0.0769
   43MOL   H23816282   5.437   4.359   2.481  0.3048  0.3551 -0.4381
   43MOL   H23916283   5.381   4.445   2.349  0.2819  0.3624  0.2758
   43MOL   H24016284   5.243   4.591   2.521  2.0483  0.5407 -1.2704
   43MOL   H24116285   5.165   4.558   2.322 -0.2811 -0.0987 -0.3126
   43MOL   H24216286   4.950   4.367   2.278  2.8142 -0.4306 -0.9775
   43MOL   H24316287   4.844   4.484   2.446  0.1321 -1.4260 -0.8376
   43MOL   H24416288   4.906   4.644   2.388 -0.0878  0.2839  0.6473
   43MOL   H24516289   4.790   4.572   2.291  1.4731  0.1819 -1.3647
   43MOL   H24616290   5.052   4.627   2.137  0.3062 -0.1850 -1.9512
   43MOL   H24716291   4.920   4.521   2.084 -0.8203  4.4199  0.2187
   43MOL   H24816292   5.088   4.464   2.087  0.6324  0.1665  1.5825
   43MOL   C24916293   5.278   4.447   2.677 -0.7993  0.1981  0.6314
   43MOL   C25016294   5.164   4.487   2.773  0.0870  0.0393  0.1416
   43MOL   C25116295   5.178   4.634   2.801  0.1739 -1.0664  0.7163
   43MOL   O25216296   5.270   4.679   2.866 -0.3471  0.5311  0.0967
   43MOL   N25316297   5.079   4.712   2.754 -0.3339  0.4126 -0.4680
   43MOL   C25416298   5.077   4.860   2.770  0.3483  0.2167  0.4624
   43MOL   C25516299   5.012   4.923   2.648  0.0419 -0.1576  0.3780
   43MOL   C25616300   5.012   4.892   2.909 -0.1043 -0.5261 -0.0051
   43MOL   H25716301   5.373   4.490   2.709  0.2339 -1.3266 -0.2965
   43MOL   H25816302   5.303   4.341   2.687 -0.4265  0.3247  1.0896
   43MOL   H25916303   5.068   4.481   2.723  0.1645  1.4400 -0.1851
   43MOL   H26016304   5.018   4.684   2.679  2.8056 -2.3242 -2.1506
   43MOL   H26116305   5.180   4.894   2.782  0.7173 -0.3132 -1.1276
   43MOL   H26216306   5.063   4.894   2.556 -0.0261 -0.8776  0.5649
   43MOL   H26316307   4.907   4.896   2.638  0.0704  0.4647 -2.1291
   43MOL   H26416308   5.021   5.031   2.657 -1.3206 -0.0652  0.7338
   43MOL   H26516309   5.080   4.863   2.989 -0.1803 -2.4850 -0.6147
   43MOL   H26616310   5.003   5.000   2.918  1.9759 -0.2169 -1.2383
   43MOL   H26716311   4.915   4.847   2.932  0.8957 -1.7771  1.8423
   43MOL   C26816312   5.161   4.397   2.897 -0.5385  0.2287  0.1783
   43MOL   C26916313   5.066   4.442   3.002  0.3754 -0.7023  0.2804
   43MOL   C27016314   4.916   4.423   2.957  0.3317 -0.6407  0.2926
   43MOL   O27116315   4.857   4.321   2.995 -0.8469 -0.4037 -0.0769
   43MOL   N27216316   4.859   4.534   2.920 -0.0546 -0.2385  0.0221
   43MOL   C27316317   4.725   4.538   2.866  1.5507  0.2551  0.0987
   43MOL   C27416318   4.620   4.610   2.957  0.2723 -0.0276  0.5678
   43MOL   C27516319   4.734   4.619   2.736 -0.2235 -0.3576  0.0733
   43MOL   H27616320   5.130   4.299   2.861 -1.6662  0.5400  0.2769
   43MOL   H27716321   5.264   4.386   2.930 -0.2271 -0.5907 -1.0533
   43MOL   H27816322   5.088   4.546   3.024 -1.5842 -0.6325  2.0814
   43MOL   H27916323   4.906   4.622   2.936  0.6556 -0.4883 -0.6237
   43MOL   H28016324   4.691   4.438   2.837  0.5187  0.7997 -0.6174
   43MOL   H28116325   4.534   4.636   2.896  0.3554 -0.2084  0.3759
   43MOL   H28216326   4.589   4.551   3.044  1.8986  0.8144  1.7428
   43MOL   H28316327   4.669   4.696   3.002  0.7469  0.1089 -0.2079
   43MOL   H28416328   4.638   4.639   2.688 -0.4005 -0.5062  0.3649
   43MOL   H28516329   4.780   4.717   2.751  0.9133 -1.0356  1.0359
   43MOL   H28616330   4.804   4.570   2.668 -0.8415  0.6967 -1.3467
   43MOL   C28716331   5.098   4.374   3.136  0.4374 -0.4226 -0.8192
   43MOL   C28816332   5.051   4.445   3.268  0.5686 -0.7086  0.4384
   43MOL   C28916333   5.155   4.514   3.355 -0.6430 -0.3381  0.3109
   43MOL   O29016334   5.177   4.485   3.469  0.5139  0.0056 -0.1116
   43MOL   N29116335   5.227   4.601   3.287  0.0512 -0.2422 -0.2599
   43MOL   C29216336   5.340   4.685   3.335  0.1480  0.4531 -0.0984
   43MOL   C29316337   5.472   4.616   3.305 -0.8494  0.5956 -0.2532
   43MOL   C29416338   5.332   4.823   3.270  0.5346  0.5136 -0.3648
   43MOL   H29516339   5.072   4.268   3.129  1.8802 -0.7253 -2.0684
   43MOL   H29616340   5.207   4.370   3.140  0.4584  0.3984 -0.5120
   43MOL   H29716341   4.992   4.525   3.223  1.4269 -1.1609 -1.5421
   43MOL   H29816342   5.212   4.601   3.187 -1.3922 -2.0142 -0.0786
   43MOL   H29916343   5.330   4.707   3.441 -0.8504  0.4080 -0.1806
   43MOL   H30016344   5.487   4.581   3.203 -1.1291  2.6632 -1.0348
   43MOL   H30116345   5.551   4.687   3.332  0.9862 -1.5599  0.1419
   43MOL   H30216346   5.471   4.524   3.364 -2.9258 -1.0021 -2.6997
   43MOL   H30316347   5.334   4.818   3.161 -1.2070 -0.0407 -0.3795
   43MOL   H30416348   5.250   4.877   3.316  0.0545 -1.7841  1.5730
   43MOL   H30516349   5.425   4.867   3.307  1.2547 -0.1112 -1.3822
   43MOL   C30616350   4.949   4.356   3.347 -0.0022 -0.1449 -1.1517
   43MOL   C30716351   4.843   4.425   3.431  0.4298 -0.3215 -0.0521
   43MOL   C30816352   4.806   4.324   3.546 -0.2162 -0.0749  0.3413
   43MOL   O30916353   4.753   4.215   3.520 -0.1046  0.3445 -0.0820
   43MOL   N31016354   4.830   4.366   3.668  0.1933 -0.2187 -0.1186
   43MOL   C31116355   4.819   4.301   3.800 -0.3708 -0.9507  0.5412
   43MOL   C31216356   4.947   4.272   3.870  0.5620 -0.0600  0.4094
   43MOL   C31316357   4.723   4.397   3.882  0.4473  0.3749  0.5050
   43MOL   H31416358   4.889   4.292   3.283 -1.4011 -2.7670  2.5934
   43MOL   H31516359   5.015   4.288   3.401  0.6925 -1.6141 -3.7480
   43MOL   H31616360   4.888   4.511   3.480 -1.0547  0.1328  0.5501
   43MOL   H31716361   4.870   4.459   3.668  0.1546 -0.1532 -3.0438
   43MOL   H31816362   4.757   4.213   3.780  0.7654 -1.8209  0.8246
   43MOL   H31916363   5.028   4.341   3.847 -1.2525  2.8540  2.4088
   43MOL   H32016364   4.984   4.179   3.825 -0.5933 -0.4092  0.1767
   43MOL   H32116365   4.938   4.245   3.975 -1.6616 -1.0736 -0.0235
   43MOL   H32216366   4.747   4.503   3.890  1.1212  0.1990  0.8101
   43MOL   H32316367   4.720   4.354   3.982  1.2013  3.4898  1.9352
   43MOL   H32416368   4.627   4.383   3.833  0.9896  0.6041 -0.6734
   43MOL   C32516369   4.715   4.469   3.355  0.6627  0.4684 -0.5436
   43MOL   C32616370   4.609   4.551   3.430  0.6015  0.0299 -0.0766
   43MOL   C32716371   4.663   4.683   3.488  0.4022  0.0082  0.8173
   43MOL   O32816372   4.659   4.779   3.418 -0.0914 -0.2632  0.2632
   43MOL   N32916373   4.712   4.679   3.616  0.2526  0.0180 -0.2344
   43MOL   C33016374   4.749   4.805   3.688  0.4751 -1.0981  0.5229
   43MOL   C33116375   4.886   4.779   3.752 -0.3690 -0.1713 -0.9377
   43MOL   C33216376   4.654   4.842   3.793  0.0687  0.2139 -0.6390
   43MOL   H33316377   4.655   4.383   3.328  0.7485  0.1517  0.2583
   43MOL   H33416378   4.741   4.528   3.267  1.8886  0.1314 -0.4212
   43MOL   H33516379   4.575   4.495   3.517 -1.0592  1.1245  0.0108
   43MOL   H33616380   4.724   4.591   3.663 -2.0224 -1.3367 -2.1069
   43MOL   H33716381   4.755   4.893   3.624  1.5676 -0.7763  1.0588
   43MOL   H33816382   4.897   4.680   3.797  1.7746  0.5204  0.1211
   43MOL   H33916383   4.965   4.785   3.677  1.0579 -2.4693  0.3310
   43MOL   H34016384   4.909   4.851   3.830 -3.1881 -0.9357  0.6846
   43MOL   H34116385   4.687   4.928   3.851 -0.9089 -0.0199  0.2836
   43MOL   H34216386   4.640   4.759   3.863 -0.1518  1.3768  0.7345
   43MOL   H34316387   4.557   4.868   3.752 -1.1738  1.1123  2.6814
   43MOL   C34416388   4.483   4.574   3.344 -0.4919 -0.2656 -0.1502
   43MOL   C34516389   4.357   4.624   3.424 -0.6503  0.4582 -0.4717
   43MOL   C34616390   4.251   4.650   3.312  0.3507 -0.5791  0.0537
   43MOL   O34716391   4.251   4.755   3.245 -0.5912  0.4023 -0.0852
   43MOL   N34816392   4.161   4.551   3.295  0.1555 -0.2883 -0.3531
   43MOL   C34916393   4.049   4.553   3.197  0.1298 -0.4450 -0.0790
   43MOL   C35016394   4.002   4.409   3.192  0.2150  0.7075  0.7565
   43MOL   C35116395   3.939   4.645   3.244  0.9347 -0.3415  0.0241
   43MOL   H35216396   4.461   4.481   3.291  1.4024  0.0601 -1.5656
   43MOL   H35316397   4.503   4.645   3.264 -1.8377  1.6065  1.1478
   43MOL   H35416398   4.384   4.714   3.478  0.6753  0.7303 -1.5821
   43MOL   H35516399   4.162   4.480   3.367 -2.2109 -0.4762 -0.4477
   43MOL   H35616400   4.078   4.583   3.096  1.2637  1.3900  0.7563
   43MOL   H35716401   3.894   4.397   3.185  0.5375 -1.0366 -1.7181
   43MOL   H35816402   4.041   4.336   3.122 -3.3378 -1.0576  0.5127
   43MOL   H35916403   4.021   4.354   3.285 -3.0333 -1.6316  0.1122
   43MOL   H36016404   3.974   4.748   3.247  0.8652 -0.3347  1.0049
   43MOL   H36116405   3.850   4.645   3.181  0.4890 -0.6736  0.6458
   43MOL   H36216406   3.897   4.619   3.342  2.5352  1.3461  1.1937
   43MOL   C36316407   4.309   4.525   3.532 -0.1597  0.0325  0.3331
   43MOL   C36416408   4.308   4.376   3.492 -0.2268 -0.4754  0.4177
   43MOL   C36516409   4.209   4.285   3.572 -0.0560 -0.4412  0.4747
   43MOL   O36616410   4.184   4.310   3.690 -0.6669  0.6977 -0.4352
   43MOL   N36716411   4.149   4.191   3.503 -0.0889  0.4695 -0.2349
   43MOL   C36816412   4.048   4.100   3.553 -0.2654 -0.1846  0.7254
   43MOL   C36916413   3.934   4.091   3.442 -0.6940  0.1733 -0.3541
   43MOL   C37016414   4.106   3.959   3.580  1.0130 -0.0633 -0.6818
   43MOL   H37116415   4.208   4.558   3.558 -0.6040  0.4154 -1.7776
   43MOL   H37216416   4.374   4.530   3.620 -3.8113 -1.8706  3.2767
   43MOL   H37316417   4.407   4.334   3.506  0.0403 -0.6275 -1.7649
   43MOL   H37416418   4.167   4.179   3.404 -2.0629 -2.3776 -0.3259
   43MOL   H37516419   4.004   4.138   3.645 -1.2908 -0.5785  0.4167
   43MOL   H37616420   3.848   4.037   3.481  0.6023 -0.8844  1.1168
   43MOL   H37716421   3.897   4.189   3.413 -1.2438  0.4569  1.2688
   43MOL   H37816422   3.961   4.036   3.352 -1.7108  0.4393 -0.8216
   43MOL   H37916423   4.164   3.933   3.491  0.4798  0.8191 -1.2940
   43MOL   H38016424   4.165   3.960   3.671  1.9245 -1.3812 -1.2406
   43MOL   H38116425   4.024   3.887   3.584  0.1479  0.9694  0.6099
   43MOL   H38216426   4.294   4.365   3.384 -1.3360 -0.0861  0.5102
   44MOL     C116427   6.685   3.489   0.238  0.6798  0.8094 -0.4641
   44MOL     C216428   6.530   3.511   0.226  0.1551  0.1897  0.0639
   44MOL     C316429   6.492   3.583   0.355  0.0075 -0.3938  0.1916
   44MOL     O416430   6.481   3.705   0.354  0.2478 -0.1206  0.5514
   44MOL     N516431   6.480   3.501   0.459  0.0072 -0.6567 -0.1273
   44MOL     C616432   6.484   3.551   0.599  0.1499  0.0935  0.4467
   44MOL     C716433   6.364   3.631   0.625  0.0759  0.7763 -0.3385
   44MOL     C816434   6.499   3.428   0.685 -0.0155 -0.1691  0.1930
   44MOL     H916435   6.692   3.418   0.320 -1.3736  0.5150 -0.5254
   44MOL    H1016436   6.731   3.581   0.274  0.6960  0.3475  0.7149
   44MOL    H1116437   6.471   3.420   0.226  0.5238 -0.0510 -0.3010
   44MOL    H1216438   6.507   3.404   0.450  0.0367 -0.7092  0.5323
   44MOL    H1316439   6.573   3.614   0.601 -0.2801  0.7941 -1.1718
   44MOL    H1416440   6.355   3.719   0.562  2.6975  1.6587  0.4724
   44MOL    H1516441   6.375   3.678   0.722 -0.3006 -1.4081  0.8065
   44MOL    H1616442   6.267   3.580   0.630  1.0083 -1.0706 -0.5171
   44MOL    H1716443   6.413   3.365   0.663 -0.4213  0.5111 -0.1735
   44MOL    H1816444   6.591   3.370   0.690  0.1175 -0.1738 -2.0042
   44MOL    H1916445   6.468   3.440   0.789  0.6813  1.0249  0.2792
   44MOL    H2016446   6.733   3.453   0.148  0.4522 -0.6241 -0.0298
   44MOL    C2116447   6.500   3.581   0.090  0.1436  0.6039  0.0949
   44MOL    C2216448   6.353   3.626   0.067 -0.8943 -0.4481 -0.5125
   44MOL    C2316449   6.253   3.516   0.023  0.2087  0.4385 -0.5879
   44MOL    O2416450   6.293   3.420   7.795  0.1483 -0.1042  0.1131
   44MOL    N2516451   6.135   3.532   0.086  0.1584  0.2355  0.7759
   44MOL    C2616452   6.012   3.453   0.072 -0.5578 -0.1207 -0.1530
   44MOL    C2716453   5.883   3.532   0.100 -0.1199  0.1914  0.4737
   44MOL    C2816454   6.034   3.333   0.160  0.5743 -0.2677 -0.0520
   44MOL    H2916455   6.531   3.524   0.002 -1.1487 -1.1257  0.7413
   44MOL    H3016456   6.560   3.672   0.092 -1.8279  1.8995  3.3688
   44MOL    H3116457   6.316   3.656   0.166  0.0369 -1.7604  0.2531
   44MOL    H3216458   6.132   3.619   0.137 -1.4279  0.6218  0.0414
   44MOL    H3316459   5.999   3.421   7.805  0.9024  0.3498 -0.5007
   44MOL    H3416460   5.868   3.559   0.205 -1.5827 -0.6558  0.4989
   44MOL    H3516461   5.799   3.467   0.075 -0.0851 -0.0708  1.0156
   44MOL    H3616462   5.878   3.621   0.037 -0.8965  1.2922  2.0596
   44MOL    H3716463   6.043   3.368   0.262  0.4634 -1.0878  0.2436
   44MOL    H3816464   5.955   3.258   0.151 -1.5377  1.9333 -0.2406
   44MOL    H3916465   6.131   3.284   0.155  0.0867 -1.7045  3.2609
   44MOL    C4016466   6.355   3.754   7.818 -0.5575  0.5335 -0.5210
   44MOL    C4116467   6.338   3.885   0.068  0.6461 -0.2671 -0.0362
   44MOL    C4216468   6.193   3.894   0.126 -0.6918 -0.4853 -0.4194
   44MOL    O4316469   6.097   3.894   0.048  0.0205 -0.1278 -0.5042
   44MOL    N4416470   6.184   3.876   0.257  0.3437 -0.2430  0.5019
   44MOL    C4516471   6.062   3.858   0.337 -0.2850  0.1516 -0.3787
   44MOL    C4616472   6.058   3.718   0.406  0.1749 -0.2261  0.6461
   44MOL    C4716473   6.065   3.976   0.435 -0.7353 -0.2316  0.6173
   44MOL    H4816474   6.275   3.759   7.745 -0.8698  0.6309 -0.1718
   44MOL    H4916475   6.443   3.754   7.753 -0.7194 -0.8794 -0.7626
   44MOL    H5016476   6.398   3.871   0.158 -1.6060 -1.3735  1.3320
   44MOL    H5116477   6.277   3.884   0.297 -0.2147 -1.3275  2.0838
   44MOL    H5216478   5.974   3.867   0.273 -0.7440  1.8002  0.4487
   44MOL    H5316479   6.056   3.635   0.335  0.0822  0.5750 -0.2893
   44MOL    H5416480   5.972   3.705   0.472 -1.9887 -2.3463 -2.3960
   44MOL    H5516481   6.145   3.692   0.466  0.9597 -1.5978 -1.0230
   44MOL    H5616482   6.099   4.069   0.389  1.1197 -2.6726 -3.1974
   44MOL    H5716483   6.130   3.941   0.515  0.7672  0.6585 -0.1958
   44MOL    H5816484   5.977   3.996   0.496  2.1012  2.7797  3.9295
   44MOL    C5916485   6.387   4.007   7.827 -0.5823  0.0577  0.2787
   44MOL    C6016486   6.534   4.048   0.013 -0.2973 -0.3767  0.1546
   44MOL    C6116487   6.578   4.069   0.159 -0.1645  0.8682 -0.2912
   44MOL    O6216488   6.698   4.041   0.184 -0.2642 -0.2288 -0.3832
   44MOL    N6316489   6.493   4.119   0.251  0.0476 -0.3629  0.2523
   44MOL    C6416490   6.525   4.163   0.383  0.4665  0.5815  0.0791
   44MOL    C6516491   6.458   4.300   0.412 -0.1101  0.0358  1.1962
   44MOL    C6616492   6.481   4.062   0.493 -0.4140  0.0248  0.4489
   44MOL    H6716493   6.351   3.994   7.725 -0.4556 -2.0168  0.4827
   44MOL    H6816494   6.321   4.091   0.015 -1.1059 -0.2390 -0.1018
   44MOL    H6916495   6.592   3.960   7.821  0.5152 -0.0312  0.7163
   44MOL    H7016496   6.406   4.146   0.207  0.1920 -0.2448  0.0294
   44MOL    H7116497   6.633   4.165   0.403  0.0636  2.4734  2.3253
   44MOL    H7216498   6.490   4.366   0.331  2.0381 -2.0633  0.2754
   44MOL    H7316499   6.350   4.298   0.418 -0.1826  1.3530  0.5654
   44MOL    H7416500   6.507   4.343   0.500  1.9671  0.0588  0.0747
   44MOL    H7516501   6.521   3.964   0.469 -1.2266 -0.1752 -0.0942
   44MOL    H7616502   6.524   4.094   0.588 -0.0032  0.2245  0.1965
   44MOL    H7716503   6.373   4.064   0.510 -0.5083  1.1504 -0.2017
   44MOL    C7816504   6.569   4.163   7.748  0.2701 -0.3068 -0.4038
   44MOL    C7916505   6.722   4.189   7.731 -0.0303  0.6711  0.3986
   44MOL    C8016506   6.794   4.072   7.671  0.1951  0.3100 -0.4035
   44MOL    O8116507   6.797   4.064   7.550 -0.4602  0.5376  0.4674
   44MOL    N8216508   6.835   3.977   7.756  0.3465 -0.7958  0.0950
   44MOL    C8316509   6.877   3.835   7.735 -1.0467 -0.4486 -0.0339
   44MOL    C8416510   6.997   3.805   7.828  0.2581 -0.0480  0.4542
   44MOL    C8516511   6.765   3.730   7.757 -0.0602 -0.1341 -0.1205
   44MOL    H8616512   6.516   4.250   7.787  0.2868 -0.9939  1.1824
   44MOL    H8716513   6.526   4.141   7.650 -3.5555  1.0918  0.8611
   44MOL    H8816514   6.771   4.186   7.829  0.0549 -1.8691  0.2926
   44MOL    H8916515   6.825   4.010   0.015 -0.5725  0.7740 -0.5241
   44MOL    H9016516   6.914   3.813   7.635  0.6894  1.9479  0.0408
   44MOL    H9116517   7.075   3.881   7.818 -2.3927  2.6893 -0.0213
   44MOL    H9216518   6.960   3.808   0.094 -0.2811  0.1503  0.2584
   44MOL    H9316519   7.035   3.705   7.810  2.2928  0.3324  2.3978
   44MOL    H9416520   6.678   3.739   7.691  1.1719  2.6938 -1.4732
   44MOL    H9516521   6.729   3.731   0.023  1.6725 -1.7449  0.5157
   44MOL    H9616522   6.813   3.636   7.732  1.5945  0.0920  2.0885
   44MOL    C9716523   6.752   4.320   7.654 -0.0351  0.0698  0.0806
   44MOL    C9816524   6.733   4.444   7.742  0.3046 -0.5599  0.1275
   44MOL    C9916525   6.610   4.527   7.705 -0.2219  0.2078 -0.2788
   44MOL   O10016526   6.513   4.521   7.779  0.5090 -0.3115 -0.5515
   44MOL   N10116527   6.612   4.607   7.600 -0.2809  0.2988  0.2576
   44MOL   C10216528   6.505   4.693   7.550 -0.0862  0.5970  0.0752
   44MOL   C10316529   6.480   4.815   7.643 -0.4367 -0.5455 -0.2628
   44MOL   C10416530   6.560   4.745   7.410  0.6578  0.3914 -0.1154
   44MOL   H10516531   6.690   4.317   7.565  0.0805 -3.2051  0.0400
   44MOL   H10616532   6.851   4.317   7.609 -0.4778  0.1903 -0.9066
   44MOL   H10716533   6.714   4.412   0.008 -1.3396 -0.2875 -0.0818
   44MOL   H10816534   6.691   4.605   7.537 -0.9285 -0.9452 -0.5304
   44MOL   H10916535   6.410   4.640   7.539  0.8010 -1.7332  2.7862
   44MOL   H11016536   6.570   4.876   7.651 -0.2229 -0.8450 -0.3626
   44MOL   H11116537   6.397   4.871   7.601 -1.5971 -2.5537 -0.7120
   44MOL   H11216538   6.453   4.784   7.744  0.8293  0.1491  0.2980
   44MOL   H11316539   6.489   4.815   7.365 -0.5937 -0.9366 -0.2383
   44MOL   H11416540   6.565   4.669   7.332 -0.9588  0.9951 -0.8397
   44MOL   H11516541   6.650   4.805   7.404  1.1704 -0.2346  1.2015
   44MOL   C11616542   6.863   4.530   7.741 -0.7231  0.1073 -0.9621
   44MOL   C11716543   6.988   4.484   7.822 -0.2203  0.6533  0.2893
   44MOL   C11816544   6.972   4.496   0.142  0.1334  0.0469 -0.3390
   44MOL   O11916545   6.970   4.607   0.191  0.1965 -0.0688  0.4466
   44MOL   N12016546   6.956   4.388   0.216 -0.9837 -0.2210  0.1250
   44MOL   C12116547   6.918   4.375   0.358 -0.1531  0.2744 -0.0629
   44MOL   C12216548   7.044   4.424   0.442  0.3017  0.3101 -0.0483
   44MOL   C12316549   6.785   4.459   0.381 -0.1195  0.4158  0.0495
   44MOL   H12416550   6.842   4.628   7.783  0.7509  0.7912 -1.7706
   44MOL   H12516551   6.895   4.556   7.640  0.0213 -0.4197 -0.8663
   44MOL   H12616552   6.989   4.376   7.810  1.9162  0.3194  2.9845
   44MOL   H12716553   6.974   4.304   0.164  1.5008  0.5086 -0.2713
   44MOL   H12816554   6.908   4.267   0.367 -0.4590  0.4376  1.8933
   44MOL   H12916555   7.135   4.368   0.426  1.0906  1.7503 -0.6995
   44MOL   H13016556   7.012   4.418   0.547 -1.7525 -0.6519 -0.7086
   44MOL   H13116557   7.067   4.528   0.419  2.1604 -0.2342 -0.7147
   44MOL   H13216558   6.811   4.565   0.371  0.3329  0.2374 -0.7029
   44MOL   H13316559   6.710   4.427   0.310  0.7058  0.6299 -0.9327
   44MOL   H13416560   6.735   4.436   0.475  0.9211 -0.8478  0.3082
   44MOL   C13516561   7.107   4.569   7.771 -0.3880  0.1340  0.3726
   44MOL   C13616562   7.241   4.549   0.012 -0.3451  0.0926 -0.0436
   44MOL   C13716563   7.282   4.406   0.017 -0.0136  0.5767  0.4576
   44MOL   O13816564   7.295   4.349   7.749  0.4427  1.0588  0.3070
   44MOL   N13916565   7.277   4.339   0.134 -0.0408  0.0165 -0.0821
   44MOL   C14016566   7.307   4.197   0.140 -0.2972 -0.5247  0.2500
   44MOL   C14116567   7.177   4.119   0.150 -0.0519  0.4774 -0.9662
   44MOL   C14216568   7.408   4.177   0.257 -0.5859 -0.4249 -0.1135
   44MOL   H14316569   7.081   4.674   7.783 -1.0433 -0.0359  0.5105
   44MOL   H14416570   7.113   4.540   7.666 -0.8545 -0.2512  0.4506
   44MOL   H14516571   7.233   4.580   0.116  0.2137 -0.3890  0.1484
   44MOL   H14616572   7.290   4.381   0.225  1.1635 -2.0537  0.7374
   44MOL   H14716573   7.358   4.165   0.050  1.7857 -0.8020  1.5026
   44MOL   H14816574   7.103   4.147   0.076  1.0549 -0.6859 -2.5365
   44MOL   H14916575   7.209   4.016   0.134  2.0234  1.2606 -1.9957
   44MOL   H15016576   7.128   4.124   0.248  1.3160  2.9217 -0.3534
   44MOL   H15116577   7.427   4.070   0.264  0.1077 -0.4389 -1.8512
   44MOL   H15216578   7.390   4.233   0.349  0.9044  1.7367 -1.0914
   44MOL   H15316579   7.511   4.202   0.229 -0.4206  0.1887  1.0167
   44MOL   C15416580   7.359   4.632   7.781 -0.3668  0.2841  1.2561
   44MOL   C15516581   7.475   4.679   0.032 -0.3989  0.5483  0.2193
   44MOL   C15616582   7.559   4.790   7.794 -0.2688 -0.6208  0.2749
   44MOL   O15716583   7.590   4.898   0.013 -0.3522  0.1340 -0.1747
   44MOL   N15816584   7.579   4.764   7.661 -0.1390 -0.1845 -1.1508
   44MOL   C15916585   7.648   4.848   7.565 -0.2365 -0.9700  0.3376
   44MOL   C16016586   7.556   4.896   7.455 -0.3684 -0.3559 -0.0642
   44MOL   C16116587   7.772   4.766   7.507  0.2921  0.0400  0.0962
   44MOL   H16216588   7.306   4.717   7.739  1.2411 -0.5121 -2.6109
   44MOL   H16316589   7.400   4.576   7.697 -1.3464  0.6192  0.5401
   44MOL   H16416590   7.429   4.718   0.123 -0.9293  0.5609 -0.0515
   44MOL   H16516591   7.554   4.670   7.634 -3.0397 -0.8734  3.3134
   44MOL   H16616592   7.670   4.940   7.619  0.3334 -0.6760 -0.3926
   44MOL   H16716593   7.453   4.922   7.482  0.3595  1.4538  1.0563
   44MOL   H16816594   7.598   4.982   7.402  0.1839 -0.4486  0.2246
   44MOL   H16916595   7.537   4.813   7.386 -2.6671 -1.0602  1.3718
   44MOL   H17016596   7.736   4.671   7.469  1.1227 -0.6174  0.9086
   44MOL   H17116597   0.002   4.746   7.592  1.0383  0.6726 -0.3343
   44MOL   H17216598   7.826   4.812   7.425  0.2752 -0.4672 -0.2000
   44MOL   C17316599   7.576   4.562   0.053 -0.2311  0.4408 -0.0754
   44MOL   C17416600   7.684   4.585   0.163 -0.0983  0.7391  0.9935
   44MOL   C17516601   7.614   4.595   0.300  0.4392  0.1423  0.2408
   44MOL   O17616602   7.544   4.498   0.335 -0.4317 -0.2878  0.4615
   44MOL   N17716603   7.635   4.697   0.378  0.6141 -0.7337  0.7457
   44MOL   C17816604   7.570   4.712   0.509 -0.0754  0.3959 -0.6069
   44MOL   C17916605   7.558   4.856   0.551 -0.1377  0.2992  0.9234
   44MOL   C18016606   7.640   4.634   0.623 -0.0403  0.6388  0.0543
   44MOL   H18116607   7.628   4.540   7.797 -0.2793 -0.4999  0.1139
   44MOL   H18216608   7.530   4.467   0.083  0.4853  0.5354  1.3641
   44MOL   H18316609   7.725   4.684   0.147 -0.1696  0.7103  0.6105
   44MOL   H18416610   7.719   4.749   0.356  0.3882  0.1371  1.9646
   44MOL   H18516611   7.469   4.671   0.516 -0.3821  1.1955 -0.3436
   44MOL   H18616612   7.478   4.897   0.489  0.3933 -0.4123 -0.2544
   44MOL   H18716613   7.653   4.907   0.533 -0.5124  1.3651  1.8976
   44MOL   H18816614   7.532   4.858   0.657  1.1237 -0.0374  1.2464
   44MOL   H18916615   7.622   4.527   0.618 -0.8380  0.8041 -0.8175
   44MOL   H19016616   7.593   4.649   0.720 -1.7659 -1.9027 -0.3374
   44MOL   H19116617   7.747   4.653   0.629 -0.0480  1.2710 -1.5828
   44MOL   C19216618   7.793   4.477   0.168 -0.0025  0.0396 -0.0744
   44MOL   C19316619   0.105   4.526   0.151  0.3661 -0.8224 -0.8964
   44MOL   C19416620   0.151   4.575   0.290 -0.0465 -0.3907  0.4102
   44MOL   O19516621   0.084   4.661   0.349 -0.2388 -0.2659  0.0901
   44MOL   N19616622   0.268   4.531   0.344  0.3688 -0.5288  0.2639
   44MOL   C19716623   0.302   4.532   0.490 -0.2503  0.5975  0.6479
   44MOL   C19816624   0.323   4.378   0.526  0.5242 -0.1990  0.2287
   44MOL   C19916625   0.429   4.603   0.496 -0.6772 -1.1583 -0.1659
   44MOL   H20016626   7.771   4.402   0.093 -4.2563  1.1105 -0.0340
   44MOL   H20116627   7.785   4.418   0.260 -0.0725  0.2258  0.0394
   44MOL   H20216628   0.170   4.439   0.140  1.4146 -0.4192  1.7249
   44MOL   H20316629   0.323   4.469   0.286 -1.3017 -1.8020 -0.0076
   44MOL   H20416630   0.227   4.585   0.548 -3.0691 -0.4262 -1.9263
   44MOL   H20516631   0.221   4.339   0.536 -0.9037  3.3423  0.4682
   44MOL   H20616632   0.373   4.375   0.622  0.9857  1.7992  0.0809
   44MOL   H20716633   0.376   4.325   0.448  0.6189  0.0531  0.1206
   44MOL   H20816634   0.476   4.588   0.594  2.2869 -0.8901 -1.4934
   44MOL   H20916635   0.415   4.709   0.480  0.4505 -1.1104 -0.8915
   44MOL   H21016636   0.510   4.585   0.425 -1.9839  1.5694 -2.4016
   44MOL   C21116637   0.139   4.626   0.047 -0.0060 -0.5456  0.2468
   44MOL   C21216638   0.268   4.603   7.799 -0.4375 -0.1902  0.2650
   44MOL   C21316639   0.395   4.579   0.045  0.1784  0.2356 -0.0790
   44MOL   O21416640   0.413   4.475   0.108  0.5230 -0.2906  0.3250
   44MOL   N21516641   0.490   4.675   0.048  0.0312 -0.3585 -0.3039
   44MOL   C21616642   0.605   4.693   0.130 -0.2842 -0.6761  0.2163
   44MOL   C21716643   0.590   4.828   0.206  0.2536  0.4146 -0.6194
   44MOL   C21816644   0.730   4.712   0.037  0.1389 -0.1521 -0.2628
   44MOL   H21916645   0.151   4.725   0.091  1.1768 -0.0531 -1.1528
   44MOL   H22016646   0.055   4.639   7.816 -0.5166  0.2080  1.0264
   44MOL   H22116647   0.282   4.699   7.748 -1.5376 -0.2512 -0.1640
   44MOL   H22216648   0.458   4.760   0.002 -0.3844 -0.0715  0.5068
   44MOL   H22316649   0.624   4.608   0.196  2.8033  0.6608  1.1200
   44MOL   H22416650   0.684   4.857   0.254 -0.1725 -0.5943  0.8794
   44MOL   H22516651   0.554   4.910   0.144  1.3301 -0.1834 -2.0656
   44MOL   H22616652   0.525   4.797   0.288 -0.8874 -1.5177 -2.2182
   44MOL   H22716653   0.746   4.628   7.807  0.2289 -1.2762  1.1599
   44MOL   H22816654   0.819   4.729   0.098  0.4248 -0.9532 -0.4505
   44MOL   H22916655   0.725   4.803   7.814  0.1330  0.1745  0.2334
   44MOL   C23016656   0.232   4.504   7.691  0.6211  0.5030  0.3872
   44MOL   C23116657   0.318   4.508   7.557  0.4135 -0.6413  0.1131
   44MOL   C23216658   0.284   4.628   7.465  0.2518  0.2547 -0.2863
   44MOL   O23316659   0.289   4.739   7.514  0.6833  0.0421  0.2865
   44MOL   N23416660   0.272   4.602   7.339  0.1354 -0.3591  0.0956
   44MOL   C23516661   0.270   4.705   7.236  0.0671 -0.2264 -0.1709
   44MOL   C23616662   0.383   4.678   7.141 -0.3984 -0.8829 -0.2867
   44MOL   C23716663   0.132   4.710   7.168  0.4843 -0.2271 -0.1980
   44MOL   H23816664   0.126   4.513   7.664 -0.0654  2.7453  3.5426
   44MOL   H23916665   0.242   4.400   7.721 -0.2177 -0.1517 -1.4858
   44MOL   H24016666   0.289   4.422   7.497 -2.3796  1.9478 -2.4716
   44MOL   H24116667   0.264   4.505   7.309  1.5597 -0.5546  0.3191
   44MOL   H24216668   0.293   4.803   7.277  1.4028  0.9459 -3.5363
   44MOL   H24316669   0.472   4.715   7.192 -2.6101  0.0428  3.0499
   44MOL   H24416670   0.412   4.576   7.113  0.0577 -0.1711 -2.5460
   44MOL   H24516671   0.382   4.739   7.050  1.4410  0.5744  0.6217
   44MOL   H24616672   0.065   4.629   7.198 -2.8853  2.9244  1.2545
   44MOL   H24716673   0.149   4.719   7.061 -1.3244  0.2110 -0.4616
   44MOL   H24816674   0.086   4.801   7.207  0.8805 -1.0626  2.3099
   44MOL   C24916675   0.470   4.496   7.586  0.2526  0.2265  0.0112
   44MOL   C25016676   0.565   4.462   7.470 -1.0827  0.4092  0.0322
   44MOL   C25116677   0.532   4.322   7.408  0.5276  0.0247 -0.2120
   44MOL   O25216678   0.513   4.229   7.479 -0.1288  0.5413  0.6315
   44MOL   N25316679   0.528   4.307   7.277  0.9464  0.2593 -0.3595
   44MOL   C25416680   0.493   4.184   7.200  0.1054 -0.1700 -0.4142
   44MOL   C25516681   0.398   4.206   7.088 -0.2176 -0.6330 -0.2194
   44MOL   C25616682   0.626   4.126   7.144 -0.9462 -0.5100 -0.2150
   44MOL   H25716683   0.490   4.430   7.671  0.8282 -0.0382 -0.3238
   44MOL   H25816684   0.502   4.597   7.613  1.8022  0.1233 -1.3436
   44MOL   H25916685   0.547   4.538   7.393 -1.5578  2.0968  1.7765
   44MOL   H26016686   0.548   4.393   7.229 -0.4398 -0.3842 -2.1737
   44MOL   H26116687   0.453   4.112   7.272  3.7274 -1.8992  0.0113
   44MOL   H26216688   0.331   4.290   7.109  0.6948  0.6747 -2.3062
   44MOL   H26316689   0.452   4.253   7.006  0.3993  0.0291  0.5550
   44MOL   H26416690   0.347   4.129   7.031 -0.5846  0.1117 -0.9120
   44MOL   H26516691   0.680   4.066   7.218 -0.6605 -1.3221 -1.0728
   44MOL   H26616692   0.599   4.056   7.064 -1.2387 -1.8376  1.0085
   44MOL   H26716693   0.692   4.202   7.103 -1.6253 -1.2638 -2.8441
   44MOL   C26816694   0.718   4.469   7.522 -0.5969 -0.7386  0.3526
   44MOL   C26916695   0.817   4.504   7.411  0.0761 -0.8208  0.1745
   44MOL   C27016696   0.946   4.556   7.475 -0.0991  0.7730  0.1159
   44MOL   O27116697   1.026   4.479   7.520  0.6628  0.1074 -0.1146
   44MOL   N27216698   0.976   4.687   7.471  0.1886 -0.6954 -0.3741
   44MOL   C27316699   1.103   4.734   7.522  0.0650 -0.5894  0.3958
   44MOL   C27416700   1.214   4.744   7.412 -0.5316  0.0352  0.3470
   44MOL   C27516701   1.074   4.868   7.584  0.6090  0.5030 -0.6688
   44MOL   H27616702   0.707   4.550   7.595  1.4233  1.3686 -1.5721
   44MOL   H27716703   0.736   4.370   7.563 -0.4279 -1.3744 -1.2288
   44MOL   H27816704   0.774   4.583   7.351  0.6084  0.9093  2.0338
   44MOL   H27916705   0.932   4.759   7.415  0.6280  0.2913  0.5346
   44MOL   H28016706   1.139   4.676   7.607  0.5013  1.1083  1.3831
   44MOL   H28116707   1.172   4.797   7.326  0.9376 -0.0610 -0.4361
   44MOL   H28216708   1.305   4.799   7.433 -0.8277 -0.0673  1.9094
   44MOL   H28316709   1.239   4.644   7.376  0.5627 -0.3754  2.1846
   44MOL   H28416710   1.159   4.909   7.639 -0.3774  0.5141  0.8662
   44MOL   H28516711   1.039   4.939   7.509  1.1719  1.1567 -0.3238
   44MOL   H28616712   1.001   4.851   7.663 -0.0399  0.5016 -1.2654
   44MOL   C28716713   0.851   4.377   7.322  0.4043  0.5365  0.3934
   44MOL   C28816714   0.892   4.415   7.173 -0.0053  0.2720 -0.1992
   44MOL   C28916715   0.773   4.466   7.081  0.3108  0.7294  0.1074
   44MOL   O29016716   0.658   4.479   7.130  0.6225 -0.5646  0.6918
   44MOL   N29116717   0.804   4.514   6.964 -0.2597  0.0132  1.0094
   44MOL   C29216718   0.720   4.583   6.863 -0.2178 -0.0987 -0.9355
   44MOL   C29316719   0.667   4.718   6.909 -0.2758  0.3409  0.2912
   44MOL   C29416720   0.791   4.585   6.730  0.3764  0.5064 -0.0731
   44MOL   H29516721   0.931   4.316   7.363 -0.3119 -0.5547  0.1873
   44MOL   H29616722   0.769   4.305   7.323  0.3481  0.5776 -0.4016
   44MOL   H29716723   0.971   4.491   7.173 -0.8848  1.1934 -0.1599
   44MOL   H29816724   0.903   4.504   6.946 -0.8023 -0.2404 -2.0751
   44MOL   H29916725   0.636   4.513   6.862  0.9764 -1.5832 -0.1173
   44MOL   H30016726   0.754   4.773   6.946  0.3615 -1.1361  1.0035
   44MOL   H30116727   0.620   4.771   6.826  0.6919  0.5251 -0.1504
   44MOL   H30216728   0.580   4.722   6.975 -0.9093 -1.3796 -0.4259
   44MOL   H30316729   0.719   4.588   6.648  0.7162 -1.7572 -0.4810
   44MOL   H30416730   0.865   4.665   6.725  0.8851 -0.0561 -2.0191
   44MOL   H30516731   0.844   4.495   6.701  1.9558  2.1507 -2.5336
   44MOL   C30616732   0.969   4.291   7.118  0.0994 -0.5058 -0.0011
   44MOL   C30716733   1.121   4.305   7.095 -0.4956  0.3308 -0.2187
   44MOL   C30816734   1.137   4.398   6.973  0.0376  0.0828 -0.1284
   44MOL   O30916735   1.068   4.384   6.873 -0.7530 -0.2105 -0.5786
   44MOL   N31016736   1.226   4.502   6.987 -0.3122  0.4850  0.1265
   44MOL   C31116737   1.242   4.613   6.904 -1.0192  0.4412  0.4750
   44MOL   C31216738   1.127   4.713   6.917 -0.2175 -0.0376  0.5206
   44MOL   C31316739   1.376   4.684   6.924 -0.3213  0.4354 -0.9337
   44MOL   H31416740   0.953   4.201   7.176  0.1284 -2.4984 -2.9472
   44MOL   H31516741   0.920   4.264   7.024 -0.4995  1.6736 -0.3489
   44MOL   H31616742   1.165   4.372   7.169  0.1104  0.6288 -0.8480
   44MOL   H31716743   1.263   4.513   7.080  0.1729  0.1103 -0.0213
   44MOL   H31816744   1.248   4.573   6.803  2.5074 -0.2091  0.8786
   44MOL   H31916745   1.042   4.663   6.870 -0.1682  0.0430  0.3449
   44MOL   H32016746   1.148   4.811   6.875 -1.1562  0.7932  1.9470
   44MOL   H32116747   1.097   4.727   7.021 -0.2913  3.0963  0.1192
   44MOL   H32216748   1.456   4.612   6.913 -0.5707  0.1092 -0.6126
   44MOL   H32316749   1.400   4.737   7.016 -0.4611  0.9450 -1.1836
   44MOL   H32416750   1.397   4.756   6.845  1.1607 -0.4420 -1.3420
   44MOL   C32516751   1.201   4.175   7.099  0.0267  0.5225 -0.1463
   44MOL   C32616752   1.358   4.178   7.085 -0.0349  0.0178  0.1235
   44MOL   C32716753   1.416   4.275   7.190  0.0647  0.5272  0.6496
   44MOL   O32816754   1.428   4.395   7.168 -0.4533 -0.0676 -0.0050
   44MOL   N32916755   1.441   4.234   7.314  0.8419 -0.0513  0.0383
   44MOL   C33016756   1.504   4.313   7.411  0.0856  0.0967 -0.5035
   44MOL   C33116757   1.596   4.220   7.507 -0.3623 -0.3531 -0.4570
   44MOL   C33216758   1.394   4.383   7.499 -0.8453  0.3924 -0.2558
   44MOL   H33316759   1.160   4.104   7.027 -1.5483  0.6728  0.5715
   44MOL   H33416760   1.167   4.125   7.190 -0.4916  1.0564 -0.0441
   44MOL   H33516761   1.376   4.228   6.990  0.6437  0.9216  0.7110
   44MOL   H33616762   1.412   4.141   7.339 -1.3161  0.7250  0.4465
   44MOL   H33716763   1.571   4.383   7.361  0.2106 -0.7321 -1.5379
   44MOL   H33816764   1.673   4.158   7.460  0.9804 -1.2598  2.8496
   44MOL   H33916765   1.633   4.286   7.585 -1.6464  1.4716 -1.3457
   44MOL   H34016766   1.535   4.145   7.558  1.4332 -0.8877  0.9427
   44MOL   H34116767   1.358   4.472   7.449 -0.8149  1.2095  1.1539
   44MOL   H34216768   1.442   4.415   7.592 -0.8658  1.3220 -0.5588
   44MOL   H34316769   1.321   4.316   7.544 -0.6729  0.3914  0.0268
   44MOL   C34416770   1.424   4.035   7.094  0.6178  0.1250 -0.2219
   44MOL   C34516771   1.470   3.960   6.969 -0.0077  0.1330 -0.2704
   44MOL   C34616772   1.360   3.949   6.864  0.8374 -0.3777 -0.0228
   44MOL   O34716773   1.262   3.870   6.873 -0.4481 -0.2560 -0.2139
   44MOL   N34816774   1.382   4.030   6.758 -0.2676  0.3902 -0.0560
   44MOL   C34916775   1.303   4.045   6.635 -0.1065 -0.1843  0.4916
   44MOL   C35016776   1.192   4.153   6.637  0.2065  0.6446 -0.6369
   44MOL   C35116777   1.404   4.072   6.523 -0.0422  0.4956  0.3241
   44MOL   H35216778   1.345   3.964   7.120 -0.2597  1.0091 -0.4425
   44MOL   H35316779   1.507   4.031   7.164  1.6473  0.7166 -1.3947
   44MOL   H35416780   1.493   3.856   6.995 -1.3672 -0.4006 -1.1101
   44MOL   H35516781   1.473   4.073   6.764 -0.3900  0.6142  0.1775
   44MOL   H35616782   1.270   3.946   6.605 -0.9253  0.5502 -1.0575
   44MOL   H35716783   1.131   4.145   6.547 -0.2717  0.4349 -0.2967
   44MOL   H35816784   1.128   4.146   6.725 -0.6789  0.3944 -1.2952
   44MOL   H35916785   1.230   4.253   6.658  1.6624 -0.4444  2.1336
   44MOL   H36016786   1.471   3.988   6.503 -1.8926 -1.2773  1.5226
   44MOL   H36116787   1.355   4.090   6.428  0.7015  1.1907  0.0564
   44MOL   H36216788   1.465   4.161   6.542  0.6953  0.1930 -0.5554
   44MOL   C36316789   1.614   3.997   6.922  0.3679  0.6280 -0.3071
   44MOL   C36416790   1.679   3.885   6.831  0.0455  0.6956 -0.1948
   44MOL   C36516791   1.814   3.934   6.780  0.4558  0.0162  0.4839
   44MOL   O36616792   1.897   3.998   6.846  0.2203  0.1634  0.7223
   44MOL   N36716793   1.840   3.901   6.655  0.0237 -0.2616  0.0349
   44MOL   C36816794   1.968   3.900   6.585 -0.1822 -0.5317 -0.3293
   44MOL   C36916795   2.042   3.762   6.612 -0.0416 -0.0080 -0.0023
   44MOL   C37016796   1.934   3.931   6.435  0.5296  0.3396 -0.3888
   44MOL   H37116797   1.670   4.024   7.011  1.3514  1.3980 -1.1394
   44MOL   H37216798   1.610   4.087   6.861  4.0795  1.4863  0.6033
   44MOL   H37316799   1.613   3.873   6.745  0.4220  0.7550 -0.4945
   44MOL   H37416800   1.770   3.843   6.609  0.3466 -0.1983 -0.5384
   44MOL   H37516801   2.031   3.982   6.618  1.5652 -1.1796 -2.0000
   44MOL   H37616802   2.048   3.740   6.719  0.5691  2.2421  0.4490
   44MOL   H37716803   1.985   3.684   6.561 -0.0940  0.1529 -0.1909
   44MOL   H37816804   2.146   3.760   6.580 -0.3562  0.9736 -1.1084
   44MOL   H37916805   1.865   3.856   6.396  1.1978 -1.3430  1.6187
   44MOL   H38016806   1.893   4.031   6.418 -1.1548 -0.7878 -3.5198
   44MOL   H38116807   2.028   3.936   6.380  0.5707 -0.5095 -0.3940
   44MOL   H38216808   1.691   3.791   6.885  2.0775 -0.0385 -1.8551
   45MOL     C116809   3.663   4.202   3.694 -0.2763 -1.1416  0.7490
   45MOL     C216810   3.635   4.219   3.847 -0.2475  0.7606  0.2554
   45MOL     C316811   3.719   4.333   3.908  0.0831  0.2236 -0.0200
   45MOL     O416812   3.714   4.345   4.032 -0.1466 -0.1339  0.1730
   45MOL     N516813   3.787   4.418   3.831 -0.1040  0.4920 -0.1693
   45MOL     C616814   3.866   4.533   3.873  0.0058  0.0046  0.1307
   45MOL     C716815   4.008   4.502   3.896 -0.1937  0.3598  0.1814
   45MOL     C816816   3.847   4.638   3.768  0.4290 -0.4573 -0.0835
   45MOL     H916817   3.607   4.119   3.651 -1.2671 -0.2416  0.2858
   45MOL    H1016818   3.771   4.189   3.681  0.1995  1.2485  1.9238
   45MOL    H1116819   3.658   4.123   3.893  1.9107  0.5662 -1.1897
   45MOL    H1216820   3.800   4.386   3.736 -0.8459  0.2114 -0.1790
   45MOL    H1316821   3.816   4.562   3.966  1.5615 -2.3552  1.7602
   45MOL    H1416822   4.053   4.487   3.797  0.8461 -1.5755  0.9297
   45MOL    H1516823   4.026   4.420   3.965 -3.4072  0.2912  1.0095
   45MOL    H1616824   4.072   4.581   3.935 -1.3613  2.4602 -1.9740
   45MOL    H1716825   3.922   4.632   3.689 -1.5586 -1.1291 -1.9982
   45MOL    H1816826   3.751   4.648   3.716  0.9065 -0.5050 -0.9977
   45MOL    H1916827   3.869   4.737   3.808 -0.4715 -0.9218  1.5957
   45MOL    H2016828   3.629   4.296   3.650 -1.5202 -2.0173 -0.1919
   45MOL    C2116829   3.487   4.247   3.867 -0.1012  0.3372  0.6766
   45MOL    C2216830   3.424   4.264   4.009  0.3567  0.1151 -0.4707
   45MOL    C2316831   3.459   4.143   4.092 -0.0021 -0.4918 -0.3762
   45MOL    O2416832   3.469   4.030   4.045 -0.6055  0.0415  0.9113
   45MOL    N2516833   3.483   4.169   4.223 -0.5769 -0.2348  0.0710
   45MOL    C2616834   3.518   4.081   4.333  0.6563  0.2361 -0.3987
   45MOL    C2716835   3.402   3.986   4.360  0.7626  0.4265 -0.1908
   45MOL    C2816836   3.574   4.157   4.455 -0.0531 -0.8365  0.1938
   45MOL    H2916837   3.438   4.161   3.820 -1.3278  1.8881 -0.9282
   45MOL    H3016838   3.460   4.332   3.805  0.1608 -1.1512 -1.5476
   45MOL    H3116839   3.475   4.348   4.055  1.5158 -0.9026  0.1086
   45MOL    H3216840   3.481   4.269   4.238 -1.7604 -0.2939  0.3680
   45MOL    H3316841   3.596   4.016   4.293  0.4079  0.0187 -0.5374
   45MOL    H3416842   3.326   4.040   4.416 -1.8308 -1.0657 -2.1469
   45MOL    H3516843   3.448   3.910   4.424  3.3833  1.7566 -0.4059
   45MOL    H3616844   3.349   3.957   4.269  2.2859  2.3530 -1.7220
   45MOL    H3716845   3.620   4.087   4.524  0.8359  0.5032  0.9986
   45MOL    H3816846   3.651   4.228   4.426 -2.0569  2.0393  1.5176
   45MOL    H3916847   3.494   4.201   4.515  0.2132  0.5627 -0.4492
   45MOL    C4016848   3.268   4.280   3.991 -0.7674  0.5388 -0.0564
   45MOL    C4116849   3.206   4.355   4.113 -0.5105  0.2325 -0.4969
   45MOL    C4216850   3.056   4.382   4.092 -0.9559  0.1018  0.4176
   45MOL    O4316851   3.005   4.364   3.983 -0.4532  0.4695  0.3198
   45MOL    N4416852   2.987   4.395   4.205  0.3114 -0.6350  0.4612
   45MOL    C4516853   2.848   4.378   4.220  0.2663  0.1961  0.1002
   45MOL    C4616854   2.807   4.379   4.373  0.1359 -0.3727  0.0704
   45MOL    C4716855   2.770   4.492   4.142 -0.0255 -0.0005  0.1418
   45MOL    H4816856   3.218   4.184   3.975  2.0113 -1.1223  0.8849
   45MOL    H4916857   3.241   4.344   3.906 -0.6558 -0.2704 -0.7081
   45MOL    H5016858   3.208   4.288   4.199 -1.4099  0.1045 -0.5685
   45MOL    H5116859   3.040   4.431   4.284 -1.9434  0.4068  1.5486
   45MOL    H5216860   2.822   4.280   4.180 -0.8663  0.7817 -0.6461
   45MOL    H5316861   2.831   4.471   4.427  0.9966  0.9726 -2.4916
   45MOL    H5416862   2.856   4.296   4.423 -1.7668 -1.8132 -0.4023
   45MOL    H5516863   2.700   4.375   4.389 -0.2124  1.5161 -1.6227
   45MOL    H5616864   2.774   4.591   4.187 -2.3092 -0.1486  0.7268
   45MOL    H5716865   2.664   4.469   4.136  0.4436 -1.5441 -3.0942
   45MOL    H5816866   2.798   4.493   4.037  0.8606 -1.2494  0.3473
   45MOL    C5916867   3.276   4.495   4.145 -0.0823  0.1861  0.1614
   45MOL    C6016868   3.365   4.504   4.269  0.8461 -0.4227  0.4390
   45MOL    C6116869   3.286   4.464   4.389 -0.0755  0.2439 -0.2948
   45MOL    O6216870   3.171   4.499   4.390  0.3499 -0.2726 -0.0695
   45MOL    N6316871   3.346   4.416   4.502  0.2140  0.0822  0.2780
   45MOL    C6416872   3.287   4.412   4.636 -0.2294 -0.2286  0.1270
   45MOL    C6516873   3.184   4.294   4.640 -0.4431 -0.1506  0.1339
   45MOL    C6616874   3.394   4.386   4.749 -0.0800  0.2043 -0.2413
   45MOL    H6716875   3.333   4.532   4.060  1.2754  0.5131  1.2028
   45MOL    H6816876   3.196   4.569   4.156  1.3733  1.3744  3.1172
   45MOL    H6916877   3.454   4.445   4.247  1.1397  1.3461 -3.5298
   45MOL    H7016878   3.446   4.432   4.496 -0.0200  0.9881 -1.5418
   45MOL    H7116879   3.229   4.503   4.658 -1.3964 -0.8356 -0.3780
   45MOL    H7216880   3.121   4.292   4.551 -0.6373 -0.6181  0.2787
   45MOL    H7316881   3.229   4.195   4.639  1.1918  0.5292  2.1625
   45MOL    H7416882   3.112   4.318   4.719  1.9072  3.9848  1.1403
   45MOL    H7516883   3.457   4.299   4.733  0.9630  0.7807  0.7187
   45MOL    H7616884   3.446   4.479   4.773  0.0962  0.0804 -0.1524
   45MOL    H7716885   3.358   4.367   4.850  1.4667  0.9589  0.4729
   45MOL    C7816886   3.403   4.657   4.289  0.1035 -0.1671  0.1676
   45MOL    C7916887   3.545   4.697   4.330 -0.3287 -0.4481 -0.5612
   45MOL    C8016888   3.553   4.696   4.483  0.6750  0.3827  0.1817
   45MOL    O8116889   3.592   4.600   4.546  0.2693  0.0036  0.3306
   45MOL    N8216890   3.513   4.813   4.537 -0.0245 -0.2768  0.7915
   45MOL    C8316891   3.511   4.848   4.680  0.2868  0.4854 -0.2637
   45MOL    C8416892   3.643   4.913   4.724 -0.3281 -0.3927  0.3374
   45MOL    C8516893   3.383   4.939   4.709 -0.0097 -0.6488  0.3424
   45MOL    H8616894   3.340   4.714   4.358 -0.3372  1.1769 -1.3071
   45MOL    H8716895   3.398   4.705   4.191  1.1966  0.3109  0.3486
   45MOL    H8816896   3.555   4.796   4.286 -0.5745  0.5727  1.5866
   45MOL    H8916897   3.494   4.885   4.469 -0.2645  0.0979  1.2584
   45MOL    H9016898   3.502   4.755   4.737  0.3178  0.1307 -0.8283
   45MOL    H9116899   3.661   5.013   4.685  0.5810 -0.4710  0.5460
   45MOL    H9216900   3.650   4.913   4.832  0.0835 -0.7392  0.3104
   45MOL    H9316901   3.714   4.838   4.691 -0.6425  0.2427 -1.9061
   45MOL    H9416902   3.286   4.913   4.667  0.3455  0.1990 -1.0783
   45MOL    H9516903   3.412   5.036   4.668 -0.5059 -0.9619 -0.7524
   45MOL    H9616904   3.365   4.963   4.813 -0.5277  0.2302  0.0571
   45MOL    C9716905   3.662   4.618   4.266  0.0071 -0.2931 -0.0274
   45MOL    C9816906   3.804   4.674   4.299 -0.3010  0.2859  0.6741
   45MOL    C9916907   3.834   4.811   4.235  0.4880  0.5115  0.0460
   45MOL   O10016908   3.871   4.809   4.115 -0.0890  0.5273 -0.7618
   45MOL   N10116909   3.816   4.921   4.308  0.2111  0.1730 -0.2398
   45MOL   C10216910   3.833   5.067   4.290 -0.3755 -0.0188 -0.5744
   45MOL   C10316911   3.701   5.137   4.267 -0.3313  0.4067 -0.2293
   45MOL   C10416912   3.895   5.122   4.425 -0.0162  0.0843 -0.0570
   45MOL   H10516913   3.647   4.611   4.158  2.0564  0.1516 -0.3754
   45MOL   H10616914   3.660   4.521   4.315  1.2264  0.4701  1.5898
   45MOL   H10716915   3.808   4.690   4.407 -0.8219  1.6286  0.5027
   45MOL   H10816916   3.777   4.910   4.400  0.8039  0.8058  0.0889
   45MOL   H10916917   3.901   5.090   4.208  3.5941 -3.3694  1.5761
   45MOL   H11016918   3.635   5.136   4.354  2.9883 -1.5926  2.3488
   45MOL   H11116919   3.717   5.243   4.247 -0.8391  0.8202  1.4545
   45MOL   H11216920   3.654   5.086   4.183 -1.6677  0.4050  0.4988
   45MOL   H11316921   3.911   5.230   4.418 -0.5186  0.3954  3.1741
   45MOL   H11416922   3.990   5.081   4.456  0.6418  2.6709  1.5253
   45MOL   H11516923   3.835   5.114   4.515 -0.8277 -0.8029 -0.6592
   45MOL   C11616924   3.916   4.577   4.265 -1.0267 -0.4788 -0.1215
   45MOL   C11716925   4.049   4.589   4.348  0.4347  0.9380  0.6690
   45MOL   C11816926   4.161   4.525   4.268  0.2877  0.6693  0.3308
   45MOL   O11916927   4.162   4.400   4.256 -0.4931 -0.4106  0.4494
   45MOL   N12016928   4.254   4.598   4.208 -0.4949  0.7652  0.3003
   45MOL   C12116929   4.384   4.547   4.156 -0.1818  0.4513  0.2559
   45MOL   C12216930   4.412   4.627   4.030  0.0718  0.4470  0.1532
   45MOL   C12316931   4.486   4.560   4.262  0.7312  0.1627  0.6279
   45MOL   H12416932   3.935   4.594   4.159  1.2490 -0.1296  0.3299
   45MOL   H12516933   3.868   4.479   4.271 -0.1888 -0.7994  1.6090
   45MOL   H12616934   4.068   4.696   4.345  1.6796  0.7183 -3.4918
   45MOL   H12716935   4.247   4.696   4.230 -0.3608  0.9470 -0.4525
   45MOL   H12816936   4.379   4.441   4.129 -1.9234  0.7319 -0.6398
   45MOL   H12916937   4.336   4.608   3.955 -0.7944  1.8162  0.6610
   45MOL   H13016938   4.510   4.604   3.987  1.1922  4.6326  0.2680
   45MOL   H13116939   4.425   4.735   4.040  0.1891  0.4614 -0.1629
   45MOL   H13216940   4.451   4.636   4.333  1.1199  0.1097  0.8798
   45MOL   H13316941   4.473   4.474   4.328 -3.1694 -0.3027 -0.6356
   45MOL   H13416942   4.588   4.582   4.230  0.7501  0.5402  0.9342
   45MOL   C13516943   4.029   4.528   4.493  1.0325  0.2711 -0.1412
   45MOL   C13616944   4.098   4.601   4.616  0.1841  0.5456  0.2373
   45MOL   C13716945   4.243   4.637   4.588 -0.0633  0.0659  0.0352
   45MOL   O13816946   4.262   4.718   4.498 -0.2425 -0.7070  0.2587
   45MOL   N13916947   4.339   4.588   4.669 -0.8453 -0.3227 -0.3794
   45MOL   C14016948   4.478   4.622   4.665  0.5957 -0.7839  0.1229
   45MOL   C14116949   4.570   4.505   4.669 -0.2093 -0.1083  0.1585
   45MOL   C14216950   4.511   4.723   4.787  0.5655  0.4600 -0.3893
   45MOL   H14316951   4.063   4.424   4.500  1.1238  0.3804  1.1765
   45MOL   H14416952   3.924   4.518   4.522  2.3023  0.7826  5.1451
   45MOL   H14516953   4.110   4.528   4.697  0.6363  2.4461  1.9188
   45MOL   H14616954   4.317   4.527   4.746 -0.7510 -2.1610 -1.7900
   45MOL   H14716955   4.494   4.674   4.570  1.2882  0.4095  0.8775
   45MOL   H14816956   4.579   4.451   4.574  0.9073 -0.8607  0.6823
   45MOL   H14916957   4.674   4.525   4.696  0.3408  0.9055 -2.5457
   45MOL   H15016958   4.532   4.437   4.744 -0.0682  0.4460  0.7406
   45MOL   H15116959   4.616   4.728   4.814  0.2126 -0.2307  1.1826
   45MOL   H15216960   4.469   4.685   4.880  2.0944 -0.3010  0.0028
   45MOL   H15316961   4.477   4.826   4.776  0.1729  0.2821 -0.8809
   45MOL   C15416962   4.021   4.724   4.670 -0.2947  0.2205 -0.2997
   45MOL   C15516963   4.072   4.789   4.803 -0.4049 -0.1676 -0.0803
   45MOL   C15616964   4.059   4.688   4.919  0.2326 -0.1361  0.2489
   45MOL   O15716965   3.958   4.614   4.926  0.3532  0.0384  0.4730
   45MOL   N15816966   4.156   4.695   5.013 -0.1893  0.1793  0.1825
   45MOL   C15916967   4.165   4.615   5.137 -0.2378 -0.2049 -0.5734
   45MOL   C16016968   4.066   4.659   5.243 -0.1185 -0.3270  0.4910
   45MOL   C16116969   4.304   4.636   5.198 -0.9456  0.3540 -0.0850
   45MOL   H16216970   3.919   4.687   4.679 -0.1424 -0.3437 -0.8295
   45MOL   H16316971   4.012   4.801   4.594 -1.2790  3.2195  2.7160
   45MOL   H16416972   4.179   4.809   4.794 -0.4993  1.1805  1.5567
   45MOL   H16516973   4.227   4.766   5.000  0.7804 -0.8571 -0.3171
   45MOL   H16616974   4.144   4.509   5.123 -1.3451  0.0127 -0.5887
   45MOL   H16716975   3.964   4.666   5.205 -0.5779 -4.0819  0.8451
   45MOL   H16816976   4.069   4.608   5.340 -0.3327 -2.8376 -0.7924
   45MOL   H16916977   4.093   4.762   5.269  1.5155 -0.3259 -1.1018
   45MOL   H17016978   4.325   4.739   5.228  1.4341 -0.1371 -0.0240
   45MOL   H17116979   4.382   4.602   5.130 -1.6945  1.3679 -1.5087
   45MOL   H17216980   4.322   4.595   5.297 -1.4715  0.0406 -0.1154
   45MOL   C17316981   4.005   4.925   4.842  0.1743 -0.6078  0.3680
   45MOL   C17416982   4.102   5.047   4.840  0.4195 -0.5672 -1.3312
   45MOL   C17516983   4.185   5.056   4.968 -0.3761  0.9864  0.0032
   45MOL   O17616984   4.273   4.967   4.988  0.3098  0.3168  0.3804
   45MOL   N17716985   4.161   5.159   5.049 -0.0186  0.4250 -0.7003
   45MOL   C17816986   4.245   5.193   5.165 -0.2036 -0.0803 -1.1667
   45MOL   C17916987   4.203   5.111   5.291 -0.7148  0.5627 -0.1013
   45MOL   C18016988   4.234   5.344   5.191  0.2779  0.4561 -0.0342
   45MOL   H18116989   3.977   4.920   4.948 -1.8547  2.4006  0.0143
   45MOL   H18216990   3.913   4.947   4.789 -0.6467 -0.7524  1.7009
   45MOL   H18316991   4.032   5.130   4.845  2.6166  1.2428  0.8170
   45MOL   H18416992   4.085   5.219   5.018 -1.1101  0.5428  2.0435
   45MOL   H18516993   4.350   5.167   5.156  0.7559  2.5580  1.5846
   45MOL   H18616994   4.248   5.159   5.378  1.8773  0.3319 -1.2757
   45MOL   H18716995   4.225   5.005   5.280  0.5193  0.7592  0.3148
   45MOL   H18816996   4.097   5.115   5.314 -0.4209  1.1107  1.2421
   45MOL   H18916997   4.131   5.378   5.196  0.0066 -0.1475 -1.2184
   45MOL   H19016998   4.275   5.393   5.102  1.3363  1.2008  0.8365
   45MOL   H19116999   4.290   5.381   5.277 -2.8830  2.3090  1.2976
   45MOL   C19217000   4.176   5.076   4.711  0.2150  0.1737 -0.2113
   45MOL   C19317001   4.235   5.219   4.695  0.6264 -0.3305  0.4023
   45MOL   C19417002   4.354   5.268   4.784 -0.7176 -0.1096  0.7728
   45MOL   O19517003   4.351   5.380   4.843 -0.2965 -0.0071  0.1235
   45MOL   N19617004   4.463   5.188   4.779 -0.2122 -0.2513 -0.8167
   45MOL   C19717005   4.593   5.235   4.826  0.6683 -0.0518 -1.2376
   45MOL   C19817006   4.641   5.120   4.922 -0.3800 -0.5919 -0.1022
   45MOL   C19917007   4.699   5.261   4.715 -0.6659  0.0645  0.5976
   45MOL   H20017008   4.110   5.062   4.626  1.8479  0.0276 -1.4732
   45MOL   H20117009   4.258   5.004   4.704 -0.6555 -1.1763  2.6785
   45MOL   H20217010   4.274   5.206   4.595  0.6924  1.6124  0.1623
   45MOL   H20317011   4.466   5.116   4.709 -0.8536 -1.3737  0.2723
   45MOL   H20417012   4.578   5.317   4.897  1.5018 -0.4196 -0.6305
   45MOL   H20517013   4.653   5.023   4.873 -0.8458 -0.1813 -1.0189
   45MOL   H20617014   4.581   5.097   5.010 -1.8329  3.3935  0.0215
   45MOL   H20717015   4.734   5.161   4.962 -0.1899 -0.3782 -0.7607
   45MOL   H20817016   4.746   5.170   4.678 -3.3442 -1.0757 -0.1503
   45MOL   H20917017   4.775   5.310   4.775  0.0231 -0.0594 -0.1591
   45MOL   H21017018   4.660   5.317   4.630 -5.5645 -1.6499  1.5510
   45MOL   C21117019   4.121   5.321   4.679 -0.6662 -0.2104 -0.6496
   45MOL   C21217020   4.170   5.446   4.605  0.0793  0.2336 -0.1164
   45MOL   C21317021   4.189   5.436   4.453  0.0756 -0.8114  0.0046
   45MOL   O21417022   4.123   5.358   4.383  0.2217  0.0104  0.1765
   45MOL   N21517023   4.273   5.520   4.406 -0.0430 -0.1409  0.2668
   45MOL   C21617024   4.335   5.509   4.276 -0.2009  0.1901  0.1584
   45MOL   C21717025   4.468   5.587   4.270 -0.2675  0.1840  0.3336
   45MOL   C21817026   4.235   5.574   4.168 -0.0538 -0.2218  0.1666
   45MOL   H21917027   4.104   5.344   4.784  2.1500  1.1558 -0.4357
   45MOL   H22017028   4.030   5.286   4.630 -0.2827 -0.4466 -1.1935
   45MOL   H22117029   4.265   5.489   4.637 -0.0208  1.2383 -1.1635
   45MOL   H22217030   4.285   5.603   4.462 -1.4037  0.3348 -0.1233
   45MOL   H22317031   4.363   5.405   4.260  0.3635 -0.0699  2.6593
   45MOL   H22417032   4.505   5.588   4.168 -0.2013 -0.0353  0.3562
   45MOL   H22517033   4.461   5.686   4.315 -2.0874  0.1921  0.1016
   45MOL   H22617034   4.542   5.550   4.341 -0.3412 -0.2564  0.1863
   45MOL   H22717035   4.289   5.561   4.074 -0.2119  0.0976  0.0276
   45MOL   H22817036   4.220   5.681   4.185  2.0266  0.1769 -0.3555
   45MOL   H22917037   4.141   5.521   4.154  0.5993 -1.1011 -1.0292
   45MOL   C23017038   4.070   5.566   4.642 -0.5602 -0.3199  1.0718
   45MOL   C23117039   4.081   5.636   4.778 -0.2713 -0.7847 -0.5953
   45MOL   C23217040   4.202   5.731   4.777 -0.2852 -0.1089  0.4990
   45MOL   O23317041   4.186   5.851   4.746  0.3611  0.4030  0.8362
   45MOL   N23417042   4.319   5.672   4.797  0.2362 -0.4619  0.1746
   45MOL   C23517043   4.444   5.750   4.810 -0.6432 -0.1602 -0.7582
   45MOL   C23617044   4.551   5.637   4.829  0.0950  0.0947  0.7086
   45MOL   C23717045   4.476   5.842   4.684 -0.1391  0.1303 -0.2997
   45MOL   H23817046   3.968   5.541   4.612 -0.1306  0.2959 -0.9533
   45MOL   H23917047   4.099   5.649   4.578 -0.1876 -0.7302  0.7002
   45MOL   H24017048   4.119   5.562   4.848 -2.0320 -1.4055 -0.2704
   45MOL   H24117049   4.323   5.579   4.835  2.7138 -0.5221 -0.1432
   45MOL   H24217050   4.434   5.811   4.900  0.4878 -0.0091 -0.7358
   45MOL   H24317051   4.532   5.562   4.753 -1.2992  1.6888 -0.5520
   45MOL   H24417052   4.649   5.675   4.800  0.0890  0.5310  1.2394
   45MOL   H24517053   4.560   5.600   4.931 -1.7552  1.1294  1.2680
   45MOL   H24617054   4.538   5.778   4.621 -1.7132 -0.9842 -0.7704
   45MOL   H24717055   4.534   5.931   4.708 -0.4815  0.1170  0.5948
   45MOL   H24817056   4.386   5.882   4.638  0.1931  3.1286  1.5768
   45MOL   C24917057   3.951   5.707   4.831 -0.0242 -0.7170 -0.1580
   45MOL   C25017058   3.833   5.612   4.856  0.2332  0.8839 -0.3019
   45MOL   C25117059   3.714   5.703   4.893 -0.5718  0.0511  0.0315
   45MOL   O25217060   3.723   5.769   4.997 -0.3452  0.5038 -0.0394
   45MOL   N25317061   3.608   5.705   4.815 -1.0157  0.0418  0.5893
   45MOL   C25417062   3.480   5.767   4.825 -0.4229  0.7825 -0.2568
   45MOL   C25517063   3.479   5.890   4.725 -0.8690  0.2927  0.8677
   45MOL   C25617064   3.370   5.665   4.818 -1.0328  0.4309 -0.5437
   45MOL   H25717065   3.926   5.790   4.766  0.3729  1.2160  2.0826
   45MOL   H25817066   3.983   5.760   4.921 -1.5651 -1.8056  1.0588
   45MOL   H25917067   3.805   5.560   4.764  2.3385 -1.7698  0.4814
   45MOL   H26017068   3.616   5.652   4.730 -1.7532  1.5403 -0.4405
   45MOL   H26117069   3.475   5.820   4.920 -0.2098 -2.6998  1.7667
   45MOL   H26217070   3.498   5.858   4.622  1.9539 -2.9131  2.2832
   45MOL   H26317071   3.398   5.962   4.732 -0.2122  1.0594  0.7293
   45MOL   H26417072   3.572   5.946   4.739 -0.8633 -0.0781  2.2784
   45MOL   H26517073   3.280   5.704   4.865 -1.9874 -0.8257 -1.2830
   45MOL   H26617074   3.355   5.642   4.712 -2.7352 -2.1120  0.2084
   45MOL   H26717075   3.391   5.572   4.870  1.7860  0.8097 -0.9121
   45MOL   C26817076   3.853   5.496   4.958 -0.0374  0.5758  0.6779
   45MOL   C26917077   3.755   5.371   4.945 -0.0342 -0.1300 -0.2050
   45MOL   C27017078   3.727   5.326   4.805  0.4240 -0.1901  0.4721
   45MOL   O27117079   3.804   5.250   4.744  0.3294 -0.4499  0.0116
   45MOL   N27217080   3.618   5.376   4.740 -0.1043 -0.0894 -0.2137
   45MOL   C27317081   3.584   5.360   4.595  0.2972 -1.0676 -0.6442
   45MOL   C27417082   3.437   5.366   4.573  0.1745 -0.2272  0.1954
   45MOL   C27517083   3.650   5.477   4.515 -0.3394  0.2689  0.5659
   45MOL   H27617084   3.957   5.468   4.971  0.0091  2.0094  3.6932
   45MOL   H27717085   3.839   5.535   5.058 -1.9827 -2.1812  1.5296
   45MOL   H27817086   3.660   5.405   4.986  0.3340  0.3001  0.3007
   45MOL   H27917087   3.550   5.406   4.808  1.0817 -0.8352  1.3380
   45MOL   H28017088   3.619   5.267   4.549 -0.3274 -0.0307 -3.3115
   45MOL   H28117089   3.377   5.419   4.646  0.0138 -3.1636  2.2907
   45MOL   H28217090   3.414   5.420   4.481  0.4686 -0.7981 -0.2226
   45MOL   H28317091   3.410   5.260   4.566 -0.6882 -0.0487  0.7790
   45MOL   H28417092   3.759   5.477   4.521 -0.1449  2.2878 -1.9736
   45MOL   H28517093   3.619   5.464   4.411  1.3156 -1.3595  0.2648
   45MOL   H28617094   3.606   5.572   4.548 -0.6872  0.5899 -0.7818
   45MOL   C28717095   3.810   5.254   5.042  0.2454 -0.1588  0.1862
   45MOL   C28817096   3.701   5.149   5.082 -0.2800 -0.2202  0.7617
   45MOL   C28917097   3.569   5.208   5.124  0.4566  0.8864 -0.0335
   45MOL   O29017098   3.562   5.286   5.218 -0.5612 -0.2401  0.6849
   45MOL   N29117099   3.457   5.173   5.056  0.2611 -0.1888 -0.2697
   45MOL   C29217100   3.327   5.228   5.087 -0.1357  0.3893 -0.0468
   45MOL   C29317101   3.253   5.240   4.956  0.1122 -0.2105 -0.1824
   45MOL   C29417102   3.251   5.150   5.192 -0.4962 -0.1036 -0.6420
   45MOL   H29517103   3.900   5.214   4.996  1.9368  0.2972  3.0422
   45MOL   H29617104   3.854   5.301   5.129  3.1519  0.9666 -1.8173
   45MOL   H29717105   3.681   5.086   4.996  3.9119  0.0481 -0.5358
   45MOL   H29817106   3.475   5.092   4.999  2.0837  1.8016 -2.5863
   45MOL   H29917107   3.336   5.335   5.108 -1.6221  0.4016  0.6377
   45MOL   H30017108   3.235   5.144   4.908 -0.8408 -0.6557  1.0513
   45MOL   H30117109   3.153   5.282   4.973  0.1231  0.1585 -0.9837
   45MOL   H30217110   3.294   5.314   4.887  0.0831  0.9480  1.0273
   45MOL   H30317111   3.305   5.175   5.283 -3.1909  0.2043  0.9456
   45MOL   H30417112   3.148   5.185   5.205 -0.6506 -0.8042  0.0213
   45MOL   H30517113   3.245   5.045   5.163 -0.7655  0.3134 -2.1406
   45MOL   C30617114   3.771   5.062   5.192 -0.0974  0.1602 -0.0162
   45MOL   C30717115   3.705   4.935   5.243  0.1749 -0.0714 -0.6319
   45MOL   C30817116   3.770   4.879   5.373 -0.0657 -0.2365  0.3926
   45MOL   O30917117   3.892   4.889   5.384  0.0957 -0.4634  0.5197
   45MOL   N31017118   3.699   4.835   5.475 -0.1252 -0.4428 -0.9618
   45MOL   C31117119   3.751   4.765   5.595  0.0807 -0.3222  0.2663
   45MOL   C31217120   3.788   4.866   5.699  0.1961 -0.3677 -0.5488
   45MOL   C31317121   3.643   4.671   5.651  0.2461 -0.1544  0.3680
   45MOL   H31417122   3.869   5.033   5.155 -1.3116 -0.9096 -2.5241
   45MOL   H31517123   3.793   5.137   5.268 -0.3490  0.2349 -0.0175
   45MOL   H31617124   3.604   4.962   5.272  0.5216 -0.6391  1.1592
   45MOL   H31717125   3.601   4.860   5.484 -0.3253 -1.3306 -0.6199
   45MOL   H31817126   3.831   4.702   5.556  0.3902 -0.5796  1.2933
   45MOL   H31917127   3.817   4.820   5.794 -1.4513 -1.5971 -0.6287
   45MOL   H32017128   3.702   4.932   5.709  0.3730 -0.1126 -0.7096
   45MOL   H32117129   3.880   4.920   5.676 -0.6434  0.2868 -2.5076
   45MOL   H32217130   3.594   4.625   5.565  1.6709  0.0120 -0.5450
   45MOL   H32317131   3.573   4.726   5.714  0.3257  1.2652 -0.7599
   45MOL   H32417132   3.675   4.590   5.717  2.3403  0.0502 -0.3536
   45MOL   C32517133   3.704   4.821   5.134 -0.0329  0.2475 -0.3699
   45MOL   C32617134   3.603   4.703   5.160  0.0956  0.7294 -1.0962
   45MOL   C32717135   3.462   4.742   5.111  0.3109  0.5171 -0.4822
   45MOL   O32817136   3.443   4.849   5.053  0.0925 -0.3989  0.5933
   45MOL   N32917137   3.364   4.655   5.139  0.2763  0.1613 -0.0295
   45MOL   C33017138   3.231   4.665   5.086  0.3659 -0.2817 -1.3429
   45MOL   C33117139   3.136   4.573   5.172  0.0232 -0.2326  0.3424
   45MOL   C33217140   3.219   4.624   4.940  1.0158 -0.2256 -0.1618
   45MOL   H33317141   3.800   4.769   5.135 -1.6719 -3.0566 -2.6217
   45MOL   H33417142   3.706   4.863   5.033  2.8859  0.0064 -0.4551
   45MOL   H33517143   3.589   4.673   5.264  0.7222  0.2078 -1.1597
   45MOL   H33617144   3.391   4.590   5.212  5.5672 -0.5877 -2.3952
   45MOL   H33717145   3.189   4.766   5.085 -1.2077 -0.8858  1.0086
   45MOL   H33817146   3.078   4.630   5.244 -0.0909  0.1837 -0.0797
   45MOL   H33917147   3.065   4.517   5.111  0.9012  2.2628 -3.1604
   45MOL   H34017148   3.194   4.498   5.227  2.9333  1.8814  0.2457
   45MOL   H34117149   3.122   4.661   4.907 -0.3497 -1.2791  2.4700
   45MOL   H34217150   3.233   4.516   4.927  1.2218 -0.3311  0.8940
   45MOL   H34317151   3.303   4.655   4.878 -0.3527  2.5796 -0.6610
   45MOL   C34417152   3.651   4.583   5.079  0.3085 -0.5047  0.3871
   45MOL   C34517153   3.607   4.444   5.115 -0.2918  0.2815  1.0033
   45MOL   C34617154   3.628   4.339   5.001 -0.3309 -0.1721  0.6281
   45MOL   O34717155   3.561   4.239   4.987 -0.0126 -0.3292  0.7325
   45MOL   N34817156   3.731   4.360   4.914 -0.7808 -0.5991  0.0724
   45MOL   C34917157   3.780   4.276   4.807  0.5993  0.4303 -0.5275
   45MOL   C35017158   3.771   4.352   4.673  0.6144 -0.3569 -0.0199
   45MOL   C35117159   3.922   4.228   4.834 -0.2431  0.0031 -0.7410
   45MOL   H35217160   3.758   4.567   5.074  0.1467 -1.1609 -1.0589
   45MOL   H35317161   3.627   4.612   4.977  3.1484 -0.4806 -0.3165
   45MOL   H35417162   3.501   4.454   5.137  0.0776  0.7964  2.5746
   45MOL   H35517163   3.789   4.443   4.921 -0.5549 -0.8181  0.8489
   45MOL   H35617164   3.714   4.190   4.798  0.4065  0.4416  0.6819
   45MOL   H35717165   3.836   4.306   4.598  1.6619 -0.5794  1.0016
   45MOL   H35817166   3.672   4.376   4.636  0.1476 -0.3544  1.2120
   45MOL   H35917167   3.801   4.456   4.686 -1.2302  0.2452 -0.4771
   45MOL   H36017168   3.966   4.186   4.743  0.6236  0.0626 -0.3506
   45MOL   H36117169   3.979   4.318   4.858 -1.6098  0.6729  0.0227
   45MOL   H36217170   3.935   4.157   4.916  2.3083  1.4508  0.1431
   45MOL   C36317171   3.676   4.387   5.244  0.4694  0.0565  0.0494
   45MOL   C36417172   3.594   4.280   5.321 -0.2618 -0.8315  0.0679
   45MOL   C36517173   3.478   4.335   5.404 -0.7624 -0.6412 -0.7508
   45MOL   O36617174   3.437   4.446   5.378 -0.8431 -1.0954 -0.1352
   45MOL   N36717175   3.438   4.257   5.509 -0.1853  1.0604  0.1774
   45MOL   C36817176   3.330   4.287   5.599 -0.3036 -0.8292  0.4723
   45MOL   C36917177   3.264   4.154   5.644  0.2520  0.0619 -0.0069
   45MOL   C37017178   3.392   4.361   5.723 -0.2883  0.4824  0.1091
   45MOL   H37117179   3.690   4.465   5.319 -2.8525  1.0025 -0.2461
   45MOL   H37217180   3.774   4.357   5.205  0.1890 -0.4124 -0.2958
   45MOL   H37317181   3.671   4.241   5.388  1.0887  1.7155  0.0457
   45MOL   H37417182   3.481   4.166   5.518 -1.5497  0.0933 -2.5306
   45MOL   H37517183   3.262   4.361   5.555  2.3641  1.4291  0.0461
   45MOL   H37617184   3.224   4.091   5.565 -0.7735  1.6632 -0.7861
   45MOL   H37717185   3.333   4.091   5.700 -0.7994 -0.2984  0.9159
   45MOL   H37817186   3.177   4.169   5.708  0.2616 -0.8413  0.2191
   45MOL   H37917187   3.438   4.456   5.697 -0.2893  0.6864  0.8189
   45MOL   H38017188   3.321   4.388   5.802 -0.4684 -1.2864  0.5989
   45MOL   H38117189   3.469   4.297   5.768 -0.9181  1.1986  2.2892
   45MOL   H38217190   3.556   4.199   5.258 -0.0766 -1.7655  1.1384
   46MOL     C117191   5.882   6.753   0.903  0.1203  0.0430  0.9329
   46MOL     C217192   5.758   6.834   0.949  0.2164  0.1017 -0.0774
   46MOL     C317193   5.790   6.962   1.028 -0.0467 -0.0514 -0.1301
   46MOL     O417194   5.729   6.990   1.133 -0.3149  0.2894  0.2607
   46MOL     N517195   5.886   7.046   0.979  0.6554  0.2547  0.0940
   46MOL     C617196   5.956   7.152   1.043  0.6846 -0.5911  0.2065
   46MOL     C717197   6.097   7.155   1.003 -0.3281 -0.4198  1.1302
   46MOL     C817198   5.895   7.284   1.004  0.1127  0.5381 -0.1564
   46MOL     H917199   5.866   6.645   0.905 -0.8517  0.1468 -0.3451
   46MOL    H1017200   5.966   6.773   0.969  0.7234  1.0157 -0.1051
   46MOL    H1117201   5.713   6.767   1.022  0.6848  1.6901  1.7096
   46MOL    H1217202   5.920   7.028   0.886  0.6916  0.3111  0.0963
   46MOL    H1317203   5.957   7.136   1.151  0.1850 -2.7746 -0.0892
   46MOL    H1417204   6.155   7.215   1.074  2.8138 -1.1427 -0.7371
   46MOL    H1517205   6.126   7.199   0.908 -0.8117  0.3796  1.3452
   46MOL    H1617206   6.140   7.056   1.012  2.2976  0.3772 -1.9438
   46MOL    H1717207   5.791   7.280   1.038  0.1758 -0.5851 -0.0801
   46MOL    H1817208   5.953   7.359   1.057  2.0656 -0.8448 -0.3092
   46MOL    H1917209   5.906   7.309   0.898  2.7155 -2.2728 -0.6144
   46MOL    H2017210   5.908   6.774   0.799  2.4554 -1.7632  1.0959
   46MOL    C2117211   5.666   6.859   0.827  0.4908 -0.3868 -1.2400
   46MOL    C2217212   5.518   6.915   0.855 -0.0038  0.5497  0.0346
   46MOL    C2317213   5.434   6.804   0.930 -0.5541 -0.0774 -0.1541
   46MOL    O2417214   5.462   6.684   0.917  0.3571 -0.3422  0.1825
   46MOL    N2517215   5.333   6.843   1.006  0.6941 -0.2556  0.3679
   46MOL    C2617216   5.229   6.761   1.069  0.6959 -0.3718  0.1704
   46MOL    C2717217   5.096   6.843   1.082 -0.5592  0.2097  0.0259
   46MOL    C2817218   5.281   6.698   1.208  0.2991  0.4418  0.0414
   46MOL    H2917219   5.660   6.766   0.770  0.1277 -2.2537  1.6770
   46MOL    H3017220   5.710   6.932   0.760  1.1543 -1.1858 -1.6991
   46MOL    H3117221   5.520   6.999   0.924 -0.8065  0.6369 -0.0518
   46MOL    H3217222   5.318   6.943   1.017  0.1331 -0.1424 -1.2826
   46MOL    H3317223   5.201   6.681   1.000 -2.5277  1.1026 -0.3045
   46MOL    H3417224   5.023   6.785   1.138 -0.4305 -1.0902 -1.1340
   46MOL    H3517225   5.038   6.848   0.990 -2.4851 -0.8579  1.1448
   46MOL    H3617226   5.106   6.942   1.127 -3.6088  0.2559  0.7493
   46MOL    H3717227   5.295   6.775   1.284 -1.3456  0.2351  0.5650
   46MOL    H3817228   5.220   6.614   1.242 -0.6461  2.1684  2.7813
   46MOL    H3917229   5.373   6.642   1.190 -0.4293 -1.1027  0.9401
   46MOL    C4017230   5.458   6.955   0.724 -0.1374 -0.5361  0.9145
   46MOL    C4117231   5.333   7.051   0.731  0.0485  0.4957  0.1469
   46MOL    C4217232   5.208   6.974   0.684 -0.2900 -0.0655  1.2142
   46MOL    O4317233   5.174   6.869   0.742 -0.4456 -0.4230 -0.3215
   46MOL    N4417234   5.140   7.042   0.585 -0.1422 -0.2212 -0.0015
   46MOL    C4517235   4.999   7.017   0.549 -0.8372 -0.2082  0.2873
   46MOL    C4617236   4.904   7.062   0.662  0.2055 -0.0998 -0.8061
   46MOL    C4717237   4.961   7.082   0.420 -0.0098 -0.3384  0.0153
   46MOL    H4817238   5.451   6.861   0.668  0.4991 -0.6625  1.0485
   46MOL    H4917239   5.528   7.017   0.670  0.7933 -0.9814  1.6036
   46MOL    H5017240   5.319   7.049   0.839  1.5905 -2.7585  0.3418
   46MOL    H5117241   5.176   7.129   0.549 -2.8419  0.6599 -0.7207
   46MOL    H5217242   4.986   6.909   0.547  0.6782 -0.4076  0.7884
   46MOL    H5317243   4.950   7.019   0.751  0.0155  1.4953  0.0977
   46MOL    H5417244   4.806   7.015   0.656 -0.8120  1.8754 -0.3562
   46MOL    H5517245   4.878   7.168   0.671  2.1764  0.3075  0.2228
   46MOL    H5617246   4.988   7.186   0.404  0.5297 -0.3800  0.6436
   46MOL    H5717247   4.853   7.089   0.409  0.0871  2.0921  0.5203
   46MOL    H5817248   4.999   7.019   0.339  0.6295 -0.6221  0.5323
   46MOL    C5917249   5.352   7.197   0.676 -0.9129 -0.1897  0.6000
   46MOL    C6017250   5.276   7.306   0.752 -0.2875  0.5863 -1.3081
   46MOL    C6117251   5.221   7.415   0.664 -0.7129  0.0484 -0.2057
   46MOL    O6217252   5.294   7.462   0.578 -0.1759 -0.0851  0.3351
   46MOL    N6317253   5.088   7.450   0.680 -0.0804 -0.3777  0.4421
   46MOL    C6417254   5.020   7.549   0.596 -0.3198 -0.0419  0.4273
   46MOL    C6517255   4.883   7.492   0.548  0.2378 -0.1161 -0.4394
   46MOL    C6617256   5.009   7.668   0.692 -0.1379 -0.8530  0.3970
   46MOL    H6717257   5.459   7.218   0.684 -0.5242 -1.7660 -0.3409
   46MOL    H6817258   5.338   7.200   0.568  1.4880 -1.1738  0.2428
   46MOL    H6917259   5.194   7.254   0.800  0.9083 -2.0303 -2.0310
   46MOL    H7017260   5.035   7.401   0.751  1.5358 -1.9182  0.6117
   46MOL    H7117261   5.076   7.587   0.510  2.2376 -0.5071  1.8465
   46MOL    H7217262   4.826   7.443   0.627  1.7417 -0.0498  0.7188
   46MOL    H7317263   4.828   7.568   0.493  0.0395 -0.7214 -1.0821
   46MOL    H7417264   4.911   7.406   0.487  0.7819 -0.3159  0.0847
   46MOL    H7517265   5.110   7.705   0.706 -0.3141 -0.4008  0.5129
   46MOL    H7617266   4.952   7.747   0.642 -0.4787 -0.8503  0.7837
   46MOL    H7717267   4.965   7.648   0.790  0.7295 -4.5012  0.0921
   46MOL    C7817268   5.365   7.350   0.873 -0.2358 -0.0581 -0.1061
   46MOL    C7917269   5.295   7.436   0.984 -0.0238 -0.2063 -0.1007
   46MOL    C8017270   5.190   7.340   1.058  0.0691  0.7670 -0.7097
   46MOL    O8117271   5.221   7.233   1.108 -0.6254 -0.2634 -0.2103
   46MOL    N8217272   5.061   7.385   1.052 -0.2585  0.7357 -0.6861
   46MOL    C8317273   4.945   7.314   1.100 -0.4209  0.2047  0.5256
   46MOL    C8417274   4.880   7.386   1.221  0.1267 -0.0936  0.3920
   46MOL    C8517275   4.849   7.280   0.985  1.0508 -0.9049 -0.4928
   46MOL    H8617276   5.465   7.389   0.851  0.2308  0.2042  2.2867
   46MOL    H8717277   5.396   7.259   0.923 -0.7349 -0.6938 -0.9575
   46MOL    H8817278   5.248   7.514   0.925  0.6387  0.5071  0.2922
   46MOL    H8917279   5.046   7.470   0.998  0.0724  1.7375  0.7762
   46MOL    H9017280   4.985   7.223   1.143 -0.1142  0.7971  1.5051
   46MOL    H9117281   4.869   7.491   1.193  2.0795 -0.1749 -0.7645
   46MOL    H9217282   4.796   7.323   1.251  0.3635 -1.4956 -1.7676
   46MOL    H9317283   4.948   7.378   1.307 -1.6672  0.3146  1.8801
   46MOL    H9417284   4.766   7.213   1.007  0.7574 -0.8639 -1.4216
   46MOL    H9517285   4.907   7.232   0.906  0.2630 -1.4528 -0.7343
   46MOL    H9617286   4.811   7.368   0.933  0.2067 -0.1642  1.3349
   46MOL    C9717287   5.404   7.491   1.082 -0.3983  0.5722 -0.2111
   46MOL    C9817288   5.351   7.566   1.212  0.2893 -0.1655  0.9568
   46MOL    C9917289   5.272   7.692   1.155 -0.0607  0.5286  0.6169
   46MOL   O10017290   5.322   7.773   1.077 -0.0714  1.2642 -0.3997
   46MOL   N10117291   5.149   7.709   1.198  0.5027 -0.4900 -0.2495
   46MOL   C10217292   5.076   7.836   1.178 -0.5639  0.8886 -0.2355
   46MOL   C10317293   4.951   7.796   1.103  0.4710  0.2897 -0.2639
   46MOL   C10417294   5.055   0.050   1.319  0.3762 -0.6556  0.4213
   46MOL   H10517295   5.466   7.563   1.029  1.6753 -0.3028  0.9845
   46MOL   H10617296   5.456   7.405   1.124  0.3519  0.2496 -1.7880
   46MOL   H10717297   5.292   7.491   1.265  0.8487 -1.2365  0.0954
   46MOL   H10817298   5.124   7.643   1.270  1.0847 -1.1379 -0.6297
   46MOL   H10917299   5.127   0.076   1.119 -2.2199  2.1798 -0.0176
   46MOL   H11017300   4.880   0.041   1.116  0.5017  0.5491 -1.5756
   46MOL   H11117301   4.975   7.780   0.997  0.5319  0.6927 -0.3125
   46MOL   H11217302   4.909   7.703   1.140  0.0331 -0.2942 -2.1590
   46MOL   H11317303   4.984   0.133   1.316  0.0095 -0.9821 -0.1008
   46MOL   H11417304   5.148   0.077   1.369  1.1352  2.3629 -2.4505
   46MOL   H11517305   5.015   7.804   1.378 -0.0521 -0.2319  0.7336
   46MOL   C11617306   5.466   7.611   1.299 -0.1512 -0.6027  1.0612
   46MOL   C11717307   5.430   7.639   1.444  0.5846 -0.0720 -0.2250
   46MOL   C11817308   5.516   7.752   1.508 -0.6477 -0.1965  0.5628
   46MOL   O11917309   5.633   7.737   1.529  0.3215  0.3012  0.2221
   46MOL   N12017310   5.455   0.033   1.536  0.4419 -0.2938  0.7620
   46MOL   C12117311   5.516   0.163   1.562  0.3310 -1.0308 -0.2936
   46MOL   C12217312   5.522   0.253   1.437 -0.7142  0.2658 -0.0471
   46MOL   C12317313   5.430   0.229   1.674  0.0496  0.3369 -0.5341
   46MOL   H12417314   5.509   7.707   1.272  1.8681 -1.5081  0.9797
   46MOL   H12517315   5.552   7.544   1.296  1.1126  1.0446 -0.7416
   46MOL   H12617316   5.330   7.683   1.439  0.8412  0.7613  1.4631
   46MOL   H12717317   5.361   0.035   1.500  1.6500 -3.2856 -2.8013
   46MOL   H12817318   5.616   0.134   1.596 -0.8590 -1.5732  2.8699
   46MOL   H12917319   5.536   0.205   1.340  2.1182  2.0673 -0.5611
   46MOL   H13017320   5.609   0.317   1.447 -0.2181 -0.1743 -1.4329
   46MOL   H13117321   5.440   0.326   1.436  0.1006  1.1982 -2.3984
   46MOL   H13217322   5.448   0.332   1.703 -0.3007 -0.5944  3.2511
   46MOL   H13317323   5.325   0.232   1.646  0.0653 -2.1140 -1.0000
   46MOL   H13417324   5.434   0.183   1.772  1.7394  3.2375  0.8256
   46MOL   C13517325   5.425   7.509   1.530 -0.1702  0.2674  0.8008
   46MOL   C13617326   5.339   7.508   1.662  0.1515 -0.6132 -0.4193
   46MOL   C13717327   5.209   7.583   1.651  0.5420 -0.0782  0.6165
   46MOL   O13817328   5.122   7.530   1.575 -0.1948  0.5491 -0.2968
   46MOL   N13917329   5.186   7.688   1.723  0.2651 -0.0598  0.4377
   46MOL   C14017330   5.049   7.736   1.736 -0.0156  0.4553  0.1019
   46MOL   C14117331   5.044   0.053   1.736  0.2092 -0.2629 -0.1443
   46MOL   C14217332   4.987   7.678   1.857  0.2681  0.0515 -0.4891
   46MOL   H14317333   5.530   7.483   1.544 -0.4170  0.3851  3.0148
   46MOL   H14417334   5.391   7.434   1.458  2.8968 -0.4219 -0.0018
   46MOL   H14517335   5.398   7.559   1.738  1.4533  1.8865 -3.0107
   46MOL   H14617336   5.256   7.715   1.790 -1.5491  2.5684  1.3726
   46MOL   H14717337   4.984   7.693   1.661  3.0058  0.2009 -2.4479
   46MOL   H14817338   5.121   0.093   1.801 -3.4475  2.3340  2.7579
   46MOL   H14917339   5.069   0.083   1.634 -0.2237  1.3416  0.2186
   46MOL   H15017340   4.944   0.090   1.759  0.7877  1.0288  0.2968
   46MOL   H15117341   4.884   7.708   1.874  0.1422  0.6548 -2.2467
   46MOL   H15217342   5.046   7.706   1.945 -1.6202  1.6685  0.2935
   46MOL   H15317343   4.986   7.569   1.864  1.2305  0.0999  0.5546
   46MOL   C15417344   5.319   7.363   1.719 -0.2782 -0.0945  0.0649
   46MOL   C15517345   5.332   7.345   1.878  0.0898 -0.1522  0.0790
   46MOL   C15617346   5.285   7.204   1.920  0.2559  0.6961  0.4650
   46MOL   O15717347   5.165   7.191   1.924 -0.5937  0.2137 -0.6939
   46MOL   N15817348   5.368   7.105   1.956  0.2420  0.4469  0.0945
   46MOL   C15917349   5.505   7.084   1.899  0.0566  0.2638  0.8311
   46MOL   C16017350   5.511   6.932   1.864 -0.1209 -0.3765 -0.0383
   46MOL   C16117351   5.622   7.123   1.984  0.1646  0.6728  0.0070
   46MOL   H16217352   5.397   7.306   1.668 -2.4397 -1.0501 -2.2586
   46MOL   H16317353   5.230   7.312   1.683  1.3263 -2.2308 -0.9806
   46MOL   H16417354   5.437   7.345   1.906  0.0681 -1.0278  0.1632
   46MOL   H16517355   5.316   7.026   1.992  1.7633 -0.4528  0.3655
   46MOL   H16617356   5.509   7.130   1.800 -2.6092 -0.4190  0.3750
   46MOL   H16717357   5.516   6.877   1.959  0.6695 -3.1333 -1.6276
   46MOL   H16817358   5.421   6.911   1.807 -1.2057  0.1681  1.4314
   46MOL   H16917359   5.607   6.899   1.824  0.2438  1.7238 -0.9557
   46MOL   H17017360   5.715   7.120   1.927  0.7256 -1.9446  0.9621
   46MOL   H17117361   5.641   7.049   2.062  3.3973 -0.2294 -1.5345
   46MOL   H17217362   5.608   7.216   2.039 -0.3642  0.2161  0.6625
   46MOL   C17317363   5.257   7.454   1.963  0.2901 -0.0948 -0.3885
   46MOL   C17417364   5.238   7.436   2.110  0.2395  0.2562 -0.6178
   46MOL   C17517365   5.356   7.378   2.186  0.5535  0.0412 -0.1401
   46MOL   O17617366   5.474   7.387   2.153 -0.2749  0.1234 -0.2502
   46MOL   N17717367   5.328   7.296   2.289  0.3386  0.8922 -0.2866
   46MOL   C17817368   5.431   7.222   2.362  0.3628 -0.7561  0.0835
   46MOL   C17917369   5.442   7.072   2.315  0.0897  0.7331 -0.3289
   46MOL   C18017370   5.421   7.228   2.522 -1.0320  0.9405  0.2602
   46MOL   H18117371   5.152   7.455   1.932  1.1275 -0.2616 -3.4457
   46MOL   H18217372   5.307   7.549   1.941  0.6397 -0.3275 -0.6017
   46MOL   H18317373   5.159   7.362   2.122  1.0280 -0.7212 -1.3620
   46MOL   H18417374   5.233   7.294   2.323 -0.1067  2.4049 -1.4009
   46MOL   H18517375   5.529   7.266   2.350 -0.1305  0.5088  0.6493
   46MOL   H18617376   5.352   7.012   2.330  0.4457  0.3819  0.4064
   46MOL   H18717377   5.521   7.029   2.376  0.5040 -1.1616 -2.1668
   46MOL   H18817378   5.469   7.083   2.210 -1.8510  0.9479 -0.8263
   46MOL   H18917379   5.518   7.200   2.564 -0.6442 -0.9306 -1.8127
   46MOL   H19017380   5.349   7.154   2.554  1.4996 -1.7955 -0.1512
   46MOL   H19117381   5.395   7.327   2.560 -4.1614  0.0985  0.4022
   46MOL   C19217382   5.198   7.565   2.186  0.2285 -0.2226  0.4493
   46MOL   C19317383   5.307   7.677   2.190  0.2168 -0.4576 -0.1669
   46MOL   C19417384   5.355   7.709   2.334 -0.4401  1.2674 -0.2545
   46MOL   O19517385   5.294   7.788   2.406  0.4401  0.6692  0.0836
   46MOL   N19617386   5.475   7.648   2.366  0.5585 -0.4744 -0.1333
   46MOL   C19717387   5.546   7.653   2.497 -0.0109 -0.0567  0.0861
   46MOL   C19817388   5.647   7.547   2.524  0.1595 -0.0663 -0.9114
   46MOL   C19917389   5.610   7.790   2.506 -0.0916  0.1789  0.3348
   46MOL   H20017390   5.158   7.545   2.286 -2.6681 -1.5079 -0.9010
   46MOL   H20117391   5.111   7.609   2.137  0.7392 -1.8058 -1.9894
   46MOL   H20217392   5.401   7.637   2.153 -0.0658 -1.1889 -0.0875
   46MOL   H20317393   5.521   7.593   2.295  0.1968 -1.3118  0.2844
   46MOL   H20417394   5.474   7.629   2.575  1.3135 -1.7287  0.8102
   46MOL   H20517395   5.713   7.536   2.438 -0.4229  0.4457 -1.4267
   46MOL   H20617396   5.608   7.446   2.536  1.7102 -0.6104 -0.2437
   46MOL   H20717397   5.703   7.567   2.615 -0.2617  0.1498 -0.6973
   46MOL   H20817398   5.535   0.033   2.515 -1.1845 -1.2320  4.9436
   46MOL   H20917399   5.661   7.807   2.411 -0.3664  0.0174  0.1581
   46MOL   H21017400   5.691   7.790   2.579  1.0435 -0.4751 -0.9041
   46MOL   C21117401   5.268   7.815   2.119 -0.5585  0.8471 -0.2565
   46MOL   C21217402   5.391   0.065   2.077 -0.3767 -0.4105  0.7762
   46MOL   C21317403   5.475   7.834   1.967 -0.6031  0.1780 -0.4583
   46MOL   O21417404   5.422   7.767   1.878  0.0843 -0.6562  0.6342
   46MOL   N21517405   5.608   0.017   1.980  0.3030  0.0245 -0.5805
   46MOL   C21617406   5.705   7.813   1.882 -0.1834  0.1967 -0.2489
   46MOL   C21717407   5.713   7.656   1.850 -0.7820  0.1192 -0.4726
   46MOL   C21817408   5.830   0.050   1.908  0.2977 -0.3142  0.5175
   46MOL   H21917409   5.201   0.038   2.181 -0.3156  0.7567  0.0986
   46MOL   H22017410   5.210   7.799   2.028 -0.7015 -0.2866  0.0238
   46MOL   H22117411   5.452   0.061   2.168  0.2819 -5.0043  0.2757
   46MOL   H22217412   5.647   0.067   2.058  0.8419 -2.4347  0.7934
   46MOL   H22317413   5.666   0.020   1.789 -0.7000  0.2182 -0.0252
   46MOL   H22417414   5.615   7.609   1.838 -0.9744  0.6372 -1.0006
   46MOL   H22517415   5.783   7.642   1.768  0.1375 -2.4087  0.7052
   46MOL   H22617416   5.751   7.614   1.943  1.6668  0.5064 -1.2790
   46MOL   H22717417   5.872   0.029   2.006  2.0811  0.6929 -0.0126
   46MOL   H22817418   5.808   0.156   1.900  2.1897 -0.0610 -1.9960
   46MOL   H22917419   5.905   0.024   1.833 -0.0294  1.5261 -0.4925
   46MOL   C23017420   5.363   0.216   2.047  0.5748  0.0130  0.5273
   46MOL   C23117421   5.482   0.306   2.056  0.1040 -0.1933 -0.1862
   46MOL   C23217422   5.440   0.442   2.012  0.4601  0.2876  0.0180
   46MOL   O23317423   5.353   0.499   2.079 -0.4739 -0.2855  0.4386
   46MOL   N23417424   5.498   0.499   1.908 -0.2521 -0.2626  0.2010
   46MOL   C23517425   5.468   0.628   1.843  0.2032 -0.7551 -0.3529
   46MOL   C23617426   5.336   0.629   1.779  0.3047  0.2975 -0.0241
   46MOL   C23717427   5.504   0.744   1.927 -0.9527 -0.3903 -0.7545
   46MOL   H23817428   5.287   0.242   2.120 -1.0449  2.0340 -1.8016
   46MOL   H23917429   5.303   0.240   1.960  1.1428 -0.6271 -0.0500
   46MOL   H24017430   5.562   0.275   1.990  0.9285  0.0409  0.6867
   46MOL   H24117431   5.566   0.442   1.860 -1.7182 -0.3899 -1.7718
   46MOL   H24217432   5.548   0.628   1.769 -0.7675  0.3589 -1.4160
   46MOL   H24317433   5.322   0.697   1.695 -1.2813 -1.5199 -1.2867
   46MOL   H24417434   5.329   0.535   1.724  3.5058  0.4705 -0.7636
   46MOL   H24517435   5.252   0.627   1.849  0.4617  1.5953  0.2026
   46MOL   H24617436   5.472   0.837   1.880 -0.1024  0.8510  1.0470
   46MOL   H24717437   5.611   0.747   1.945 -0.9899 -0.8492 -0.4360
   46MOL   H24817438   5.462   0.739   2.028  0.3282 -0.5472 -0.2154
   46MOL   C24917439   5.522   0.314   2.205 -0.3909  0.0349  0.7138
   46MOL   C25017440   5.621   0.426   2.249  0.1329 -0.2028 -0.3630
   46MOL   C25117441   5.760   0.404   2.185  0.3977  0.2448 -0.2186
   46MOL   O25217442   5.803   0.291   2.167 -0.7201 -0.2985 -0.3477
   46MOL   N25317443   5.836   0.507   2.164  0.3165  0.4978 -0.3690
   46MOL   C25417444   5.958   0.519   2.083  0.6443  0.2697 -0.5704
   46MOL   C25517445   5.929   0.582   1.954 -0.0481 -0.1239 -0.7959
   46MOL   C25617446   6.063   0.605   2.163 -0.7394 -0.2882  0.0753
   46MOL   H25717447   5.556   0.215   2.237 -1.1162 -0.6143 -0.5092
   46MOL   H25817448   5.428   0.328   2.259  0.0790  3.3686  0.7846
   46MOL   H25917449   5.586   0.526   2.223 -0.2610  0.7251  3.4572
   46MOL   H26017450   5.801   0.593   2.203  3.0847  2.3940 -1.9223
   46MOL   H26117451   6.002   0.422   2.059 -0.3390 -0.5302  0.7695
   46MOL   H26217452   5.842   0.541   1.901 -0.8519 -1.2833  1.3341
   46MOL   H26317453   5.892   0.684   1.967 -2.5289 -0.8105 -2.0908
   46MOL   H26417454   6.019   0.579   1.893 -0.0078 -0.2345 -0.7311
   46MOL   H26517455   6.151   0.616   2.101 -0.2409 -1.4654  0.5554
   46MOL   H26617456   6.036   0.706   2.195 -0.5049 -0.5104  0.9715
   46MOL   H26717457   6.107   0.549   2.245 -3.1601 -1.6943  0.4898
   46MOL   C26817458   5.619   0.411   2.401 -0.7275  0.3616  0.3637
   46MOL   C26917459   5.711   0.494   2.481 -0.9394  0.0320 -0.2588
   46MOL   C27017460   5.652   0.634   2.490  0.2103 -0.7450 -0.0599
   46MOL   O27117461   5.537   0.652   2.527 -0.9326  0.3371 -0.2282
   46MOL   N27217462   5.731   0.734   2.443 -0.2446 -0.0548  0.0569
   46MOL   C27317463   5.693   0.868   2.390  0.6200  0.1777 -0.2281
   46MOL   C27417464   5.601   0.856   2.270  0.2906 -0.6793 -0.2149
   46MOL   C27517465   5.639   0.952   2.505  0.1690  0.3301 -0.4797
   46MOL   H27617466   5.516   0.419   2.435 -0.7524  0.0974  0.3446
   46MOL   H27717467   5.648   0.313   2.437  0.4733  0.8069  0.6483
   46MOL   H27817468   5.812   0.499   2.438 -0.1412  0.9346  1.6802
   46MOL   H27917469   5.828   0.715   2.422 -1.1369  1.1986 -6.3114
   46MOL   H28017470   5.785   0.915   2.355  1.5521 -0.9268  0.7123
   46MOL   H28117471   5.647   0.817   2.179 -0.5715 -3.3876  0.4847
   46MOL   H28217472   5.508   0.801   2.283 -0.0900  0.1604  0.7115
   46MOL   H28317473   5.561   0.954   2.243 -0.2490 -0.6876  0.5520
   46MOL   H28417474   5.538   0.923   2.535  0.2817  1.0864  0.6624
   46MOL   H28517475   5.684   0.945   2.604 -0.2384 -0.0456 -0.3178
   46MOL   H28617476   5.650   1.058   2.486 -0.7766  0.5131 -0.0422
   46MOL   C28717477   5.729   0.435   2.624  0.7692 -0.4687  0.2619
   46MOL   C28817478   5.789   0.526   2.731 -0.1689 -0.2691 -0.4849
   46MOL   C28917479   5.941   0.532   2.709 -0.1157 -0.3792  0.0422
   46MOL   O29017480   6.012   0.438   2.673  0.4936 -0.5048 -0.5492
   46MOL   N29117481   5.998   0.656   2.724  0.2956  0.5891  0.0550
   46MOL   C29217482   6.141   0.688   2.708  0.3360 -0.1107 -0.3579
   46MOL   C29317483   6.183   0.708   2.563 -0.1112  0.0778  0.2768
   46MOL   C29417484   6.180   0.819   2.783  0.0996  0.0999 -0.4715
   46MOL   H29517485   5.631   0.403   2.659  1.0181 -1.8787 -0.2873
   46MOL   H29617486   5.780   0.339   2.635  1.4407  0.1031  2.4886
   46MOL   H29717487   5.756   0.630   2.718 -0.2618 -0.4123 -1.4165
   46MOL   H29817488   5.951   0.732   2.772 -0.8935 -0.2463  0.2418
   46MOL   H29917489   6.201   0.605   2.746  0.7953  0.2827 -0.2180
   46MOL   H30017490   6.158   0.804   2.519 -0.0906  0.1308  0.3831
   46MOL   H30117491   6.291   0.695   2.552 -0.2446 -1.0233  0.1485
   46MOL   H30217492   6.146   0.628   2.498 -1.5552  1.3264 -0.4629
   46MOL   H30317493   6.167   0.803   2.891  0.3560 -2.3748 -0.7649
   46MOL   H30417494   6.284   0.851   2.771 -0.4432  1.5350 -1.3823
   46MOL   H30517495   6.133   0.908   2.743  0.7355  0.0702 -1.2865
   46MOL   C30617496   5.757   0.479   2.876  0.1334 -0.7788 -0.0852
   46MOL   C30717497   5.608   0.477   2.917 -0.0504 -0.4258 -0.2468
   46MOL   C30817498   5.557   0.617   2.972 -0.2718  0.2637 -0.1236
   46MOL   O30917499   5.555   0.630   3.097 -0.0056  0.1262  0.1851
   46MOL   N31017500   5.521   0.716   2.885 -0.4907  0.1650 -0.2170
   46MOL   C31117501   5.485   0.852   2.926  0.0978  0.1223 -0.2954
   46MOL   C31217502   5.602   0.948   2.939 -0.0029 -0.3582  0.7873
   46MOL   C31317503   5.376   0.901   2.838 -0.0228  0.3556  0.4814
   46MOL   H31417504   5.803   0.381   2.888 -0.3377 -0.9897  0.0236
   46MOL   H31517505   5.816   0.550   2.934  2.4205 -1.7985 -1.1244
   46MOL   H31617506   5.548   0.451   2.829 -1.2096 -0.3641  0.5175
   46MOL   H31717507   5.531   0.701   2.786 -1.5201 -1.9156 -0.0089
   46MOL   H31817508   5.435   0.837   3.021 -0.2732 -0.6956 -0.6204
   46MOL   H31917509   5.652   0.962   2.843 -2.1069  2.9945  0.0920
   46MOL   H32017510   5.667   0.900   3.012  1.4986 -0.4373 -0.5899
   46MOL   H32117511   5.575   1.049   2.970 -2.3993 -1.6549  3.2062
   46MOL   H32217512   5.358   1.005   2.866  1.4699  0.6882  0.2377
   46MOL   H32317513   5.288   0.837   2.845 -1.3983  2.0218 -0.9065
   46MOL   H32417514   5.398   0.909   2.731 -1.0712  1.4815  0.3325
   46MOL   C32517515   5.579   0.356   3.015  0.5490 -0.0668 -0.5546
   46MOL   C32617516   5.439   0.307   3.035 -0.2691  0.5000 -0.2920
   46MOL   C32717517   5.371   0.262   2.901  0.4987 -0.4301 -0.5662
   46MOL   O32817518   5.399   0.157   2.851 -0.3668 -0.6272 -0.0935
   46MOL   N32917519   5.284   0.348   2.851 -0.1205 -0.9004  0.1951
   46MOL   C33017520   5.210   0.342   2.733 -0.2409  0.4526 -0.1640
   46MOL   C33117521   5.301   0.382   2.614 -0.6962 -0.0125 -0.3328
   46MOL   C33217522   5.087   0.431   2.756 -0.5439 -0.7490 -0.1536
   46MOL   H33317523   5.625   0.390   3.107 -1.3367  2.4173 -0.4610
   46MOL   H33417524   5.652   0.277   2.997  0.5387  0.0321 -1.0542
   46MOL   H33517525   5.382   0.391   3.075  0.0519  0.7721 -0.4091
   46MOL   H33617526   5.260   0.420   2.918  2.3448 -0.2022  0.3764
   46MOL   H33717527   5.196   0.234   2.721  2.1343  0.4745 -3.6623
   46MOL   H33817528   5.358   0.475   2.620 -1.5762  0.5001  0.1926
   46MOL   H33917529   5.362   0.295   2.589 -2.0760 -1.3130  0.7458
   46MOL   H34017530   5.242   0.391   2.523 -0.8748 -0.3297 -0.2464
   46MOL   H34117531   5.113   0.536   2.764 -0.0893 -0.7876 -1.0549
   46MOL   H34217532   5.029   0.397   2.843 -2.3228 -0.7785 -1.3310
   46MOL   H34317533   5.026   0.425   2.666 -0.6007  2.0974 -0.3321
   46MOL   C34417534   5.436   0.196   3.151 -0.6844  0.2251 -0.7646
   46MOL   C34517535   5.295   0.115   3.162  0.1755 -0.2909 -0.5748
   46MOL   C34617536   5.301   7.797   3.133  0.4443  0.1759 -0.6935
   46MOL   O34717537   5.245   7.723   3.212 -0.3956  0.5173 -0.4398
   46MOL   N34817538   5.358   7.749   3.021 -0.1346 -0.6089  0.3890
   46MOL   C34917539   5.372   7.609   2.977  0.9220  0.2288 -0.1824
   46MOL   C35017540   5.362   7.599   2.818  0.5515  0.0873 -0.4383
   46MOL   C35117541   5.494   7.544   3.026 -0.3820 -0.2176 -0.5296
   46MOL   H35217542   5.463   0.252   3.241 -0.1175 -0.1403 -0.7017
   46MOL   H35317543   5.519   0.128   3.135  1.4692  2.8185 -1.0210
   46MOL   H35417544   5.229   0.155   3.085  0.4495  2.6860  0.6540
   46MOL   H35517545   5.387   7.818   2.953  1.6339 -2.1869 -0.5352
   46MOL   H35617546   5.293   7.542   3.011  2.5232 -1.7494 -0.2637
   46MOL   H35717547   5.461   7.583   2.776  0.4087  4.2075 -2.6527
   46MOL   H35817548   5.295   7.520   2.784 -1.6295  1.6491  0.1638
   46MOL   H35917549   5.316   7.681   2.763 -2.0472 -0.4861  0.7997
   46MOL   H36017550   5.527   7.462   2.963  2.4339 -0.5060  1.2327
   46MOL   H36117551   5.583   7.606   3.019  0.8906 -1.9804 -0.1770
   46MOL   H36217552   5.471   7.509   3.126  0.7151  1.4099  0.3131
   46MOL   C36317553   5.239   0.156   3.298 -0.1050 -0.1730  0.0377
   46MOL   C36417554   5.087   0.138   3.302 -0.5420 -1.0046 -0.7001
   46MOL   C36517555   5.025   0.172   3.441  0.1452  0.3332 -0.4739
   46MOL   O36617556   5.090   0.227   3.529 -0.6741  0.1073  0.2708
   46MOL   N36717557   4.894   0.153   3.451 -0.1666  0.4072  0.0082
   46MOL   C36817558   4.815   0.182   3.570 -0.0069  0.0660  0.3409
   46MOL   C36917559   4.676   0.198   3.524  0.2846  0.2315  0.0499
   46MOL   C37017560   4.837   0.063   3.672  0.4355 -0.2477 -0.9005
   46MOL   H37117561   5.254   0.261   3.323 -1.3048 -0.2120  1.0185
   46MOL   H37217562   5.280   0.100   3.383 -2.5683 -1.6553  0.2964
   46MOL   H37317563   5.055   0.035   3.284 -1.4671 -0.9228  0.4173
   46MOL   H37417564   4.850   0.126   3.364  0.8133  0.0072 -0.3770
   46MOL   H37517565   4.844   0.277   3.616  1.0593 -0.1818  0.1768
   46MOL   H37617566   4.673   0.265   3.438  3.4252 -1.8717 -1.8179
   46MOL   H37717567   4.645   0.097   3.496  2.7463  0.0213 -2.1500
   46MOL   H37817568   4.612   0.224   3.608 -0.7080 -0.3513 -0.5132
   46MOL   H37917569   4.942   0.055   3.699  0.7855  1.7920 -1.5860
   46MOL   H38017570   4.772   0.074   3.759  0.8419  0.1960 -0.6574
   46MOL   H38117571   4.798   7.809   3.625  2.0490 -0.3521 -2.0602
   46MOL   H38217572   5.034   0.198   3.229  0.7343 -0.8235 -1.4838
   47MOL     C117573   1.041   3.205   7.576  0.4874  0.0917 -0.4365
   47MOL     C217574   0.936   3.312   7.613 -0.0809 -0.3230 -0.7123
   47MOL     C317575   0.805   3.245   7.646  0.1382  1.2923 -0.1880
   47MOL     O417576   0.798   3.134   7.703  0.4231  0.1998 -0.3024
   47MOL     N517577   0.688   3.314   7.616 -0.1154 -0.0769  0.3487
   47MOL     C617578   0.557   3.276   7.671  0.1197  0.0946  0.3621
   47MOL     C717579   0.483   3.391   7.744  0.1230  0.6147  0.1957
   47MOL     C817580   0.471   3.223   7.550  0.8445 -0.0398  0.2591
   47MOL     H917581   1.084   3.158   7.665  0.9075  3.3430  1.1712
   47MOL    H1017582   1.120   3.237   7.508  1.9811  0.8570  1.5864
   47MOL    H1117583   0.910   3.362   7.520 -1.4816 -0.5875 -0.4807
   47MOL    H1217584   0.696   3.402   7.567  1.2989 -1.6527 -2.4204
   47MOL    H1317585   0.578   3.195   7.742  0.7496 -0.2516 -0.2152
   47MOL    H1417586   0.440   3.463   7.675  1.0863  1.0947  0.0997
   47MOL    H1517587   0.528   3.449   7.825 -2.8780  1.4748  1.3292
   47MOL    H1617588   0.401   3.339   7.794  1.1628 -0.6830  0.5833
   47MOL    H1717589   0.474   3.292   7.466  0.4435  2.2427  2.0755
   47MOL    H1817590   0.506   3.125   7.518 -4.2657 -2.0480  0.3527
   47MOL    H1917591   0.367   3.209   7.578  0.4315  0.4024 -1.0333
   47MOL    H2017592   0.992   3.124   7.522 -3.4980  1.7045  0.6085
   47MOL    C2117593   0.984   3.402   7.727 -0.2499 -0.1939  0.1997
   47MOL    C2217594   0.896   3.527   7.764  0.2429  0.0086 -0.4846
   47MOL    C2317595   0.883   3.635   7.654  0.6451  0.3435 -0.3458
   47MOL    O2417596   0.979   3.690   7.598 -0.0499 -0.3948  0.0882
   47MOL    N2517597   0.759   3.685   7.630  0.1629  0.3284  0.2416
   47MOL    C2617598   0.723   3.792   7.533  0.2839  0.7939  0.4037
   47MOL    C2717599   0.779   3.924   7.586 -0.2582 -0.5840  0.4786
   47MOL    C2817600   0.580   3.794   7.514 -0.4199 -0.1375  0.4568
   47MOL    H2917601   1.084   3.440   7.707 -0.5499  0.5567  0.1081
   47MOL    H3017602   1.002   3.339   7.814  0.2063 -0.2878  0.0362
   47MOL    H3117603   0.793   3.501   7.789 -0.0119  1.2137 -0.2298
   47MOL    H3217604   0.675   3.668   7.683 -1.5696  0.6443 -2.3135
   47MOL    H3317605   0.755   3.761   7.434 -0.1447  0.5657  0.3355
   47MOL    H3417606   0.732   3.956   7.678 -1.1364  2.4086 -0.9539
   47MOL    H3517607   0.780   4.009   7.518  0.2272  1.3321  2.8309
   47MOL    H3617608   0.886   3.929   7.605  0.0891  2.4728 -1.8673
   47MOL    H3717609   0.547   3.693   7.490 -0.3954  0.2773 -1.3832
   47MOL    H3817610   0.524   3.827   7.602 -3.7387 -1.1287 -1.1796
   47MOL    H3917611   0.549   3.860   7.433 -1.5285  0.3118  1.2303
   47MOL    C4017612   0.953   3.600   0.059  0.2112  0.5246 -0.7567
   47MOL    C4117613   0.870   3.708   0.127  0.1353 -0.4004  0.1729
   47MOL    C4217614   0.949   3.753   0.255  1.0829 -0.5225  0.1436
   47MOL    O4317615   0.975   3.666   0.341 -0.5506  0.0277  0.4340
   47MOL    N4417616   0.970   3.887   0.263 -0.2226  0.1500  0.4455
   47MOL    C4517617   1.033   3.954   0.377  0.3484  0.0741 -0.6521
   47MOL    C4617618   1.171   4.011   0.341  0.1851  0.2650  0.3954
   47MOL    C4717619   0.940   4.063   0.428  0.2731  0.5296 -0.1233
   47MOL    H4817620   1.053   3.645   0.052  2.0701 -3.3267 -0.3933
   47MOL    H4917621   0.964   3.516   0.126  0.2836 -0.2814 -1.7625
   47MOL    H5017622   0.874   3.795   0.062 -1.3701  0.0422  0.6461
   47MOL    H5117623   0.933   3.949   0.192 -1.2695  0.0169  0.8769
   47MOL    H5217624   1.050   3.889   0.463  0.0733  2.7521  1.5003
   47MOL    H5317625   1.210   4.023   0.442  1.6733  1.7532 -0.3405
   47MOL    H5417626   1.169   4.109   0.295 -0.2613 -0.7432 -1.7970
   47MOL    H5517627   1.235   3.947   0.280 -0.0584 -0.1111  0.5253
   47MOL    H5617628   0.993   4.098   0.516 -2.0610  1.0011  1.1489
   47MOL    H5717629   0.845   4.025   0.466  0.0470  0.4194 -0.7997
   47MOL    H5817630   0.917   4.145   0.360 -1.3538 -1.2086 -1.7416
   47MOL    C5917631   0.721   3.676   0.154 -0.9580  0.5441 -0.4555
   47MOL    C6017632   0.688   3.583   0.278 -1.1471 -0.6030 -0.7098
   47MOL    C6117633   0.762   3.449   0.280  0.4494 -0.7814  0.5172
   47MOL    O6217634   0.728   3.369   0.188 -0.8628  0.6863  0.0231
   47MOL    N6317635   0.842   3.429   0.387 -0.4492 -0.3421  0.1692
   47MOL    C6417636   0.910   3.301   0.402  0.1876  0.1644  0.7133
   47MOL    C6517637   1.061   3.325   0.441 -0.2499  0.3177  0.0382
   47MOL    C6617638   0.841   3.208   0.505  0.1706  1.0052 -0.8754
   47MOL    H6717639   0.672   3.771   0.175 -1.2814  0.0535  1.0783
   47MOL    H6817640   0.674   3.625   0.070 -0.4150  0.0842 -0.4817
   47MOL    H6917641   0.715   3.640   0.367 -1.3374 -0.6726 -0.6076
   47MOL    H7017642   0.841   3.499   0.461 -3.0250  0.7784 -0.8619
   47MOL    H7117643   0.912   3.252   0.305  2.6483  1.3394  0.1282
   47MOL    H7217644   1.064   3.359   0.545 -2.1572  0.6916 -0.0102
   47MOL    H7317645   1.120   3.236   0.424  0.4693  0.9203 -0.6534
   47MOL    H7417646   1.098   3.393   0.364  1.9726 -1.2301 -0.2979
   47MOL    H7517647   0.819   3.269   0.593 -0.5932 -0.2280 -0.1984
   47MOL    H7617648   0.741   3.172   0.480 -0.6354 -0.3949  3.8925
   47MOL    H7717649   0.893   3.117   0.534 -0.4223  0.2966 -2.0279
   47MOL    C7817650   0.534   3.561   0.288 -0.5285  0.4016  0.3127
   47MOL    C7917651   0.455   3.593   0.419  0.5459 -0.2193  0.3982
   47MOL    C8017652   0.505   3.497   0.531  0.6681  0.1640 -0.0083
   47MOL    O8117653   0.604   3.521   0.597  0.2874  0.1710  0.1285
   47MOL    N8217654   0.437   3.385   0.542 -0.4351 -0.6102  0.1194
   47MOL    C8317655   0.459   3.268   0.631 -0.9233 -0.0956 -0.1705
   47MOL    C8417656   0.369   3.253   0.757  0.6190 -0.3286 -0.3515
   47MOL    C8517657   0.461   3.140   0.550 -0.2780 -0.2814 -0.1047
   47MOL    H8617658   0.508   3.459   0.257  0.1103  0.0377  0.9596
   47MOL    H8717659   0.476   3.611   0.210 -0.3563 -1.0023 -0.7548
   47MOL    H8817660   0.350   3.567   0.402 -0.2240  3.6978 -1.4849
   47MOL    H8917661   0.366   3.373   0.471 -0.5008 -0.3099  0.1376
   47MOL    H9017662   0.564   3.264   0.663 -0.8853  1.0974 -0.1556
   47MOL    H9117663   0.391   3.166   0.819  0.3811 -0.7209 -0.8192
   47MOL    H9217664   0.351   3.330   0.832 -3.9140 -1.2751 -0.3358
   47MOL    H9317665   0.266   3.251   0.723  0.6570 -1.1240 -0.4322
   47MOL    H9417666   0.515   3.142   0.455 -1.9311  1.2107 -1.0258
   47MOL    H9517667   0.354   3.125   0.536 -0.7112  3.0866 -0.6223
   47MOL    H9617668   0.501   3.050   0.598 -0.0194  0.6446  1.4621
   47MOL    C9717669   0.446   3.746   0.451 -0.0457  0.2091  0.5645
   47MOL    C9817670   0.377   3.766   0.595  0.5481 -0.5032 -0.3591
   47MOL    C9917671   0.231   3.721   0.594  0.0250  0.5075  0.3284
   47MOL   O10017672   0.154   3.778   0.518 -0.1096 -0.2029 -0.0904
   47MOL   N10117673   0.184   3.641   0.686 -0.9105  0.6513  0.7401
   47MOL   C10217674   0.045   3.602   0.719 -0.2844 -0.2977  0.7208
   47MOL   C10317675   0.059   3.452   0.758  0.1568  0.1702 -0.2291
   47MOL   C10417676   7.811   3.691   0.824  0.1935 -0.5434  0.2113
   47MOL   H10517677   0.381   3.784   0.372  1.0355  0.1938 -0.3332
   47MOL   H10617678   0.544   3.792   0.438 -0.9889  2.5679  1.4426
   47MOL   H10717679   0.426   3.708   0.673 -2.6508 -1.6201  0.9202
   47MOL   H10817680   0.254   3.612   0.753 -1.6186  0.6045  1.4664
   47MOL   H10917681   7.808   3.614   0.639 -0.2845  1.1639  0.9214
   47MOL   H11017682   7.795   3.414   0.780  0.1543 -0.9226 -1.9941
   47MOL   H11117683   0.100   3.395   0.674 -1.9575  0.5498 -1.5622
   47MOL   H11217684   0.128   3.448   0.842 -0.7235 -1.6443  0.4386
   47MOL   H11317685   0.031   3.685   0.918 -1.8537 -1.2171  1.4199
   47MOL   H11417686   7.706   3.664   0.821  0.1017 -0.0903 -1.1755
   47MOL   H11517687   7.816   3.792   0.783 -1.1591 -0.5382  0.0512
   47MOL   C11617688   0.383   3.920   0.635  0.2447 -0.2835 -0.2813
   47MOL   C11717689   0.375   3.945   0.788  1.0514  0.1427 -0.0501
   47MOL   C11817690   0.349   4.096   0.811 -0.5424 -0.1330  0.0999
   47MOL   O11917691   0.434   4.171   0.770  0.3332  0.2329 -0.6501
   47MOL   N12017692   0.236   4.134   0.870  0.7011  0.2945 -0.4472
   47MOL   C12117693   0.189   4.275   0.882  0.1927  0.0171  0.0091
   47MOL   C12217694   0.048   4.299   0.821 -0.0208 -0.7363 -0.0270
   47MOL   C12317695   0.220   4.329   1.018  0.0239  0.2448 -0.6657
   47MOL   H12417696   0.321   3.971   0.562  0.4477  0.9319  0.3770
   47MOL   H12517697   0.476   3.970   0.605 -1.7312  2.5027 -1.9757
   47MOL   H12617698   0.276   3.907   0.812  1.6400 -1.9190 -0.8309
   47MOL   H12717699   0.168   4.061   0.887  0.2718  0.5724 -0.9324
   47MOL   H12817700   0.246   4.333   0.810 -2.7134  2.5424 -0.3599
   47MOL   H12917701   7.807   4.257   0.885  1.3844 -0.5795  1.8299
   47MOL   H13017702   0.036   4.250   0.725  0.6058 -0.2600 -0.3579
   47MOL   H13117703   0.028   4.405   0.807  0.2002 -0.5033  1.2889
   47MOL   H13217704   0.325   4.302   1.032 -0.0605  0.6555  0.8627
   47MOL   H13317705   0.221   4.438   1.010  2.4177  0.5327  2.4596
   47MOL   H13417706   0.157   4.300   1.102 -0.0111 -2.3905 -1.5650
   47MOL   C13517707   0.482   3.880   0.877  0.3315  0.3987 -0.5476
   47MOL   C13617708   0.445   3.812   1.011  0.4834 -0.8707  0.1553
   47MOL   C13717709   0.395   3.665   1.009  0.0232 -0.1545 -0.1872
   47MOL   O13817710   0.387   3.608   0.902  0.0001  0.4011  0.2962
   47MOL   N13917711   0.369   3.607   1.124 -0.5295  1.1662 -0.1466
   47MOL   C14017712   0.335   3.465   1.141 -1.0792 -0.1808  0.8424
   47MOL   C14117713   0.265   3.437   1.272  0.2267 -0.4978 -0.1572
   47MOL   C14217714   0.467   3.391   1.132 -0.0637 -0.2795  0.1492
   47MOL   H14317715   0.552   3.960   0.899  0.9050 -0.3539  0.3822
   47MOL   H14417716   0.546   3.817   0.814  0.5767  0.0577  0.0414
   47MOL   H14517717   0.367   3.865   1.067  1.5176 -0.6003  1.3550
   47MOL   H14617718   0.391   3.655   1.210  1.7253  0.0219 -0.0347
   47MOL   H14717719   0.261   3.440   1.065  0.5342 -0.4389 -0.6937
   47MOL   H14817720   0.243   3.331   1.283  1.9191 -0.9411 -0.8551
   47MOL   H14917721   0.318   3.450   1.366 -2.2045 -1.1185  1.3354
   47MOL   H15017722   0.168   3.487   1.279  0.0304 -1.0464  1.1439
   47MOL   H15117723   0.446   3.284   1.128  0.3933 -0.3124 -1.9692
   47MOL   H15217724   0.540   3.412   1.210 -0.6521 -0.9348  0.8877
   47MOL   H15317725   0.511   3.412   1.034 -0.8272  1.8336  0.2364
   47MOL   C15417726   0.570   3.802   1.107 -0.5354 -0.1015 -0.3618
   47MOL   C15517727   0.541   3.872   1.248 -0.4029 -0.1601 -0.7865
   47MOL   C15617728   0.527   4.024   1.246  0.0061  0.3528  0.6890
   47MOL   O15717729   0.427   4.070   1.288  0.4316 -0.0721  0.4170
   47MOL   N15817730   0.627   4.095   1.201  0.0736  0.0850  0.0787
   47MOL   C15917731   0.654   4.240   1.195  0.3141 -0.3951 -0.0267
   47MOL   C16017732   0.675   4.280   1.053  0.1023  0.0997  0.5603
   47MOL   C16117733   0.773   4.282   1.290 -0.4344 -1.0803  0.1799
   47MOL   H16217734   0.659   3.851   1.067  0.8381 -1.4002  1.0431
   47MOL   H16317735   0.599   3.699   1.125  1.7157  0.9876  2.9451
   47MOL   H16417736   0.449   3.824   1.281 -2.1535  1.8129 -2.6743
   47MOL   H16517737   0.701   4.042   1.158  0.3164  1.3198 -1.0750
   47MOL   H16617738   0.567   4.290   1.236  1.4070  1.1288  0.4654
   47MOL   H16717739   0.765   4.239   1.008 -0.7621  0.4423 -1.5440
   47MOL   H16817740   0.593   4.237   0.995  1.0284  0.9823 -1.4566
   47MOL   H16917741   0.653   4.385   1.035 -0.6243  0.4244  3.1353
   47MOL   H17017742   0.868   4.231   1.272  0.4309  0.8305 -0.7645
   47MOL   H17117743   0.749   4.272   1.396  0.2189 -0.9146  0.3507
   47MOL   H17217744   0.781   4.389   1.273 -3.2475 -0.3732  2.8614
   47MOL   C17317745   0.662   3.836   1.337  0.6262  0.3627 -0.3896
   47MOL   C17417746   0.660   3.867   1.490  0.2987  0.0653  0.2730
   47MOL   C17517747   0.571   3.775   1.572 -0.0719  0.3593  0.4621
   47MOL   O17617748   0.616   3.675   1.629 -0.0642 -0.2801  0.0573
   47MOL   N17717749   0.441   3.804   1.571 -0.1661 -0.4917  0.0655
   47MOL   C17817750   0.336   3.741   1.652 -0.0863  0.4817  0.0453
   47MOL   C17917751   0.213   3.708   1.559 -0.5711  0.2413 -0.6685
   47MOL   C18017752   0.299   3.837   1.759 -0.2580 -0.3246 -0.3651
   47MOL   H18117753   0.749   3.889   1.299  2.1854 -1.8731 -0.0489
   47MOL   H18217754   0.686   3.730   1.325 -0.4951 -0.1639  1.6747
   47MOL   H18317755   0.631   3.971   1.507  0.6222  0.3564 -0.9037
   47MOL   H18417756   0.410   3.872   1.503 -0.9402 -1.6434 -0.7616
   47MOL   H18517757   0.375   3.650   1.696  1.9257  0.9950 -0.6375
   47MOL   H18617758   0.151   3.641   1.618  0.7549  0.4610  1.0091
   47MOL   H18717759   0.246   3.654   1.470 -2.1986 -0.1637 -1.0467
   47MOL   H18817760   0.160   3.799   1.531  0.1488  1.1791  0.9434
   47MOL   H18917761   0.374   3.848   1.837 -0.2793 -0.1982 -0.3617
   47MOL   H19017762   0.210   3.803   1.812 -0.5737  2.8442  1.2668
   47MOL   H19117763   0.272   3.935   1.719  2.1840  0.9846  1.0456
   47MOL   C19217764   0.805   3.878   1.547  0.2855 -0.6990  0.0357
   47MOL   C19317765   0.847   3.900   1.688  0.4998  0.4055  0.5542
   47MOL   C19417766   0.746   3.995   1.749  0.6657 -0.0694 -0.0230
   47MOL   O19517767   0.723   4.102   1.685  0.1019  0.4054 -0.1749
   47MOL   N19617768   0.710   3.967   1.880 -0.8302  0.0040  0.2044
   47MOL   C19717769   0.666   4.061   1.981 -0.5344 -0.0969  0.8022
   47MOL   C19817770   0.507   4.075   1.983  0.3980  0.0481  0.4550
   47MOL   C19917771   0.715   4.024   2.119  0.0902 -0.4364  0.4802
   47MOL   H20017772   0.857   3.950   1.485  0.2435  0.6025  1.5100
   47MOL   H20117773   0.839   3.776   1.528  0.2649 -0.5891 -0.6088
   47MOL   H20217774   0.831   3.811   1.749  0.3203  0.1980  0.2078
   47MOL   H20317775   0.736   3.874   1.909 -0.8547  0.4753  1.8078
   47MOL   H20417776   0.720   4.151   1.950 -1.7904 -0.2316 -1.8976
   47MOL   H20517777   0.470   3.985   2.033 -1.0610 -0.5488 -1.6197
   47MOL   H20617778   0.464   4.062   1.884  1.7914 -0.8352 -0.0590
   47MOL   H20717779   0.469   4.162   2.036  0.0751 -0.8402  1.7304
   47MOL   H20817780   0.670   3.938   2.169  0.1983  0.3094  1.9107
   47MOL   H20917781   0.690   4.110   2.182 -1.3384 -1.0895  0.8233
   47MOL   H21017782   0.823   4.008   2.121  0.0329 -0.8135  0.5780
   47MOL   C21117783   0.992   3.944   1.700  0.0744 -0.1542 -0.3023
   47MOL   C21217784   1.099   3.841   1.651  0.7061  0.1592  0.1988
   47MOL   C21317785   1.237   3.908   1.626  0.7761  0.3195 -0.9604
   47MOL   O21417786   1.266   4.016   1.668  0.0597  0.1171 -0.4223
   47MOL   N21517787   1.333   3.827   1.571  0.0928 -0.2496  0.4633
   47MOL   C21617788   1.472   3.864   1.569 -0.6447 -0.2694 -0.7333
   47MOL   C21717789   1.537   3.821   1.433 -0.1089  0.1633 -0.6773
   47MOL   C21817790   1.541   3.807   1.687 -0.1162  0.7714  0.0986
   47MOL   H21917791   1.018   3.974   1.802  1.4825 -0.3079 -0.6056
   47MOL   H22017792   1.011   4.044   1.662 -0.8487  0.3024  0.3870
   47MOL   H22117793   1.085   3.808   1.549  0.9294  2.3258 -0.5578
   47MOL   H22217794   1.300   3.733   1.557 -0.1909 -0.1670  0.5886
   47MOL   H22317795   1.499   3.969   1.578  0.8149 -0.5645 -1.4450
   47MOL   H22417796   1.499   3.888   1.357 -0.8782 -3.4748 -3.6580
   47MOL   H22517797   1.646   3.824   1.425  0.1559 -2.6623  1.2187
   47MOL   H22617798   1.515   3.716   1.413  2.4393 -0.6241  0.4024
   47MOL   H22717799   1.516   3.700   1.688 -4.8073  1.7324 -1.4785
   47MOL   H22817800   1.493   3.836   1.780 -2.4234 -0.8465 -0.5322
   47MOL   H22917801   1.648   3.827   1.688  0.0266  0.0541  0.0142
   47MOL   C23017802   1.116   3.714   1.732  0.3995  0.3865 -0.0086
   47MOL   C23117803   1.187   3.704   1.867 -0.2619 -0.5954 -0.3080
   47MOL   C23217804   1.115   3.795   1.968  0.4342 -0.0064 -0.3854
   47MOL   O23317805   0.991   3.785   1.990 -0.2756 -0.3712  0.5079
   47MOL   N23417806   1.182   3.891   2.041 -0.2449 -0.0678  0.5039
   47MOL   C23517807   1.135   3.993   2.125 -0.2932  0.3703  0.8339
   47MOL   C23617808   1.061   3.940   2.254  0.4455  0.2396  0.7631
   47MOL   C23717809   1.258   4.077   2.165  0.5415  0.0016 -0.0481
   47MOL   H23817810   1.172   3.642   1.672 -1.2028 -1.5094  0.7213
   47MOL   H23917811   1.014   3.677   1.741  0.4181  0.3728  0.1453
   47MOL   H24017812   1.287   3.747   1.854 -0.2117 -0.5902  0.0938
   47MOL   H24117813   1.282   3.894   2.026 -0.5449 -0.9884 -1.9656
   47MOL   H24217814   1.053   4.046   2.078 -0.8173  0.3050  1.6591
   47MOL   H24317815   0.973   3.879   2.235  0.6311 -0.4669  2.0709
   47MOL   H24417816   1.140   3.880   2.300 -0.7889 -1.2391  0.9746
   47MOL   H24517817   1.035   4.022   2.321  2.1708 -0.8512  2.8190
   47MOL   H24617818   1.228   4.166   2.221 -1.0859 -1.2680  1.1412
   47MOL   H24717819   1.312   4.132   2.088 -0.4646 -0.2685 -0.9675
   47MOL   H24817820   1.329   4.024   2.229 -0.4937 -0.9956  0.2960
   47MOL   C24917821   1.205   3.563   1.912 -0.3463  0.6761 -0.3715
   47MOL   C25017822   1.301   3.550   2.032  0.5266 -0.0744 -0.2904
   47MOL   C25117823   1.452   3.552   1.994  0.8751 -0.7844 -0.4346
   47MOL   O25217824   1.489   3.489   1.895  0.1526  0.1372 -0.5834
   47MOL   N25317825   1.537   3.625   2.064  0.9166 -0.0188 -0.5275
   47MOL   C25417826   1.669   3.667   2.022 -0.4522 -0.1846  0.1200
   47MOL   C25517827   1.690   3.812   2.075 -0.2501 -0.0991 -0.6679
   47MOL   C25617828   1.779   3.575   2.064 -0.5098 -0.5897 -0.1810
   47MOL   H25717829   1.243   3.507   1.826 -1.0457  0.8140 -0.7757
   47MOL   H25817830   1.105   3.529   1.937  0.0020 -0.3895 -0.3854
   47MOL   H25917831   1.289   3.631   2.104  0.1397 -2.4488  2.4554
   47MOL   H26017832   1.495   3.669   2.144 -1.1671 -0.9595 -1.0591
   47MOL   H26117833   1.665   3.680   1.914  0.2475 -3.4374 -0.3556
   47MOL   H26217834   1.619   3.886   2.037  0.7007  0.8479 -0.6356
   47MOL   H26317835   1.690   3.810   2.184  0.5885 -1.1517 -0.6858
   47MOL   H26417836   1.787   3.846   2.038  0.5498  0.0170  1.4275
   47MOL   H26517837   1.780   3.570   2.173 -0.4495 -0.7814 -0.1893
   47MOL   H26617838   1.744   3.479   2.027 -2.7050 -0.1813  0.8169
   47MOL   H26717839   1.879   3.592   2.023  0.0483 -1.3175  0.8442
   47MOL   C26817840   1.248   3.428   2.119 -0.7778  0.4675 -0.1240
   47MOL   C26917841   1.300   3.402   2.263  0.5217  0.2675  0.5775
   47MOL   C27017842   1.279   3.519   2.360 -1.0473  1.1319 -0.8656
   47MOL   O27117843   1.166   3.546   2.401  0.2116  0.1082 -0.3187
   47MOL   N27217844   1.391   3.586   2.401  0.1889  0.4423 -0.3587
   47MOL   C27317845   1.387   3.698   2.491  0.4300 -0.0613 -0.2481
   47MOL   C27417846   1.471   3.665   2.623  0.2406  0.3170  0.3698
   47MOL   C27517847   1.454   3.814   2.420 -0.7348 -0.4434  0.1920
   47MOL   H27617848   1.139   3.428   2.129 -0.7899 -0.6434 -0.2438
   47MOL   H27717849   1.263   3.333   2.069  0.0142  0.7000 -0.3336
   47MOL   H27817850   1.405   3.377   2.246  0.1970  0.2500 -1.5050
   47MOL   H27917851   1.476   3.570   2.349 -0.2028  0.1158 -0.9067
   47MOL   H28017852   1.287   3.722   2.526 -0.2469 -1.3948 -1.2339
   47MOL   H28117853   1.468   3.753   2.688  1.4216  1.5772 -1.2517
   47MOL   H28217854   1.416   3.588   2.677 -0.8436  1.7732  1.3684
   47MOL   H28317855   1.574   3.634   2.607  0.1812  1.1458 -1.7311
   47MOL   H28417856   1.475   3.899   2.485 -2.3237 -1.5894  2.2790
   47MOL   H28517857   1.544   3.782   2.368  1.3403  0.8538  2.8634
   47MOL   H28617858   1.384   3.848   2.343  0.1463 -1.1203 -0.9214
   47MOL   C28717859   1.231   3.274   2.311  0.1039  0.4436 -0.5853
   47MOL   C28817860   1.284   3.212   2.442 -0.1747 -0.2273 -0.7615
   47MOL   C28917861   1.437   3.208   2.441  0.2546 -0.1269 -0.0571
   47MOL   O29017862   1.500   3.155   2.345 -0.3276 -0.4142 -0.3869
   47MOL   N29117863   1.500   3.266   2.546  0.6214  0.2544  0.0527
   47MOL   C29217864   1.640   3.254   2.574 -0.3508  0.0582 -0.2360
   47MOL   C29317865   1.728   3.371   2.516  0.3064 -0.3506 -0.5767
   47MOL   C29417866   1.652   3.267   2.724 -0.0378  0.5492  0.1641
   47MOL   H29517867   1.122   3.280   2.309  0.0850  0.3563 -0.0411
   47MOL   H29617868   1.244   3.194   2.238  1.6080  1.3248 -1.2985
   47MOL   H29717869   1.264   3.273   2.530  1.3807  0.5520 -0.9245
   47MOL   H29817870   1.443   3.311   2.617 -0.8723 -2.7929  0.8956
   47MOL   H29917871   1.659   3.155   2.533  2.0366  0.5547 -0.4399
   47MOL   H30017872   1.692   3.465   2.559 -0.6729 -1.0618  0.1758
   47MOL   H30117873   1.828   3.365   2.560 -0.0660 -0.6270  0.2517
   47MOL   H30217874   1.735   3.373   2.407 -0.6845 -2.1269 -0.6929
   47MOL   H30317875   1.612   3.359   2.767  0.6115  0.3406  1.2560
   47MOL   H30417876   1.613   3.179   2.776 -0.8601 -0.0255 -1.3864
   47MOL   H30517877   1.754   3.248   2.758 -0.2008  0.4816  0.6298
   47MOL   C30617878   1.227   3.076   2.466 -0.0265 -0.6793 -0.5930
   47MOL   C30717879   1.121   3.066   2.586  0.2805  0.5746  0.4046
   47MOL   C30817880   1.087   2.917   2.620 -0.3383 -0.2284 -0.6805
   47MOL   O30917881   1.090   2.833   2.532  0.1438  0.3225  0.0293
   47MOL   N31017882   1.059   2.887   2.751  0.4358 -0.3366 -0.4896
   47MOL   C31117883   1.031   2.757   2.804 -0.4473  0.0548  0.0462
   47MOL   C31217884   1.077   2.760   2.953  0.1226  0.4330 -0.6323
   47MOL   C31317885   0.890   2.712   2.794  0.7041 -0.5800 -0.3195
   47MOL   H31417886   1.191   3.042   2.369  0.1250 -0.1356 -0.8428
   47MOL   H31517887   1.303   3.004   2.495 -0.1724  0.0953  1.8171
   47MOL   H31617888   1.164   3.120   2.670 -1.0305 -0.9138  2.0743
   47MOL   H31717889   1.043   2.967   2.811 -0.3881 -0.6582 -0.2776
   47MOL   H31817890   1.091   2.681   2.753 -1.5175 -0.5363 -0.3376
   47MOL   H31917891   1.060   2.673   3.016 -0.2805  0.7094 -0.3555
   47MOL   H32017892   1.035   2.847   3.005  0.2062  0.0301  0.1119
   47MOL   H32117893   1.185   2.770   2.959  0.0984  0.0608  0.7225
   47MOL   H32217894   0.883   2.611   2.835 -1.4381  0.1203  1.1130
   47MOL   H32317895   0.847   2.700   2.694 -1.1818 -3.0710  0.7308
   47MOL   H32417896   0.817   2.771   2.848  0.7689  1.0852 -2.0016
   47MOL   C32517897   0.988   3.136   2.543  1.2360 -0.2176  0.3752
   47MOL   C32617898   0.978   3.286   2.586  0.0995 -0.5749  0.1304
   47MOL   C32717899   0.876   3.361   2.507 -0.6927  0.8097 -1.1595
   47MOL   O32817900   0.758   3.327   2.525  0.1435  0.1451  0.0303
   47MOL   N32917901   0.918   3.456   2.423  0.0273 -0.4731  0.5534
   47MOL   C33017902   0.824   3.539   2.353 -0.0049  0.7188  0.2141
   47MOL   C33117903   0.896   3.603   2.231 -0.0810 -0.0145  0.2383
   47MOL   C33217904   0.784   3.649   2.449  0.4223 -0.1431  0.4958
   47MOL   H33317905   0.902   3.081   2.583  1.6766 -1.3437 -0.2013
   47MOL   H33417906   0.975   3.122   2.436 -2.5085  0.4677  0.6597
   47MOL   H33517907   1.080   3.322   2.572 -0.0202 -1.3427 -3.0435
   47MOL   H33617908   1.015   3.485   2.426  0.2878 -1.2196 -0.2680
   47MOL   H33717909   0.742   3.474   2.319  0.9127 -0.3756  0.0515
   47MOL   H33817910   0.996   3.633   2.260  0.7052 -2.5915  0.3418
   47MOL   H33917911   0.916   3.532   2.150 -0.0250 -0.2842  0.4871
   47MOL   H34017912   0.837   3.684   2.189 -1.7680 -2.1655 -1.7035
   47MOL   H34117913   0.766   3.624   2.553 -0.9890  2.6325  0.9635
   47MOL   H34217914   0.698   3.703   2.408  1.7681  2.2846  0.8257
   47MOL   H34317915   0.864   3.722   2.447  1.1407 -0.8967  1.6947
   47MOL   C34417916   0.952   3.294   2.742  0.3753  0.3325  0.5557
   47MOL   C34517917   1.034   3.392   2.823 -0.0789  0.3475  0.1188
   47MOL   C34617918   1.183   3.336   2.836  0.4997  0.2691 -0.3358
   47MOL   O34717919   1.278   3.374   2.769 -0.2354 -0.0704 -0.2354
   47MOL   N34817920   1.188   3.238   2.934 -0.3817  0.0298  0.2457
   47MOL   C34917921   1.312   3.170   2.979 -0.2404  0.0023 -0.7416
   47MOL   C35017922   1.280   3.094   3.109  0.3303 -0.3304  0.2350
   47MOL   C35117923   1.373   3.068   2.878  0.8690  0.6045 -0.6208
   47MOL   H35217924   0.969   3.192   2.779 -2.8263 -0.6868 -0.6202
   47MOL   H35317925   0.845   3.299   2.762  0.0458 -0.5361 -0.9182
   47MOL   H35417926   1.001   3.408   2.926  1.8989  0.7623  0.6917
   47MOL   H35517927   1.106   3.222   2.991 -1.1196  0.0621 -0.7762
   47MOL   H35617928   1.393   3.242   2.988  0.8660 -0.8844 -3.0445
   47MOL   H35717929   1.281   3.166   3.191  1.4908 -1.3311  1.1268
   47MOL   H35817930   1.188   3.037   3.111  1.4097 -2.1657 -0.8489
   47MOL   H35917931   1.350   3.020   3.148  0.3221 -0.0578  0.7776
   47MOL   H36017932   1.404   3.120   2.787  1.2180  1.4319 -0.0382
   47MOL   H36117933   1.465   3.026   2.919 -0.4435 -0.6175  1.1030
   47MOL   H36217934   1.314   2.980   2.854  0.2100  0.7931  0.2966
   47MOL   C36317935   1.032   3.536   2.777 -0.7385 -0.1703 -0.5461
   47MOL   C36417936   1.074   3.651   2.878 -0.4552 -0.1160  0.4176
   47MOL   C36517937   1.062   3.790   2.816 -0.6648  0.7914  0.2537
   47MOL   O36617938   1.165   3.859   2.800 -0.3361 -0.1404 -0.2705
   47MOL   N36717939   0.941   3.838   2.801  0.3431  0.1979  0.1394
   47MOL   C36817940   0.921   3.981   2.766  0.4756  0.1038 -0.6489
   47MOL   C36917941   0.918   3.995   2.609 -0.1579 -0.5116 -0.5835
   47MOL   C37017942   0.781   4.018   2.814 -0.2487 -0.0230 -0.2538
   47MOL   H37117943   0.930   3.565   2.753 -1.2168 -0.6313  0.8583
   47MOL   H37217944   1.090   3.549   2.686 -1.2066  1.3612 -0.6332
   47MOL   H37317945   1.180   3.629   2.890 -0.3640  1.3155  2.5086
   47MOL   H37417946   0.862   3.777   2.820  0.1948  0.7248  1.2642
   47MOL   H37517947   0.994   4.050   2.808  1.0946 -0.9562  0.0448
   47MOL   H37617948   0.868   4.086   2.577  2.5689  0.5738 -1.8519
   47MOL   H37717949   1.023   4.009   2.583 -0.1352  0.4524  0.0508
   47MOL   H37817950   0.882   3.909   2.552  0.1237 -0.0654 -1.4456
   47MOL   H37917951   0.759   4.123   2.834  0.1116 -0.4596  2.7365
   47MOL   H38017952   0.701   3.989   2.746  1.3168  0.4697 -2.3610
   47MOL   H38117953   0.761   3.970   2.910 -1.7658  2.8208  0.9219
   47MOL   H38217954   1.020   3.631   2.970 -0.0971 -1.5411  0.3393
   48MOL     C117955   0.380   5.699   7.206 -0.2326 -0.8933  0.2705
   48MOL     C217956   0.490   5.763   7.125 -0.6867 -0.4062  0.5123
   48MOL     C317957   0.540   5.888   7.196  0.6078 -0.7098 -0.2291
   48MOL     O417958   0.648   5.878   7.252 -0.0773 -0.0997  0.5419
   48MOL     N517959   0.472   6.003   7.183  0.2607 -0.0683  0.2909
   48MOL     C617960   0.514   6.127   7.252 -0.9576 -0.3596  0.1957
   48MOL     C717961   0.474   6.136   7.400 -0.1262 -0.3146 -0.5559
   48MOL     C817962   0.666   6.165   7.235  0.3770  0.6657 -0.3606
   48MOL     H917963   0.299   5.766   7.234  0.6825 -0.9028  3.1588
   48MOL    H1017964   0.412   5.662   7.304  0.4781  0.2646  0.4869
   48MOL    H1117965   0.450   5.801   7.031 -0.1594  0.9412  0.8078
   48MOL    H1217966   0.395   6.013   7.117  1.4026  0.3802 -0.9975
   48MOL    H1317967   0.470   6.213   7.202 -2.0371  0.2735  2.2006
   48MOL    H1417968   0.553   6.088   7.459 -0.0434  1.0195  0.4385
   48MOL    H1517969   0.391   6.069   7.423 -0.5455  0.1272 -0.7874
   48MOL    H1617970   0.462   6.240   7.430  0.7917 -0.1747 -0.6532
   48MOL    H1717971   0.694   6.155   7.130  2.1208  2.6408 -0.1113
   48MOL    H1817972   0.671   6.270   7.263  0.2360  0.4885  0.3534
   48MOL    H1917973   0.737   6.103   7.290  0.2690  0.6214 -0.2692
   48MOL    H2017974   0.339   5.617   7.148 -0.9162 -0.1273 -0.3364
   48MOL    C2117975   0.596   5.647   7.105 -0.6047  0.5933 -0.0824
   48MOL    C2217976   0.656   5.572   7.228 -0.1400  0.1913 -0.8164
   48MOL    C2317977   0.814   5.586   7.234  0.4049 -0.1773  0.2480
   48MOL    O2417978   0.886   5.492   7.219 -0.4706 -0.4254 -0.1628
   48MOL    N2517979   0.859   5.702   7.277 -0.0781  0.0350  0.0532
   48MOL    C2617980   0.988   5.733   7.329 -1.4215 -0.1517  0.0383
   48MOL    C2717981   0.977   5.770   7.479 -0.1212  0.5380 -0.3896
   48MOL    C2817982   1.065   5.850   7.253  0.1597  0.1656  0.0701
   48MOL    H2917983   0.666   5.700   7.040 -0.4416  0.0518 -0.3524
   48MOL    H3017984   0.545   5.581   7.034 -2.0264  1.9594 -0.3601
   48MOL    H3117985   0.613   5.619   7.316  3.8187  3.0796 -0.2844
   48MOL    H3217986   0.787   5.774   7.276  1.2623  1.4323  1.4851
   48MOL    H3317987   1.052   5.646   7.309 -0.7991  0.4423 -0.5806
   48MOL    H3417988   0.941   5.872   7.491  0.8873  0.9046 -0.4088
   48MOL    H3517989   1.077   5.777   7.523 -0.1462  2.1489 -0.5658
   48MOL    H3617990   0.920   5.693   7.530  3.3307 -2.5935 -1.0203
   48MOL    H3717991   1.164   5.881   7.287 -0.4447  1.7502  0.4330
   48MOL    H3817992   1.086   5.841   7.146 -0.2376 -1.0192  0.0797
   48MOL    H3917993   1.000   5.937   7.256  1.8788  1.4976 -0.4841
   48MOL    C4017994   0.606   5.421   7.227 -0.1946  0.1551 -0.2515
   48MOL    C4117995   0.651   5.318   7.331  0.2512  0.2172  0.6128
   48MOL    C4217996   0.586   5.175   7.317 -0.8364 -0.2651  0.1116
   48MOL    O4317997   0.465   5.159   7.295 -0.6295 -0.4471 -0.3693
   48MOL    N4417998   0.670   5.076   7.318  0.4019  0.5633 -0.5384
   48MOL    C4517999   0.631   4.938   7.341  0.2677 -0.3264  0.6413
   48MOL    C4618000   0.734   4.858   7.263 -0.2801  0.3941 -0.3148
   48MOL    C4718001   0.628   4.909   7.487 -0.4311 -0.3637  0.2117
   48MOL    H4818002   0.653   5.384   7.136  2.0783  0.7179  0.6768
   48MOL    H4918003   0.497   5.421   7.230 -0.2244 -1.8713 -0.4355
   48MOL    H5018004   0.756   5.305   7.302  0.8364  4.8721  0.1140
   48MOL    H5118005   0.769   5.094   7.322 -0.0114  3.0267 -0.4020
   48MOL    H5218006   0.535   4.925   7.292  0.4077  1.1450 -0.0541
   48MOL    H5318007   0.754   4.898   7.164 -0.8417  1.9603  0.2029
   48MOL    H5418008   0.715   4.751   7.247 -1.6524  0.7656 -1.2319
   48MOL    H5518009   0.828   4.867   7.317 -0.1030 -1.2467 -0.3197
   48MOL    H5618010   0.530   4.933   7.527  0.3112  2.0482  0.6140
   48MOL    H5718011   0.708   4.967   7.534 -0.1680 -0.2399 -0.3869
   48MOL    H5818012   0.637   4.806   7.524 -1.2973 -1.2837 -2.0572
   48MOL    C5918013   0.633   5.357   7.484  0.2297 -0.0572 -0.2860
   48MOL    C6018014   0.495   5.348   7.564 -0.2318  0.2917 -0.1384
   48MOL    C6118015   0.380   5.430   7.505 -0.5393  0.1932  1.4222
   48MOL    O6218016   0.377   5.547   7.534 -0.0901  0.1761  0.3323
   48MOL    N6318017   0.297   5.358   7.427  0.3218 -0.2972 -0.1315
   48MOL    C6418018   0.183   5.412   7.358  0.0315 -0.1766 -0.1863
   48MOL    C6518019   0.159   5.358   7.218  0.1383 -0.6192  0.2075
   48MOL    C6618020   0.065   5.413   7.454  0.1452 -0.1568 -0.4096
   48MOL    H6718021   0.703   5.306   7.550  0.2980  0.2580 -0.1139
   48MOL    H6818022   0.667   5.460   7.498 -0.9842  0.3943 -0.5697
   48MOL    H6918023   0.460   5.245   7.564 -0.3149  0.2606  3.4895
   48MOL    H7018024   0.329   5.265   7.405 -0.0747 -1.0447  2.3309
   48MOL    H7118025   0.202   5.518   7.338 -1.2255  0.2308  0.7705
   48MOL    H7218026   0.157   5.249   7.221 -1.1269 -0.6028  0.0480
   48MOL    H7318027   0.075   5.394   7.159  0.4759 -0.5278 -0.2185
   48MOL    H7418028   0.249   5.384   7.163  0.1855 -0.2926  0.4361
   48MOL    H7518029   0.098   5.453   7.550  1.3894  0.6264 -1.1538
   48MOL    H7618030   7.822   5.477   7.415  0.2416 -0.7434 -1.5653
   48MOL    H7718031   0.028   5.314   7.483  2.6992 -0.9208  0.4136
   48MOL    C7818032   0.522   5.383   7.712 -0.2044 -0.4511 -0.0628
   48MOL    C7918033   0.406   5.361   7.805  0.3055 -0.8935  0.0734
   48MOL    C8018034   0.386   5.211   7.824  0.1462 -0.4601  0.1790
   48MOL    O8118035   0.478   5.134   0.007 -0.0292  0.3511  0.1951
   48MOL    N8218036   0.263   5.169   7.820  0.5743  0.0112  0.1343
   48MOL    C8318037   0.215   5.031   7.793 -0.4892 -0.0713  0.2062
   48MOL    C8418038   0.068   5.012   0.004 -0.1721 -0.3128 -0.6440
   48MOL    C8518039   0.218   5.017   7.645 -0.1113 -0.0316 -0.6596
   48MOL    H8618040   0.553   5.488   7.717 -1.2417 -0.1640  0.6814
   48MOL    H8718041   0.601   5.320   7.752  1.2655  1.5435  0.2963
   48MOL    H8818042   0.314   5.402   7.761  0.3672  0.7206  1.4004
   48MOL    H8918043   0.190   5.240   7.824 -0.4684 -1.0021 -0.6032
   48MOL    H9018044   0.275   4.951   7.835 -1.2829 -3.0021 -3.9784
   48MOL    H9118045   0.041   4.909   7.814  2.0363 -0.8993 -0.6864
   48MOL    H9218046   0.071   5.029   0.112  0.5267  1.1814 -0.8967
   48MOL    H9318047   7.833   5.085   7.802 -0.2315  0.6017  1.1341
   48MOL    H9418048   0.316   5.038   7.603  0.2567  0.4158  0.3956
   48MOL    H9518049   0.157   5.089   7.590  0.1500  0.8615  0.2033
   48MOL    H9618050   0.175   4.922   7.614  0.4037  0.0226 -1.5568
   48MOL    C9718051   0.416   5.430   0.108  0.1765  0.2815 -0.5680
   48MOL    C9818052   0.367   5.580   0.115 -0.1384  0.2561 -0.0312
   48MOL    C9918053   0.480   5.680   0.074  1.2887  0.4257 -0.2194
   48MOL   O10018054   0.564   5.724   0.152 -0.1816  0.6000 -0.3092
   48MOL   N10118055   0.472   5.728   7.788 -0.3942  0.1608 -0.0087
   48MOL   C10218056   0.537   5.850   7.746 -0.2225  0.3956 -0.7788
   48MOL   C10318057   0.610   5.834   7.609 -0.4636  0.1978  0.1215
   48MOL   C10418058   0.429   5.961   7.734 -0.1605 -0.0581 -0.3697
   48MOL   H10518059   0.517   5.414   0.144  0.0149  0.3571 -0.0762
   48MOL   H10618060   0.345   5.391   0.181 -0.4554  1.5608 -0.4977
   48MOL   H10718061   0.289   5.576   0.040 -2.4931 -3.1720  2.4470
   48MOL   H10818062   0.407   5.686   7.725 -1.1484  1.1604  0.0905
   48MOL   H10918063   0.614   5.883   7.815  0.3557  1.9800 -2.1329
   48MOL   H11018064   0.552   5.765   7.549 -0.6848 -0.8928  1.5545
   48MOL   H11118065   0.625   5.937   7.576 -2.4058  0.5616  0.3013
   48MOL   H11218066   0.714   5.801   7.616 -0.2444  0.6760 -0.7453
   48MOL   H11318067   0.469   6.058   7.702 -0.4411 -0.1525 -1.0282
   48MOL   H11418068   0.376   5.975   7.828 -0.5574 -0.3349 -0.5560
   48MOL   H11518069   0.351   5.951   7.658  0.0590 -2.0441 -0.3378
   48MOL   C11618070   0.296   5.621   0.248 -0.8325 -0.0377 -0.0349
   48MOL   C11718071   0.244   5.766   0.260 -0.5240  0.4022  0.2592
   48MOL   C11818072   0.189   5.789   0.401  0.5208 -0.3428 -0.1185
   48MOL   O11918073   0.136   5.705   0.470 -0.8175  0.3668 -0.0872
   48MOL   N12018074   0.208   5.912   0.439 -0.2099  0.1650  0.6393
   48MOL   C12118075   0.194   5.954   0.580  0.0709 -0.2799  0.1926
   48MOL   C12218076   0.310   5.904   0.669  0.4607  0.0745 -1.1116
   48MOL   C12318077   0.183   6.111   0.588  0.8490  0.1256 -0.4698
   48MOL   H12418078   0.370   5.606   0.327  1.1636  0.8589 -1.7024
   48MOL   H12518079   0.211   5.554   0.261 -0.3380 -0.5085  0.8554
   48MOL   H12618080   0.315   5.848   0.252  1.9906 -1.7432  0.1051
   48MOL   H12718081   0.264   5.981   0.392  0.7023  0.1703  1.7080
   48MOL   H12818082   0.096   5.917   0.610 -0.5372 -0.4210 -1.9477
   48MOL   H12918083   0.321   5.951   0.766 -0.5185 -0.7628 -0.5750
   48MOL   H13018084   0.403   5.914   0.613  1.0316 -1.7473 -0.5517
   48MOL   H13118085   0.285   5.798   0.685 -1.5018  0.8545  1.4383
   48MOL   H13218086   0.276   6.148   0.545  1.7871 -2.4883 -0.7791
   48MOL   H13318087   0.109   6.154   0.521 -0.8395 -3.0389 -0.7479
   48MOL   H13418088   0.173   6.149   0.690 -0.8076 -1.0280 -0.1750
   48MOL   C13518089   0.145   5.794   0.143  0.1357 -0.5443 -0.1086
   48MOL   C13618090   0.012   5.715   0.144 -0.2222 -0.0438  0.0265
   48MOL   C13718091   7.740   5.797   0.212 -0.3701  0.3384 -0.0019
   48MOL   O13818092   7.655   5.852   0.143  0.3034 -0.9959  0.0489
   48MOL   N13918093   7.734   5.792   0.349  0.2109  0.5591  0.2549
   48MOL   C14018094   7.618   5.844   0.429 -0.2399  0.2906 -0.1626
   48MOL   C14118095   7.657   5.936   0.543 -0.0673 -0.2975 -0.1545
   48MOL   C14218096   7.526   5.725   0.460  0.3954  0.0397  0.0161
   48MOL   H14318097   0.194   5.776   0.047 -1.0790  0.8777 -1.0066
   48MOL   H14418098   0.126   5.901   0.142  0.2655 -0.5139  0.4800
   48MOL   H14518099   0.018   5.621   0.199 -2.4519  0.6903  1.5788
   48MOL   H14618100   7.804   5.737   0.397 -0.3772 -0.7087 -0.3155
   48MOL   H14718101   7.564   5.913   0.364  1.1230 -0.5132 -2.2353
   48MOL   H14818102   7.717   5.873   0.609 -2.6031 -0.6611  1.9099
   48MOL   H14918103   7.719   6.020   0.512  1.1722 -1.1339  0.0080
   48MOL   H15018104   7.574   5.972   0.604  0.6422 -1.2785  1.4301
   48MOL   H15118105   7.435   5.751   0.514 -1.3438 -0.5596 -2.5337
   48MOL   H15218106   7.580   5.664   0.534 -0.3219 -0.6698 -0.0448
   48MOL   H15318107   7.492   5.678   0.368 -0.0176  0.7940 -0.2178
   48MOL   C15418108   7.813   5.668   7.834  0.5177 -0.8373 -0.1195
   48MOL   C15518109   7.693   5.562   7.822 -0.0420  0.0485  0.0731
   48MOL   C15618110   7.732   5.433   0.065 -0.3509  0.1766 -0.5665
   48MOL   O15718111   7.836   5.367   0.027 -0.3324  0.1051  0.1172
   48MOL   N15818112   7.650   5.394   0.166 -0.4548  0.4056  0.3565
   48MOL   C15918113   7.673   5.283   0.256  0.5009  0.0831 -0.0805
   48MOL   C16018114   7.611   5.151   0.213 -0.0868 -0.4709  0.4096
   48MOL   C16118115   7.635   5.330   0.399 -0.1655 -0.2437 -0.4544
   48MOL   H16218116   0.055   5.621   7.774 -1.6783 -1.2020 -2.8260
   48MOL   H16318117   7.784   5.756   7.776 -2.7828 -0.8404  1.4193
   48MOL   H16418118   7.614   5.596   0.053 -0.1487 -1.5745  0.8017
   48MOL   H16518119   7.558   5.436   0.166 -0.0352  1.3401 -0.2484
   48MOL   H16618120   7.781   5.268   0.258  0.4023 -0.9539 -2.0736
   48MOL   H16718121   7.658   5.126   0.117 -1.9858  0.5792 -0.8342
   48MOL   H16818122   7.622   5.069   0.283 -0.3310 -0.2408  0.7172
   48MOL   H16918123   7.506   5.165   0.187  0.9460  1.8253 -2.8771
   48MOL   H17018124   7.530   5.362   0.403  0.7226  2.8058 -0.2130
   48MOL   H17118125   7.690   5.412   0.447  1.8480 -2.3655  0.9503
   48MOL   H17218126   7.643   5.250   0.473  1.3167  1.7519  1.6406
   48MOL   C17318127   7.642   5.529   7.677  0.4493  0.0090 -0.2077
   48MOL   C17418128   7.496   5.485   7.668 -0.2040 -0.0658 -0.3726
   48MOL   C17518129   7.426   5.535   7.536 -0.2244  0.6772  0.4840
   48MOL   O17618130   7.428   5.653   7.510  0.1799 -0.1226  0.3628
   48MOL   N17718131   7.370   5.452   7.454  0.0496  0.4634  0.2792
   48MOL   C17818132   7.284   5.481   7.335  0.4797  0.2103  0.4541
   48MOL   C17918133   7.129   5.445   7.357 -0.4317 -0.0337 -0.0743
   48MOL   C18018134   7.347   5.400   7.213 -0.6266  0.2210 -0.0409
   48MOL   H18118135   7.701   5.456   7.621 -0.8405 -0.5950 -0.7979
   48MOL   H18218136   7.663   5.609   7.606  0.3217 -0.1279 -0.4009
   48MOL   H18318137   7.456   5.540   7.753 -0.0986  1.6157 -1.3864
   48MOL   H18418138   7.364   5.357   7.488  1.0696 -0.2159 -1.4058
   48MOL   H18518139   7.291   5.587   7.314 -0.4439  0.5668  1.8603
   48MOL   H18618140   7.108   5.353   7.411  0.0702  0.1680  0.4671
   48MOL   H18718141   7.088   5.431   7.256 -1.2811  0.4282  0.2018
   48MOL   H18818142   7.075   5.525   7.407 -0.7247  0.3497 -0.9900
   48MOL   H18918143   7.453   5.418   7.194 -0.4096 -0.0670  0.8702
   48MOL   H19018144   7.298   5.432   7.121  0.3189 -0.0899 -0.6631
   48MOL   H19118145   7.334   5.292   7.205  0.1152  0.1660 -0.5354
   48MOL   C19218146   7.466   5.340   7.704 -0.2671 -0.4335  0.2964
   48MOL   C19318147   7.320   5.305   7.751 -0.3674 -0.1817 -0.3778
   48MOL   C19418148   7.276   5.372   0.047  0.0414 -0.3153 -0.4657
   48MOL   O19518149   7.354   5.385   0.144  0.0193 -0.4287  0.1421
   48MOL   N19618150   7.161   5.445   0.060  0.0555  0.4241  0.3395
   48MOL   C19718151   7.044   5.471   7.814 -0.3132  0.3648  0.0501
   48MOL   C19818152   6.929   5.515   0.075  0.4696  0.2784  0.9139
   48MOL   C19918153   7.077   5.570   7.700  0.8158  0.4467  0.5769
   48MOL   H20018154   7.530   5.317   7.789 -0.7547  2.2860  1.4816
   48MOL   H20118155   7.484   5.277   7.617 -0.1979 -2.3504  1.6756
   48MOL   H20218156   7.256   5.345   7.672 -1.2756 -1.6293 -0.4147
   48MOL   H20318157   7.157   5.504   0.142  2.9665  0.4812  0.5041
   48MOL   H20418158   7.013   5.379   7.765  0.1519  0.5735 -0.6409
   48MOL   H20518159   6.962   5.611   0.115 -0.0518  0.5748  0.6403
   48MOL   H20618160   6.922   5.447   0.160 -1.7878  1.0637  1.3804
   48MOL   H20718161   6.827   5.524   0.039  0.7380  0.2766  0.1426
   48MOL   H20818162   7.113   5.669   7.728 -4.0687  2.6863 -0.4731
   48MOL   H20918163   6.992   5.599   7.638  0.6269  0.7572  0.9758
   48MOL   H21018164   7.158   5.528   7.639  0.7971 -1.2229  1.6623
   48MOL   C21118165   7.296   5.151   7.747  0.3091  0.3704 -0.4802
   48MOL   C21218166   7.172   5.114   7.665  0.0792 -0.1198 -0.1328
   48MOL   C21318167   7.206   5.111   7.513 -0.5746  0.1848 -0.0462
   48MOL   O21418168   7.321   5.142   7.477  1.1890  0.5802 -0.8983
   48MOL   N21518169   7.108   5.076   7.430  0.2320  0.5949  0.0037
   48MOL   C21618170   7.125   5.042   7.291 -0.0654  0.8796 -0.3118
   48MOL   C21718171   6.995   5.084   7.217 -0.2131 -0.9063  0.9062
   48MOL   C21818172   7.166   4.892   7.272  0.0773 -0.4016  0.2385
   48MOL   H21918173   7.277   5.113   0.010 -0.1703  1.9690  0.0642
   48MOL   H22018174   7.386   5.098   7.716  0.8588 -0.1510  1.9543
   48MOL   H22118175   7.101   5.196   7.674  0.5320  0.5224 -2.1375
   48MOL   H22218176   7.010   5.067   7.455  0.2114 -0.6542 -0.4845
   48MOL   H22318177   7.202   5.104   7.246 -1.5110  2.3157 -0.8703
   48MOL   H22418178   6.969   5.190   7.228  1.8833 -0.2253 -0.5058
   48MOL   H22518179   7.008   5.077   7.109 -0.7423 -0.3751  0.8077
   48MOL   H22618180   6.913   5.019   7.247 -0.1677 -0.8292  1.1948
   48MOL   H22718181   7.103   4.831   7.336 -1.3464  0.5030 -0.2753
   48MOL   H22818182   7.269   4.875   7.305  0.5193  0.8595 -0.4324
   48MOL   H22918183   7.151   4.861   7.169  1.3748 -3.2339  0.8550
   48MOL   C23018184   7.100   4.986   7.718  0.0536  0.5210 -0.3313
   48MOL   C23118185   6.957   5.023   7.764  0.6019  0.6152 -0.8441
   48MOL   C23218186   6.862   5.071   7.648 -0.2307 -0.2451  0.3908
   48MOL   O23318187   6.863   5.009   7.540  0.7049  0.3011 -0.1986
   48MOL   N23418188   6.793   5.180   7.669  0.7451  0.2128 -0.4330
   48MOL   C23518189   6.709   5.250   7.576  0.3764  0.0270  0.2280
   48MOL   C23618190   6.572   5.193   7.571 -0.1041  0.7970  0.5280
   48MOL   C23718191   6.706   5.398   7.626 -0.8000 -0.1962  0.2209
   48MOL   H23818192   7.155   4.939   7.800 -2.1994 -2.2395 -0.3023
   48MOL   H23918193   7.093   4.906   7.644  1.1428 -0.9507  1.1268
   48MOL   H24018194   6.971   5.102   0.001  3.3585 -0.0180 -0.6385
   48MOL   H24118195   6.798   5.218   7.762  1.2806 -0.1431 -0.3068
   48MOL   H24218196   6.749   5.241   7.475  0.0899 -0.9057  0.1958
   48MOL   H24318197   6.522   5.210   7.667 -0.9602 -2.0044  0.6308
   48MOL   H24418198   6.515   5.247   7.495 -0.0769  1.4915  0.9923
   48MOL   H24518199   6.563   5.089   7.540 -2.1132  1.8379 -2.6889
   48MOL   H24618200   6.629   5.462   7.583 -0.8097  0.0473  0.5996
   48MOL   H24718201   6.796   5.447   7.587 -0.5084 -0.0475  1.0605
   48MOL   H24818202   6.696   5.408   7.734 -0.3559 -2.1412  0.4675
   48MOL   C24918203   6.886   4.905   7.828  0.2935 -0.1536  0.0179
   48MOL   C25018204   6.787   4.932   0.108  0.3257 -0.0347  0.0835
   48MOL   C25118205   6.866   4.974   0.231  0.8838  0.3062  0.2470
   48MOL   O25218206   6.846   5.086   0.284 -0.5410 -0.0507 -0.4217
   48MOL   N25318207   6.957   4.892   0.278  0.2347  0.0959 -0.4188
   48MOL   C25418208   7.066   4.949   0.362 -0.2679  0.7823  0.6926
   48MOL   C25518209   7.132   4.826   0.437  0.0637  0.7027  0.6195
   48MOL   C25618210   7.172   5.022   0.278 -0.1364  0.2529  0.0907
   48MOL   H25718211   6.946   4.821   0.025  0.9333 -0.0923 -0.9671
   48MOL   H25818212   6.826   4.850   7.756  1.2789  1.0083 -1.7315
   48MOL   H25918213   6.723   5.013   0.072  0.6374  0.2071  0.0638
   48MOL   H26018214   6.954   4.795   0.249  1.7857  0.2771 -1.2527
   48MOL   H26118215   7.028   5.017   0.438  0.3927  0.6037  1.1865
   48MOL   H26218216   7.206   4.843   0.515  1.0307 -0.6188  0.0228
   48MOL   H26318217   7.053   4.776   0.492 -0.4247 -0.3187 -0.9705
   48MOL   H26418218   7.177   4.748   0.375 -2.1907 -2.0675  2.3611
   48MOL   H26518219   7.144   5.117   0.231  1.8822  0.8455  0.0397
   48MOL   H26618220   7.261   5.034   0.339 -1.0602  1.1153  1.2999
   48MOL   H26718221   7.196   4.957   0.193  0.4079  1.0900 -0.4038
   48MOL   C26818222   6.678   4.824   0.140  0.5671  0.2897 -0.3455
   48MOL   C26918223   6.582   4.855   0.254  0.5791  0.0794 -0.1187
   48MOL   C27018224   6.505   4.983   0.213 -0.7913  0.4477 -0.6445
   48MOL   O27118225   6.409   4.978   0.130  0.0364  0.9004  0.1231
   48MOL   N27218226   6.550   5.096   0.269 -1.0286  1.1716 -0.0836
   48MOL   C27318227   6.495   5.229   0.242 -0.5734 -0.2818 -0.5009
   48MOL   C27418228   6.501   5.321   0.361  0.4092 -0.0353  0.6317
   48MOL   C27518229   6.581   5.301   0.137 -0.4054 -0.3148  0.4709
   48MOL   H27618230   6.622   4.798   0.051  1.0795 -0.6469 -0.4036
   48MOL   H27718231   6.737   4.733   0.158  1.0910  0.2753 -2.0627
   48MOL   H27818232   6.645   4.866   0.341 -1.7775 -0.7740  1.7587
   48MOL   H27918233   6.627   5.092   0.334 -1.3533 -1.9920  0.1631
   48MOL   H28018234   6.397   5.213   0.199  0.6256  1.3061 -4.0058
   48MOL   H28118235   6.472   5.269   0.452  0.0500 -1.2365 -0.1602
   48MOL   H28218236   6.604   5.347   0.384 -0.3434  3.1423  0.6869
   48MOL   H28318237   6.447   5.416   0.361  2.0250  0.9031 -0.2679
   48MOL   H28418238   6.688   5.287   0.153 -0.1110 -1.3647 -2.1571
   48MOL   H28518239   6.551   5.262   0.040  0.2461  0.1671  0.0651
   48MOL   H28618240   6.557   5.407   0.138  2.3708  0.3997 -0.6492
   48MOL   C28718241   6.486   4.737   0.286  0.5447  0.1716 -0.3616
   48MOL   C28818242   6.387   4.763   0.406 -0.4120  0.2300  0.1238
   48MOL   C28918243   6.462   4.782   0.539  0.3250  0.5064 -0.2527
   48MOL   O29018244   6.515   4.687   0.582 -0.7441 -0.0253 -0.0058
   48MOL   N29118245   6.454   4.900   0.604  0.0678 -0.1497 -0.4441
   48MOL   C29218246   6.523   4.923   0.734  0.6702 -1.0952  0.3930
   48MOL   C29318247   6.568   5.067   0.747  0.1989 -0.4542  0.1545
   48MOL   C29418248   6.421   4.895   0.844 -0.1593  0.3464  0.1643
   48MOL   H29518249   6.437   4.719   0.190 -2.9929  1.3001  1.1230
   48MOL   H29618250   6.547   4.653   0.318  1.5573  0.9621 -0.1974
   48MOL   H29718251   6.334   4.858   0.394 -0.2552  0.2777 -0.1893
   48MOL   H29818252   6.369   4.952   0.588  0.9633  0.9840 -1.5329
   48MOL   H29918253   6.614   4.863   0.739  1.2458 -0.1852  0.8721
   48MOL   H30018254   6.500   5.145   0.712  0.2234 -0.3336  0.3734
   48MOL   H30118255   6.579   5.088   0.853 -2.0112 -0.0145  0.3103
   48MOL   H30218256   6.665   5.100   0.711  0.0651 -0.2117  0.0161
   48MOL   H30318257   6.460   4.901   0.945  0.2567 -0.9452  0.0981
   48MOL   H30418258   6.341   4.969   0.840 -0.3803  0.2392  2.1950
   48MOL   H30518259   6.378   4.794   0.846 -2.1658  1.1908  1.0954
   48MOL   C30618260   6.292   4.642   0.419  0.3423  0.2325  0.2812
   48MOL   C30718261   6.195   4.607   0.304  0.1147 -0.7403  0.0705
   48MOL   C30818262   6.111   4.727   0.262  0.0716 -0.6735  0.3609
   48MOL   O30918263   6.045   4.796   0.342  0.0230  0.4906 -0.2178
   48MOL   N31018264   6.112   4.762   0.138 -0.4124 -0.1799  0.2117
   48MOL   C31118265   6.046   4.883   0.081 -0.2473 -0.2802  0.1113
   48MOL   C31218266   6.104   4.917   7.775  0.2806  0.4089 -0.2348
   48MOL   C31318267   5.892   4.862   0.083 -0.9953  0.4962  0.1989
   48MOL   H31418268   6.362   4.560   0.436  3.2436  2.0475 -2.3336
   48MOL   H31518269   6.224   4.671   0.499 -1.7447 -0.9634 -1.0238
   48MOL   H31618270   6.260   4.583   0.220  0.3481 -1.6274  0.4914
   48MOL   H31718271   6.168   4.710   0.072 -1.8587 -0.5519 -0.7510
   48MOL   H31818272   6.075   4.967   0.144 -1.2232  0.5834 -0.5542
   48MOL   H31918273   6.102   4.834   7.704 -0.8793  0.8821 -0.7788
   48MOL   H32018274   6.209   4.941   7.787  0.4706 -1.2134  1.4659
   48MOL   H32118275   6.054   4.999   7.723  1.5108  1.3156 -0.0032
   48MOL   H32218276   5.855   4.816   0.175  1.2342 -0.9869  0.4028
   48MOL   H32318277   5.864   4.806   7.830 -1.0313 -0.3060  0.7091
   48MOL   H32418278   5.839   4.957   0.075 -2.1516 -0.3009 -1.7071
   48MOL   C32518279   6.095   4.493   0.336 -0.3969 -0.0700 -0.2269
   48MOL   C32618280   6.036   4.431   0.215  0.3095  0.0656 -0.3739
   48MOL   C32718281   6.138   4.348   0.127  0.0334  0.2651 -0.2597
   48MOL   O32818282   6.218   4.266   0.177 -0.0177  0.0707 -0.2481
   48MOL   N32918283   6.124   4.378   7.836 -0.3790 -0.2583  0.4504
   48MOL   C33018284   6.209   4.338   7.723 -0.1569 -1.1937 -0.9368
   48MOL   C33118285   6.207   4.458   7.629  0.9189 -0.5567  0.6005
   48MOL   C33218286   6.157   4.212   7.652  0.1428 -0.1578 -0.4836
   48MOL   H33318287   6.019   4.532   0.404  1.4635 -3.5211  4.0587
   48MOL   H33418288   6.147   4.424   0.402  1.6403  1.1843 -0.4724
   48MOL   H33518289   5.994   4.511   0.155 -1.2346  1.1742  2.1052
   48MOL   H33618290   6.047   4.440   7.815 -0.7067 -0.4845  0.9804
   48MOL   H33718291   6.314   4.332   7.753 -1.1266 -0.8905  2.8278
   48MOL   H33818292   6.108   4.487   7.596  1.3591  0.0571 -0.1959
   48MOL   H33918293   6.237   4.552   7.675 -1.9998  0.1630  1.0775
   48MOL   H34018294   6.275   4.438   7.546 -1.9516 -3.4252 -1.1543
   48MOL   H34118295   6.152   4.141   7.734 -0.5947  1.9312  1.3278
   48MOL   H34218296   6.232   4.177   7.581  1.4007 -0.7549  1.1272
   48MOL   H34318297   6.058   4.217   7.607 -0.5558  0.5074  1.1103
   48MOL   C34418298   5.920   4.336   0.251 -0.3671  0.2040  0.3643
   48MOL   C34518299   5.820   4.315   0.141  0.2338 -0.5646  0.1442
   48MOL   C34618300   5.720   4.197   0.166 -0.4705  0.5399 -0.2532
   48MOL   O34718301   5.659   4.192   0.270  0.5903 -0.0796 -0.3762
   48MOL   N34818302   5.710   4.108   0.066  0.5856  0.6087 -0.9118
   48MOL   C34918303   5.626   3.989   0.050 -0.5573 -0.3215  0.3254
   48MOL   C35018304   5.484   4.021   0.013 -0.2546 -0.1160 -1.3222
   48MOL   C35118305   5.688   3.886   7.786  0.2184  0.1301  0.4299
   48MOL   H35218306   5.879   4.378   0.342  0.1136  0.3101  0.5350
   48MOL   H35318307   5.953   4.237   0.285 -2.0025  0.1453  1.8553
   48MOL   H35418308   5.871   4.281   0.050 -1.0805 -1.8479 -0.1394
   48MOL   H35518309   5.781   4.115   7.832  0.3753 -0.0108 -1.1907
   48MOL   H35618310   5.620   3.946   0.150 -2.7761  1.6414  1.0702
   48MOL   H35718311   5.481   4.071   7.753  2.0890 -1.3440 -2.0626
   48MOL   H35818312   5.414   3.937   0.009  1.8203 -1.8949 -1.2037
   48MOL   H35918313   5.437   4.085   0.088 -0.8815 -0.8954 -1.0407
   48MOL   H36018314   5.791   3.875   7.818  0.2647 -0.7837  0.0040
   48MOL   H36118315   5.637   3.790   7.771 -0.7763  0.9803 -1.9299
   48MOL   H36218316   5.704   3.936   7.690  0.6662 -3.7621 -1.6515
   48MOL   C36318317   5.742   4.443   0.107  0.0401  0.0678 -0.3914
   48MOL   C36418318   5.704   4.466   7.793 -0.3264  0.2604 -1.0644
   48MOL   C36518319   5.802   4.557   7.728 -0.2306  0.0253  0.2986
   48MOL   O36618320   5.918   4.552   7.767 -0.8214  0.1460 -0.5497
   48MOL   N36718321   5.763   4.641   7.629  0.1041 -0.3482 -0.4586
   48MOL   C36818322   5.846   4.745   7.559  0.1929  0.7035  1.0882
   48MOL   C36918323   5.893   4.690   7.423 -0.1012 -0.5236 -0.2365
   48MOL   C37018324   5.768   4.877   7.552 -0.2160  0.2476  0.0543
   48MOL   H37118325   5.774   4.539   0.147 -1.8155  0.4966  0.1409
   48MOL   H37218326   5.644   4.425   0.152 -0.3093 -0.4405 -1.3512
   48MOL   H37318327   5.605   4.513   7.789  0.5824  2.2192 -1.0203
   48MOL   H37418328   5.668   4.644   7.597 -0.2797  1.4096  0.7959
   48MOL   H37518329   5.931   4.775   7.621  2.3865 -3.5235  0.3057
   48MOL   H37618330   5.807   4.654   7.367  2.9518 -1.6651 -4.4297
   48MOL   H37718331   5.929   4.774   7.364 -0.3421 -1.2302 -1.4030
   48MOL   H37818332   5.975   4.623   7.449  0.1348  0.2729  1.1259
   48MOL   H37918333   5.826   4.952   7.499 -2.0340  0.2023 -2.0427
   48MOL   H38018334   5.672   4.866   7.501 -0.8211  3.4954  0.3662
   48MOL   H38118335   5.745   4.906   7.655  0.9134 -0.1102  0.4087
   48MOL   H38218336   5.702   4.376   7.732 -0.4154 -0.4746  0.0126
   49MOL     C118337   6.128   7.711   1.649  0.0027 -0.6463 -0.0321
   49MOL     C218338   6.150   7.686   1.799  0.1328 -0.1823  0.0192
   49MOL     C318339   6.121   7.543   1.834 -0.3357  0.6699  0.0911
   49MOL     O418340   6.178   7.459   1.773  0.0044  0.0878  0.2523
   49MOL     N518341   6.051   7.519   1.954  0.2130 -0.7857 -0.1016
   49MOL     C618342   6.066   7.396   2.030 -0.5530  0.5281  0.7564
   49MOL     C718343   6.208   7.385   2.093 -0.0035  0.0519  0.1308
   49MOL     C818344   5.959   7.377   2.135  0.5617 -0.3862 -0.2399
   49MOL     H918345   6.210   7.678   1.586 -0.0946 -0.6072 -0.1785
   49MOL    H1018346   6.127   7.818   1.629 -0.1160 -0.5586  0.4263
   49MOL    H1118347   6.080   7.745   1.858  0.2471  0.6869 -0.7169
   49MOL    H1218348   6.019   7.600   2.004  2.9094 -1.2510  2.4796
   49MOL    H1318349   6.066   7.307   1.967  1.2014  1.6036 -0.8198
   49MOL    H1418350   6.229   7.459   2.171 -3.1272  1.5758 -0.3845
   49MOL    H1518351   6.289   7.402   2.022  0.1064  0.8578  0.4385
   49MOL    H1618352   6.220   7.282   2.125 -0.6271  0.2774  1.1185
   49MOL    H1718353   5.939   7.466   2.195 -2.1545 -0.7890 -0.5185
   49MOL    H1818354   5.867   7.343   2.088 -2.4234  1.1594  4.1398
   49MOL    H1918355   5.981   7.301   2.209 -1.0183  0.2664  0.9151
   49MOL    H2018356   6.037   7.661   1.617 -0.9880  1.1023 -0.0359
   49MOL    C2118357   6.294   7.726   1.846  0.1664 -0.5907  0.2487
   49MOL    C2218358   6.339   7.717   1.997 -0.4388 -0.3814  0.2623
   49MOL    C2318359   6.247   7.799   2.085  0.2909 -0.2247  0.5028
   49MOL    O2418360   6.222   0.082   2.059 -0.3464 -0.6688  0.2496
   49MOL    N2518361   6.180   7.735   2.187 -0.4186 -0.0049  0.2665
   49MOL    C2618362   6.088   7.802   2.282 -0.2225 -0.2547  0.5039
   49MOL    C2718363   6.175   0.011   2.401  0.2397  0.2004 -0.1685
   49MOL    C2818364   5.960   7.724   2.315  0.0697  0.0705 -0.5127
   49MOL    H2918365   6.303   7.831   1.821 -1.2542 -0.5656 -0.2077
   49MOL    H3018366   6.363   7.673   1.780  1.2107  0.6933  0.3060
   49MOL    H3118367   6.327   7.612   2.025  0.0039 -0.3719  0.4974
   49MOL    H3218368   6.190   7.637   2.208 -4.2491 -0.0384  2.3480
   49MOL    H3318369   6.058   0.063   2.243 -0.5433 -0.8358 -0.7066
   49MOL    H3418370   6.201   7.773   2.477 -1.8750  1.6954  2.1167
   49MOL    H3518371   6.104   0.078   2.450 -0.7421 -1.3680  0.6277
   49MOL    H3618372   6.274   0.053   2.392  0.8085 -0.6786  1.7452
   49MOL    H3718373   5.916   7.665   2.234  2.0046 -0.4115 -1.2289
   49MOL    H3818374   5.968   7.663   2.405 -1.3013 -0.2428 -0.5932
   49MOL    H3918375   5.893   7.806   2.338  0.1341 -0.0899  0.2584
   49MOL    C4018376   6.488   7.757   2.004 -0.2679 -0.3190  0.0979
   49MOL    C4118377   6.566   7.671   2.112 -0.3636  0.3058 -0.0322
   49MOL    C4218378   6.530   7.709   2.256  0.4030 -0.3099 -0.5359
   49MOL    O4318379   6.566   7.815   2.300  0.2118  0.3472 -0.1021
   49MOL    N4418380   6.472   7.615   2.329  0.0451  0.1030 -0.4915
   49MOL    C4518381   6.446   7.613   2.477 -1.1648 -0.0589  0.3620
   49MOL    C4618382   6.333   7.516   2.496 -0.1938  0.2571  0.2306
   49MOL    C4718383   6.574   7.561   2.550 -0.5134  0.2229  0.0619
   49MOL    H4818384   6.507   0.028   2.014 -1.4857 -0.0593 -0.3229
   49MOL    H4918385   6.526   7.741   1.904 -1.7932 -1.8773 -0.2503
   49MOL    H5018386   6.538   7.567   2.100  1.4923 -0.5779  2.8065
   49MOL    H5118387   6.440   7.536   2.275  1.7794 -1.3806  0.5645
   49MOL    H5218388   6.431   7.713   2.516 -1.0095 -0.8472  2.4978
   49MOL    H5318389   6.366   7.423   2.451  0.3639  1.7116 -2.4289
   49MOL    H5418390   6.245   7.544   2.438 -1.1075 -1.5465  0.7022
   49MOL    H5518391   6.300   7.516   2.600 -0.4753  0.2799  0.1428
   49MOL    H5618392   6.617   7.466   2.520 -1.0055 -0.2322  0.7919
   49MOL    H5718393   6.565   7.565   2.659  2.4049 -0.4572  0.3704
   49MOL    H5818394   6.646   7.640   2.529 -0.5751  0.8793  2.1183
   49MOL    C5918395   6.725   7.676   2.088  0.0948 -1.0832 -0.2544
   49MOL    C6018396   6.796   7.539   2.053  0.7385  0.2766 -0.4018
   49MOL    C6118397   6.945   7.561   2.033  0.0603 -0.8916  0.0317
   49MOL    O6218398   6.982   7.677   1.992 -0.0502  0.3016 -0.5923
   49MOL    N6318399   7.024   7.459   2.037 -0.2948  0.3954  0.1770
   49MOL    C6418400   7.159   7.440   1.984 -0.3255  0.0911 -0.2160
   49MOL    C6518401   7.226   7.322   2.066  0.4110 -0.7534  0.5056
   49MOL    C6618402   7.158   7.406   1.830  0.9082 -0.1597  0.7529
   49MOL    H6718403   6.749   7.755   2.017 -1.3519  0.7669  1.2527
   49MOL    H6818404   6.769   7.725   2.175  0.1035 -0.1660 -0.7740
   49MOL    H6918405   6.786   7.466   2.133 -0.8219  0.0727 -0.7514
   49MOL    H7018406   6.987   7.367   2.052 -2.3719  1.2650  0.5987
   49MOL    H7118407   7.215   7.532   2.002 -1.2567  0.6449 -0.1079
   49MOL    H7218408   7.255   7.337   2.170  2.0027  1.0245 -0.1517
   49MOL    H7318409   7.168   7.231   2.074 -1.2091  0.4828  3.4161
   49MOL    H7418410   7.317   7.302   2.009  0.2014  0.7555 -0.3813
   49MOL    H7518411   7.259   7.417   1.791  0.2339 -1.4808 -1.4381
   49MOL    H7618412   7.113   7.309   1.807  0.8785 -0.2378  1.1327
   49MOL    H7718413   7.111   7.489   1.778 -0.1635 -0.8014  0.6676
   49MOL    C7818414   6.730   7.474   1.926  0.0379 -0.1744 -0.0910
   49MOL    C7918415   6.737   7.314   1.934 -1.0844  0.7390  0.3408
   49MOL    C8018416   6.618   7.249   2.008 -0.0437 -0.0275 -0.6292
   49MOL    O8118417   6.498   7.291   1.998 -0.4841 -0.4175  0.3059
   49MOL    N8218418   6.644   7.150   2.098  0.0080  0.3126  0.6552
   49MOL    C8318419   6.542   7.086   2.181 -0.2061 -0.3688 -0.0145
   49MOL    C8418420   6.497   6.959   2.119 -0.2161 -0.2515  0.0963
   49MOL    C8518421   6.592   7.046   2.323  0.0936  0.0644  0.2882
   49MOL    H8618422   6.791   7.506   1.841 -0.6576  0.1711 -0.4648
   49MOL    H8718423   6.629   7.507   1.905 -0.2546  1.9517  4.0287
   49MOL    H8818424   6.824   7.307   1.999  0.0495  0.0720 -1.2179
   49MOL    H8918425   6.735   7.106   2.093 -0.9108 -1.4928 -0.7627
   49MOL    H9018426   6.457   7.154   2.190  0.3272  0.6074 -2.0511
   49MOL    H9118427   6.414   6.915   2.174 -1.1708  0.6188 -0.6468
   49MOL    H9218428   6.462   6.969   2.017  0.6585 -2.2298 -0.4261
   49MOL    H9318429   6.579   6.886   2.120 -1.2654 -1.4927 -1.7408
   49MOL    H9418430   6.681   6.983   2.313 -0.4990 -0.2332 -4.4006
   49MOL    H9518431   6.513   7.005   2.386  0.7798 -0.8745  0.5517
   49MOL    H9618432   6.630   7.132   2.378  0.2229 -1.4227  2.5661
   49MOL    C9718433   6.756   7.259   1.785  0.3257  0.1533  0.1667
   49MOL    C9818434   6.748   7.109   1.739  0.0665  0.1445 -1.1381
   49MOL    C9918435   6.833   7.024   1.832  0.0946  0.4680 -0.1673
   49MOL   O10018436   6.900   7.075   1.928 -0.0393  0.2466  0.1656
   49MOL   N10118437   6.834   6.890   1.813 -0.0587 -0.2384  0.3335
   49MOL   C10218438   6.925   6.790   1.873 -0.2150 -0.3819  0.2871
   49MOL   C10318439   6.884   6.746   2.014  0.0046  0.3189 -0.2432
   49MOL   C10418440   6.940   6.680   1.779  0.6028  0.1834 -0.5868
   49MOL   H10518441   6.856   7.295   1.761 -0.0108  1.1667  0.2884
   49MOL   H10618442   6.687   7.317   1.724 -1.7632 -1.2097  1.1604
   49MOL   H10718443   6.646   7.079   1.765  1.3132 -2.3109  1.1731
   49MOL   H10818444   6.768   6.858   1.744  0.6947 -2.7735  0.7227
   49MOL   H10918445   7.021   6.840   1.886  0.2423 -1.3418  0.6072
   49MOL   H11018446   6.899   6.828   2.085 -1.2965 -0.8030  1.3608
   49MOL   H11118447   6.781   6.714   2.022  0.3881 -1.3946 -1.8608
   49MOL   H11218448   6.953   6.670   2.051  1.6602  1.3423 -1.1741
   49MOL   H11318449   6.986   6.596   1.831  0.8714 -0.5369 -1.9758
   49MOL   H11418450   6.993   6.710   1.689  1.0673 -2.2109 -1.1547
   49MOL   H11518451   6.841   6.645   1.750  0.6399 -0.4087 -0.0133
   49MOL   C11618452   6.765   7.083   1.588  0.1152 -0.6523 -0.2628
   49MOL   C11718453   6.637   7.030   1.515 -0.3405 -0.1752 -0.5091
   49MOL   C11818454   6.606   6.886   1.552  0.0252 -0.3179 -0.6397
   49MOL   O11918455   6.699   6.805   1.563 -0.3014  0.5175  0.6956
   49MOL   N12018456   6.480   6.849   1.578  0.3812  0.0587  0.0180
   49MOL   C12118457   6.443   6.723   1.635  0.5151  0.9306  0.3609
   49MOL   C12218458   6.427   6.747   1.792  0.2897  0.9455 -0.0017
   49MOL   C12318459   6.320   6.661   1.566 -0.4690  0.7468 -0.1763
   49MOL   H12418460   6.850   7.015   1.583  1.1489  0.4862  1.3028
   49MOL   H12518461   6.783   7.180   1.541  1.9426 -0.8051  0.0837
   49MOL   H12618462   6.556   7.090   1.557 -0.3887 -0.7441  0.2267
   49MOL   H12718463   6.417   6.928   1.570  1.4243  0.7436 -1.6891
   49MOL   H12818464   6.523   6.649   1.625  0.5756  1.0644 -0.1215
   49MOL   H12918465   6.444   6.653   1.845  2.2052  1.8275  0.9953
   49MOL   H13018466   6.327   6.780   1.821  0.4913  2.8410 -1.4017
   49MOL   H13118467   6.499   6.824   1.819  2.1119 -0.5839 -0.3564
   49MOL   H13218468   6.335   6.617   1.468 -0.6185  0.4636 -0.0736
   49MOL   H13318469   6.294   6.581   1.636 -0.3553  1.3917  0.6128
   49MOL   H13418470   6.242   6.735   1.551 -0.9834  0.3173  0.3221
   49MOL   C13518471   6.629   7.053   1.362  0.4990  0.7711  0.1042
   49MOL   C13618472   6.737   6.991   1.272 -0.0545 -0.0283  0.6459
   49MOL   C13718473   6.686   6.857   1.202  0.6240 -0.7885 -0.0138
   49MOL   O13818474   6.640   6.863   1.093  0.0709 -0.3984 -0.1147
   49MOL   N13918475   6.693   6.748   1.276  0.3801  0.1436  0.1153
   49MOL   C14018476   6.654   6.614   1.239 -0.2129  0.1095  0.5872
   49MOL   C14118477   6.625   6.541   1.367  0.5618  0.4748  0.0345
   49MOL   C14218478   6.773   6.548   1.168 -0.0011  0.5786  0.1820
   49MOL   H14318479   6.626   7.161   1.352  0.2192  0.6571 -1.0902
   49MOL   H14418480   6.533   7.011   1.335  0.8101 -0.4424  0.8396
   49MOL   H14518481   6.827   6.966   1.328 -0.0802 -0.7758  0.3569
   49MOL   H14618482   6.733   6.749   1.369  0.3868 -1.2544  0.1455
   49MOL   H14718483   6.574   6.611   1.165 -1.7457 -1.1991  2.2478
   49MOL   H14818484   6.529   6.574   1.406  0.0168  0.0102 -0.8918
   49MOL   H14918485   6.626   6.435   1.340  0.9781  0.1196  1.4227
   49MOL   H15018486   6.708   6.556   1.436 -0.2323  1.3773  0.8057
   49MOL   H15118487   6.870   6.572   1.210  0.3747 -3.1329  1.6261
   49MOL   H15218488   6.776   6.570   1.061  0.4976  0.9106  0.2639
   49MOL   H15318489   6.778   6.440   1.184  1.4328  0.6636  0.3511
   49MOL   C15418490   6.791   7.085   1.154 -0.1752  0.2277  0.6440
   49MOL   C15518491   6.868   7.214   1.200  0.0536 -0.2477 -0.4466
   49MOL   C15618492   6.883   7.313   1.090  0.1258 -0.5536  0.2445
   49MOL   O15718493   6.932   7.285   0.979 -0.3825  0.1535  0.0270
   49MOL   N15818494   6.835   7.432   1.129  0.4379  0.0699  0.1037
   49MOL   C15918495   6.792   7.535   1.041  0.7079 -0.5844  0.1738
   49MOL   C16018496   6.878   7.660   1.033 -0.9846 -0.4103 -0.1840
   49MOL   C16118497   6.648   7.578   1.080  0.2895  0.2135 -0.6332
   49MOL   H16218498   6.707   7.111   1.091 -0.7734 -0.5366  1.1165
   49MOL   H16318499   6.859   7.029   1.090 -1.2638  0.2292 -0.5219
   49MOL   H16418500   6.815   7.257   1.285 -1.0772 -0.1316 -1.1995
   49MOL   H16518501   6.819   7.449   1.227  1.1338  0.0311  0.2279
   49MOL   H16618502   6.790   7.497   0.939  2.5250 -1.4489  0.4300
   49MOL   H16718503   6.970   7.627   0.987 -1.1965  0.9257 -1.6115
   49MOL   H16818504   6.841   7.753   0.991  0.1346 -0.6121 -1.6524
   49MOL   H16918505   6.903   7.696   1.133  1.3485 -3.0954  0.2507
   49MOL   H17018506   6.582   7.494   1.103  0.3799  0.4314  0.4586
   49MOL   H17118507   6.595   7.620   0.994  1.7139  1.0247 -1.1296
   49MOL   H17218508   6.633   7.646   1.164 -1.0054 -3.3043  2.1375
   49MOL   C17318509   7.009   7.181   1.253  0.1717  0.2054  0.8398
   49MOL   C17418510   7.109   7.298   1.289 -0.5273 -0.2163 -0.0172
   49MOL   C17518511   7.050   7.373   1.408 -0.2733 -0.2369  0.0857
   49MOL   O17618512   6.985   7.312   1.490 -0.3772 -0.1215  0.3164
   49MOL   N17718513   7.066   7.506   1.420 -0.8095 -0.1644 -0.1218
   49MOL   C17818514   7.003   7.600   1.517  0.0083  0.1797 -0.3434
   49MOL   C17918515   6.883   7.666   1.456  0.1358 -0.2573 -0.1647
   49MOL   C18018516   7.095   7.719   1.563  0.3758 -0.1576  0.3263
   49MOL   H18118517   7.048   7.121   1.171 -3.5972  0.7913 -1.4917
   49MOL   H18218518   7.011   7.099   1.324 -1.7657 -0.3676  0.2527
   49MOL   H18318519   7.112   7.366   1.204 -2.1395  3.3650  2.6488
   49MOL   H18418520   7.128   7.549   1.353 -0.9108 -3.5367 -2.4755
   49MOL   H18518521   6.974   7.549   1.608 -2.3618  2.1376  0.0599
   49MOL   H18618522   6.821   7.712   1.534  0.9941  1.1776 -0.3079
   49MOL   H18718523   6.831   7.599   1.388  0.1499 -0.6058  0.1657
   49MOL   H18818524   6.900   7.750   1.388 -1.9777  0.5678  0.2664
   49MOL   H18918525   7.060   7.759   1.658  0.4299  1.2274 -0.2212
   49MOL   H19018526   7.100   7.796   1.485 -0.8387 -1.9154 -1.5627
   49MOL   H19118527   7.197   7.681   1.570 -0.8357 -4.0534 -1.2343
   49MOL   C19218528   7.256   7.232   1.308  0.3360  0.3297  0.1482
   49MOL   C19318529   7.375   7.328   1.324  0.5393  0.2722 -0.3216
   49MOL   C19418530   7.361   7.442   1.219 -0.6118  0.0802  1.1479
   49MOL   O19518531   7.297   7.544   1.237 -0.8592 -0.5517  0.6403
   49MOL   N19618532   7.426   7.416   1.103  0.1369  0.5817  0.2150
   49MOL   C19718533   7.409   7.496   0.976  0.3245 -0.3282  0.3822
   49MOL   C19818534   7.523   7.454   0.886  0.4505 -1.0181  0.1095
   49MOL   C19918535   7.269   7.479   0.913  0.2730  0.3141  0.3756
   49MOL   H20018536   7.271   7.174   1.217  0.9084  0.4313  0.1719
   49MOL   H20118537   7.260   7.158   1.388  0.5965 -1.7394 -1.7330
   49MOL   H20218538   7.365   7.385   1.416  0.8425  1.5282 -1.0550
   49MOL   H20318539   7.468   7.327   1.082 -2.0240 -0.1138 -1.3962
   49MOL   H20418540   7.426   7.603   0.991 -1.0033  0.1892 -1.7362
   49MOL   H20518541   7.516   7.506   0.790 -2.4787 -0.6778  0.4583
   49MOL   H20618542   7.514   7.349   0.857 -0.3655 -1.1036  0.6486
   49MOL   H20718543   7.614   7.486   0.938 -0.4087 -0.2567  1.1791
   49MOL   H20818544   7.192   7.530   0.972 -0.1088  0.5889 -0.3538
   49MOL   H20918545   7.237   7.375   0.908  3.8155 -0.7823 -1.3252
   49MOL   H21018546   7.259   7.530   0.817 -0.2908 -0.5536 -0.0268
   49MOL   C21118547   7.510   7.245   1.316  0.5892 -0.0975 -0.0281
   49MOL   C21218548   7.631   7.317   1.362 -0.1636  0.6704  0.7625
   49MOL   C21318549   7.625   7.371   1.497 -0.0236  0.3522  0.7433
   49MOL   O21418550   7.594   7.295   1.592  0.7408  0.6697 -0.0558
   49MOL   N21518551   7.641   7.507   1.504 -0.4032 -0.1415 -0.7719
   49MOL   C21618552   7.638   7.584   1.627  0.1878  0.4719  0.6132
   49MOL   C21718553   7.502   7.648   1.643  0.0558  0.0267  0.1990
   49MOL   C21818554   7.745   7.690   1.632 -0.0988 -0.2298  0.7918
   49MOL   H21918555   7.519   7.216   1.212 -0.4925  0.9035 -0.4055
   49MOL   H22018556   7.483   7.156   1.373 -1.9516  0.1621 -0.7676
   49MOL   H22118557   7.653   7.402   1.297 -0.4352 -0.0039 -0.2213
   49MOL   H22218558   7.664   7.550   1.416  0.1119  0.8239 -0.1689
   49MOL   H22318559   7.663   7.516   1.709  0.2067 -0.4235 -0.1281
   49MOL   H22418560   7.423   7.578   1.617 -0.1640  0.8717 -1.4896
   49MOL   H22518561   7.493   7.670   1.749  1.8687  0.6736  0.2347
   49MOL   H22618562   7.478   7.733   1.578 -3.8061 -1.2013 -0.0965
   49MOL   H22718563   0.008   7.664   1.593  0.9910  1.2431  2.5246
   49MOL   H22818564   7.776   7.710   1.734 -1.8129  2.6456  0.7997
   49MOL   H22918565   7.720   7.780   1.576  0.1925  0.4159  1.6931
   49MOL   C23018566   7.756   7.214   1.345 -0.0265  0.0109 -0.4789
   49MOL   C23118567   7.828   7.221   1.205 -0.1299  0.1372  0.2063
   49MOL   C23218568   0.083   7.346   1.200  0.1158  0.3192 -0.4230
   49MOL   O23318569   0.087   7.406   1.090 -0.0950  0.1315 -0.6798
   49MOL   N23418570   0.154   7.385   1.309  0.4137 -0.0793 -0.5637
   49MOL   C23518571   0.252   7.486   1.300 -0.1913 -0.2680  0.0334
   49MOL   C23618572   0.185   7.627   1.307 -0.3376 -0.1471 -0.0729
   49MOL   C23718573   0.359   7.467   1.409 -0.1291 -0.4901  0.0618
   49MOL   H23818574   7.712   7.114   1.343 -1.0931  0.3946  1.8805
   49MOL   H23918575   7.817   7.211   1.435 -0.4557  1.6161 -0.1066
   49MOL   H24018576   7.749   7.241   1.133  0.1552 -2.3244 -0.8217
   49MOL   H24118577   0.166   7.318   1.384  1.0158 -0.1490 -0.7145
   49MOL   H24218578   0.303   7.466   1.206 -1.7366  2.4212 -1.4366
   49MOL   H24318579   0.122   7.640   1.219  3.5917 -1.1706 -3.1966
   49MOL   H24418580   0.130   7.625   1.401 -0.1391 -1.1430  0.0313
   49MOL   H24518581   0.256   7.709   1.313 -0.5922  0.2882 -2.5888
   49MOL   H24618582   0.449   7.526   1.395 -0.5922 -0.0503 -1.1717
   49MOL   H24718583   0.402   7.367   1.411  1.1782  0.0432 -0.5837
   49MOL   H24818584   0.318   7.494   1.506 -1.9144 -1.8789 -0.2768
   49MOL   C24918585   0.071   7.094   1.156 -0.3492 -0.3581 -0.2412
   49MOL   C25018586   0.057   7.069   1.003  0.0130  0.3715 -0.4157
   49MOL   C25118587   7.749   7.051   0.964  0.0408 -0.5474  0.3517
   49MOL   O25218588   7.694   7.115   0.876  0.1914  0.1270 -0.7983
   49MOL   N25318589   7.671   6.960   1.026  0.1632  0.1332 -0.0807
   49MOL   C25418590   7.537   6.915   0.990 -0.4291 -0.3370 -0.3833
   49MOL   C25518591   7.515   6.779   1.066  0.4778  0.2787  1.0330
   49MOL   C25618592   7.430   7.018   1.036  0.1741 -0.2444 -0.4459
   49MOL   H25718593   0.046   7.006   1.216 -1.5453  0.8401  1.0357
   49MOL   H25818594   0.174   7.126   1.173 -0.0733 -1.5445  0.4494
   49MOL   H25918595   0.085   7.162   0.953 -0.4334  0.0316 -1.3105
   49MOL   H26018596   7.709   6.909   1.105 -0.1477 -0.1387 -0.1092
   49MOL   H26118597   7.540   6.891   0.883  0.9786  1.7044 -0.8240
   49MOL   H26218598   7.597   6.710   1.048  1.1499  1.3441 -0.0471
   49MOL   H26318599   7.497   6.795   1.173  2.0277  0.9697  1.1996
   49MOL   H26418600   7.425   6.725   1.038  1.7233 -0.8418 -0.8813
   49MOL   H26518601   7.422   7.025   1.145  0.6990 -0.4683 -0.3912
   49MOL   H26618602   7.456   7.120   1.008  2.4168 -0.7639 -0.3798
   49MOL   H26718603   7.330   6.988   1.004 -0.3655  1.5177 -0.4531
   49MOL   C26818604   0.146   6.949   0.953  0.0449  0.1236 -1.0171
   49MOL   C26918605   0.126   6.902   0.805 -0.1136  1.3536 -0.1435
   49MOL   C27018606   0.175   7.008   0.707  0.1272 -0.6393 -0.0339
   49MOL   O27118607   0.287   6.994   0.655 -0.1214 -0.2727  0.5262
   49MOL   N27218608   0.098   7.113   0.672  0.4568  0.1533  0.3086
   49MOL   C27318609   0.158   7.228   0.603  0.2332  0.6075  0.8923
   49MOL   C27418610   0.065   7.270   0.481 -0.3841 -0.0927 -0.4865
   49MOL   C27518611   0.187   7.339   0.707 -0.1441 -0.0315 -0.3054
   49MOL   H27618612   0.253   6.962   0.967 -0.2150  1.3508 -0.1670
   49MOL   H27718613   0.128   6.859   1.012  1.3976  0.6659  0.2459
   49MOL   H27818614   0.024   6.882   0.772  0.1628 -2.7814  1.1833
   49MOL   H27918615   0.000   7.120   0.697 -0.1155  0.0395 -1.8047
   49MOL   H28018616   0.261   7.208   0.573 -0.1223  0.1670 -0.0304
   49MOL   H28118617   0.047   7.190   0.409  1.1248  0.3305 -1.3691
   49MOL   H28218618   7.811   7.322   0.512  0.1841 -0.2424  1.4467
   49MOL   H28318619   0.116   7.352   0.428  2.7520 -0.4290  1.8616
   49MOL   H28418620   0.248   7.414   0.658  0.5756 -1.0363 -0.9492
   49MOL   H28518621   0.091   7.377   0.744 -0.1573 -0.4351  0.0850
   49MOL   H28618622   0.244   7.298   0.790  0.1119  0.6927 -0.1173
   49MOL   C28718623   0.202   6.766   0.786 -0.5396 -0.1258  0.2603
   49MOL   C28818624   0.203   6.705   0.644 -0.1035 -0.0991 -0.5945
   49MOL   C28918625   0.069   6.704   0.569  0.9988  0.2224  0.0717
   49MOL   O29018626   7.797   6.679   0.632 -0.1291  0.0867 -0.1193
   49MOL   N29118627   0.070   6.736   0.441 -0.6689  0.2330 -0.1699
   49MOL   C29218628   7.799   6.741   0.344  0.0190 -0.4254 -0.2486
   49MOL   C29318629   7.832   6.838   0.231  0.7631  0.0091 -0.1383
   49MOL   C29418630   7.769   6.596   0.289  0.3542  0.0078 -0.5869
   49MOL   H29518631   0.302   6.771   0.829 -1.1218 -1.0454  1.7486
   49MOL   H29618632   0.143   6.706   0.856 -0.7365  0.1515  0.3338
   49MOL   H29718633   0.266   6.767   0.580 -0.4418 -2.7512 -3.6445
   49MOL   H29818634   0.164   6.740   0.405  1.2329 -0.2736  4.3532
   49MOL   H29918635   7.712   6.772   0.401 -0.5051 -1.5884 -0.4058
   49MOL   H30018636   0.066   6.795   0.159 -1.4324 -1.0822 -1.7035
   49MOL   H30118637   7.750   6.878   0.172  1.2742  1.6018  0.2084
   49MOL   H30218638   0.056   6.923   0.261 -1.0092  1.3379 -0.2586
   49MOL   H30318639   7.701   6.602   0.204 -0.5657  1.3142  0.2131
   49MOL   H30418640   0.025   6.557   0.245 -0.2384 -0.5866 -1.3132
   49MOL   H30518641   7.741   6.523   0.365  0.7666  1.9959  1.5468
   49MOL   C30618642   0.263   6.568   0.646 -0.3798  0.3231 -0.2508
   49MOL   C30718643   0.393   6.541   0.724  0.4050 -0.4291  0.1545
   49MOL   C30818644   0.507   6.629   0.680 -0.2447  0.5114  0.2363
   49MOL   O30918645   0.541   6.629   0.560 -0.2933 -0.0601 -0.3198
   49MOL   N31018646   0.575   6.692   0.770  0.1249  0.1257  0.6469
   49MOL   C31118647   0.674   6.794   0.741  1.0497 -0.1468 -0.1369
   49MOL   C31218648   0.643   6.924   0.815  0.1068 -0.4322  0.5722
   49MOL   C31318649   0.813   6.741   0.764 -0.1865 -0.7422 -0.6091
   49MOL   H31418650   0.190   6.503   0.695  0.5772 -2.7805 -2.7548
   49MOL   H31518651   0.263   6.534   0.543  0.3086 -0.6674  0.0730
   49MOL   H31618652   0.377   6.562   0.830  1.1863 -1.7132  0.5291
   49MOL   H31718653   0.539   6.681   0.864 -1.2333  0.5035  0.1811
   49MOL   H31818654   0.671   6.817   0.635  1.7421 -0.8342 -0.3072
   49MOL   H31918655   0.630   6.912   0.923 -0.0086 -0.4677  0.5545
   49MOL   H32018656   0.546   6.961   0.782  0.6725  0.4877 -0.0778
   49MOL   H32118657   0.723   6.997   0.799 -0.1373 -0.5380 -1.1830
   49MOL   H32218658   0.818   6.712   0.868  0.0089  2.8133  0.4614
   49MOL   H32318659   0.882   6.820   0.733 -0.0552  0.1236  1.7790
   49MOL   H32418660   0.826   6.658   0.695  1.8912 -0.6913 -0.3157
   49MOL   C32518661   0.430   6.386   0.728 -0.4739  0.2881  0.9507
   49MOL   C32618662   0.551   6.344   0.813 -0.5725  0.3409 -0.4750
   49MOL   C32718663   0.531   6.378   0.971 -0.6212 -0.4255  0.2732
   49MOL   O32818664   0.443   6.326   1.041  0.0121  0.2326  0.0478
   49MOL   N32918665   0.608   6.468   1.020 -0.3043 -0.9536  0.2755
   49MOL   C33018666   0.631   6.511   1.157  0.3566  0.0693  0.6043
   49MOL   C33118667   0.682   6.658   1.164 -0.5675  0.0257 -0.2051
   49MOL   C33218668   0.727   6.420   1.223 -0.7005  0.2904 -0.2712
   49MOL   H33318669   0.439   6.350   0.625 -2.0624  0.7461  0.6450
   49MOL   H33418670   0.341   6.335   0.763  0.7321 -2.9107 -0.4747
   49MOL   H33518671   0.638   6.394   0.771  0.7652  1.4795  3.4445
   49MOL   H33618672   0.684   6.490   0.957  0.0982 -0.9075  0.7757
   49MOL   H33718673   0.532   6.498   1.201 -0.7788  0.9654 -1.5512
   49MOL   H33818674   0.783   6.664   1.122 -1.2205 -0.0580 -1.8407
   49MOL   H33918675   0.616   6.720   1.104 -1.1676 -0.0395  0.3837
   49MOL   H34018676   0.690   6.695   1.266  0.4501  0.0129 -0.2696
   49MOL   H34118677   0.735   6.446   1.328 -2.5041 -0.2871  0.0301
   49MOL   H34218678   0.823   6.412   1.172 -0.0465 -4.3761  1.4430
   49MOL   H34318679   0.693   6.317   1.225  1.0063 -0.2674  1.2490
   49MOL   C34418680   0.569   6.198   0.793 -0.0927  0.1976 -0.3931
   49MOL   C34518681   0.706   6.144   0.854 -0.0248  0.3275 -0.4966
   49MOL   C34618682   0.687   5.991   0.858  0.2840  0.2761  0.1345
   49MOL   O34718683   0.714   5.916   0.761 -0.5088 -0.2880  0.5164
   49MOL   N34818684   0.649   5.944   0.972 -0.1006 -0.0633 -0.3422
   49MOL   C34918685   0.622   5.807   1.003  0.2602 -0.0186 -0.9589
   49MOL   C35018686   0.689   5.779   1.144 -0.0103  0.1129  0.2180
   49MOL   C35118687   0.473   5.769   1.016  0.8739  0.2868  0.5329
   49MOL   H35218688   0.558   6.176   0.687 -0.2062 -0.5294 -0.2327
   49MOL   H35318689   0.483   6.145   0.835 -0.0125  0.1604 -0.2769
   49MOL   H35418690   0.717   6.166   0.960 -0.7116 -0.4996 -0.2451
   49MOL   H35518691   0.633   6.007   1.049  1.1033 -0.5984  0.3652
   49MOL   H35618692   0.673   5.743   0.930  1.5548  0.1974 -0.2685
   49MOL   H35718693   0.688   5.673   1.170 -0.9818 -0.4909 -2.0809
   49MOL   H35818694   0.794   5.806   1.142 -0.3108  1.2717  0.0244
   49MOL   H35918695   0.637   5.820   1.230  0.0138  0.6469 -0.0226
   49MOL   H36018696   0.477   5.661   1.028  0.6415  0.2981  0.7122
   49MOL   H36118697   0.418   5.811   1.100  1.2055  0.0062  0.8946
   49MOL   H36218698   0.417   5.799   0.928  1.9540  1.4162  0.2186
   49MOL   C36318699   0.833   6.179   0.773  0.1986  0.3753 -0.1792
   49MOL   C36418700   0.956   6.199   0.867  0.7412 -0.0216  0.6875
   49MOL   C36518701   0.961   6.330   0.941  0.0608 -0.2690 -0.3479
   49MOL   O36618702   0.893   6.424   0.902 -0.7869  0.5530  0.0027
   49MOL   N36718703   1.033   6.333   1.046 -0.7260  0.3876  0.7355
   49MOL   C36818704   1.077   6.454   1.116 -0.4326  0.3428  0.8316
   49MOL   C36918705   1.110   6.427   1.256  0.3628  0.5497 -0.1032
   49MOL   C37018706   1.196   6.514   1.040  0.2622 -0.4177 -0.1430
   49MOL   H37118707   0.825   6.275   0.722 -1.1297  2.9756  4.6283
   49MOL   H37218708   0.854   6.098   0.703 -0.9540  0.8660 -1.1253
   49MOL   H37318709   1.042   6.189   0.801 -1.2194 -1.9043 -1.6503
   49MOL   H37418710   1.081   6.249   1.077  4.2189  3.6912  2.6505
   49MOL   H37518711   1.004   6.534   1.107 -0.9024 -0.3181 -2.0143
   49MOL   H37618712   1.045   6.358   1.310  1.3528 -1.7071 -1.6989
   49MOL   H37718713   1.204   6.372   1.267 -0.4300 -0.7180  0.4945
   49MOL   H37818714   1.118   6.517   1.316  0.4943 -0.3853  1.3253
   49MOL   H37918715   1.221   6.614   1.075 -1.1094 -0.0029 -0.2921
   49MOL   H38018716   1.291   6.464   1.055 -0.8117 -2.1443  1.0496
   49MOL   H38118717   1.185   6.514   0.931 -1.6865  2.9120 -0.0059
   49MOL   H38218718   0.952   6.120   0.942  0.1342  0.0193  0.6968
   50MOL     C118719   1.657   6.482   7.541 -0.3228 -0.0678 -0.3304
   50MOL     C218720   1.592   6.350   7.601  1.1362 -1.1697 -0.5930
   50MOL     C318721   1.502   6.282   7.494  0.2801 -0.0552 -0.9585
   50MOL     O418722   1.559   6.215   7.404 -0.0381 -0.2175  0.2909
   50MOL     N518723   1.371   6.274   7.525 -0.0413  0.2065  0.3714
   50MOL     C618724   1.275   6.188   7.458  0.2806 -0.2169  0.6599
   50MOL     C718725   1.222   6.087   7.556 -0.4626  0.4977  0.1927
   50MOL     C818726   1.166   6.273   7.393 -0.5396 -0.4704 -0.1108
   50MOL     H918727   1.710   6.536   7.620  1.3308 -2.9557  0.6303
   50MOL    H1018728   1.588   6.543   7.483 -0.6457 -0.7183 -0.6352
   50MOL    H1118729   1.522   6.385   7.677 -0.2996 -1.4626 -1.7637
   50MOL    H1218730   1.332   6.335   7.595 -0.9249 -1.0258  0.9694
   50MOL    H1318731   1.333   6.138   7.380 -1.7042 -0.2276 -0.8308
   50MOL    H1418732   1.295   6.006   7.558 -0.5512  0.4267  0.8294
   50MOL    H1518733   1.130   6.037   7.527  1.0513 -2.2580 -0.0369
   50MOL    H1618734   1.207   6.115   7.661 -1.3067  2.9286 -0.5498
   50MOL    H1718735   1.092   6.210   7.344 -2.7324  1.6741  0.3595
   50MOL    H1818736   1.116   6.338   7.464  1.5249 -0.1654  1.1183
   50MOL    H1918737   1.220   6.338   7.324  2.8867 -2.2954  0.7436
   50MOL    H2018738   1.732   6.449   7.469 -1.5581  0.5467 -1.9136
   50MOL    C2118739   1.704   6.257   7.652 -0.0384  0.7492 -0.7027
   50MOL    C2218740   1.649   6.174   7.775 -0.1238  0.6450  0.4886
   50MOL    C2318741   1.768   6.145   0.034  0.0429 -1.4721  0.8387
   50MOL    O2418742   1.832   6.044   0.029 -0.1469  0.6549 -0.0767
   50MOL    N2518743   1.806   6.251   0.103  0.0890 -0.8922 -0.2130
   50MOL    C2618744   1.939   6.275   0.166 -0.0436 -0.2111  0.1409
   50MOL    C2718745   1.930   6.317   0.316  0.1001  0.2488  0.0042
   50MOL    C2818746   2.034   6.365   0.085 -0.1408  0.0353  0.0610
   50MOL    H2918747   1.796   6.302   7.689  1.8900 -0.0630 -4.2734
   50MOL    H3018748   1.739   6.187   7.576 -0.0223  1.0944 -1.0185
   50MOL    H3118749   1.581   6.234   7.836 -3.0474 -1.1330 -0.9329
   50MOL    H3218750   1.742   6.329   0.096  1.8304  0.6195  0.2617
   50MOL    H3318751   1.991   6.180   0.154 -0.7996 -0.3754 -2.1695
   50MOL    H3418752   1.904   6.422   0.323  0.9944  0.4659  0.0721
   50MOL    H3518753   2.023   6.289   0.364 -0.6176 -0.2937  1.0993
   50MOL    H3618754   1.858   6.255   0.371  2.8232 -1.2018  2.0692
   50MOL    H3718755   2.039   6.339   7.815 -2.0527  1.5761 -0.4141
   50MOL    H3818756   2.001   6.468   0.091  0.1536  0.2218 -1.2450
   50MOL    H3918757   2.133   6.362   0.131 -0.2322  1.2461  0.3441
   50MOL    C4018758   1.570   6.044   7.729 -0.1625  0.5639  0.1513
   50MOL    C4118759   1.514   5.962   0.010  0.2284  0.3079  0.6446
   50MOL    C4218760   1.521   5.815   7.815 -0.2733 -0.4238  0.4606
   50MOL    O4318761   1.424   5.758   7.770 -0.2873 -0.4289  0.5938
   50MOL    N4418762   1.643   5.762   7.824 -0.1638 -0.4613  0.4058
   50MOL    C4518763   1.705   5.635   7.775 -0.9172  0.2287 -0.0685
   50MOL    C4618764   1.644   5.516   0.010 -0.4750  0.4788 -0.4888
   50MOL    C4718765   1.701   5.619   7.620 -0.5365 -0.6164 -0.0336
   50MOL    H4818766   1.638   5.979   7.674  0.4993  1.7596 -0.4789
   50MOL    H4918767   1.488   6.053   7.657 -1.3498 -0.2147  1.3711
   50MOL    H5018768   1.579   5.966   0.098  0.7566 -2.4853  0.4140
   50MOL    H5118769   1.707   5.831   0.024  1.6084 -2.7451  1.8620
   50MOL    H5218770   1.810   5.638   7.805 -1.1779 -0.0715  0.9037
   50MOL    H5318771   1.537   5.503   7.831 -0.8057  0.4832  1.6989
   50MOL    H5418772   1.663   5.534   0.116  0.3331 -0.8413 -0.4037
   50MOL    H5518773   1.691   5.420   7.825  0.2487  1.0366 -1.4843
   50MOL    H5618774   1.775   5.690   7.581  1.0197 -2.1720  0.0282
   50MOL    H5718775   1.604   5.651   7.583  0.5459  1.3017 -1.2940
   50MOL    H5818776   1.715   5.515   7.591 -0.9755 -1.4037  2.3908
   50MOL    C5918777   1.371   6.014   0.049 -0.0934  0.4034 -0.0468
   50MOL    C6018778   1.300   5.947   0.170  0.0994  0.4395 -0.8373
   50MOL    C6118779   1.150   5.998   0.177  0.2420  0.2441 -0.4028
   50MOL    O6218780   1.115   6.107   0.136 -0.2777  0.2245 -0.9179
   50MOL    N6318781   1.066   5.915   0.239 -0.6132 -0.4379  0.3608
   50MOL    C6418782   0.934   5.951   0.299  0.0056  0.0004  0.8709
   50MOL    C6518783   0.814   5.895   0.210 -1.0438 -0.0365 -0.2391
   50MOL    C6618784   0.933   5.915   0.442 -0.6849 -0.3857 -1.1706
   50MOL    H6718785   1.370   6.123   0.051  0.6602  0.4398 -1.1482
   50MOL    H6818786   1.304   5.993   7.802 -1.9091 -1.9285  1.9280
   50MOL    H6918787   1.293   5.839   0.160 -1.4296  0.2956  1.5753
   50MOL    H7018788   1.104   5.831   0.279 -0.5924 -0.0551  1.1551
   50MOL    H7118789   0.921   6.059   0.288 -0.3675  0.0892  2.1526
   50MOL    H7218790   0.789   5.790   0.230 -2.2191  0.2677 -0.1057
   50MOL    H7318791   0.724   5.952   0.232 -0.6973 -0.0941  1.3901
   50MOL    H7418792   0.838   5.904   0.104  0.8995 -3.3770 -0.1842
   50MOL    H7518793   0.999   5.979   0.501  0.5611 -0.8233 -2.0821
   50MOL    H7618794   0.838   5.933   0.493  0.1770 -1.8734  1.0498
   50MOL    H7718795   0.956   5.811   0.466 -2.0335 -0.2694  0.7757
   50MOL    C7818796   1.367   5.979   0.301  0.2802  0.3167  0.1662
   50MOL    C7918797   1.361   6.128   0.353  0.1675 -0.0919  0.0415
   50MOL    C8018798   1.247   6.156   0.457  0.1063 -0.6601  1.0361
   50MOL    O8118799   1.270   6.135   0.577 -0.5532 -0.1740  0.7683
   50MOL    N8218800   1.134   6.210   0.408 -0.8978 -0.1644 -0.0463
   50MOL    C8318801   1.040   6.274   0.499 -0.3468 -0.1327 -0.1346
   50MOL    C8418802   1.107   6.392   0.570  0.3066 -0.3316  0.5543
   50MOL    C8518803   0.902   6.317   0.427  0.0297  0.9033 -0.4900
   50MOL    H8618804   1.472   5.949   0.308  0.1634 -0.0888  0.2191
   50MOL    H8718805   1.320   5.912   0.373  1.3619 -1.6747 -0.9283
   50MOL    H8818806   1.331   6.192   0.270 -0.1622 -0.7942 -0.3889
   50MOL    H8918807   1.105   6.190   0.314 -1.1495  1.1480 -0.2564
   50MOL    H9018808   1.020   6.206   0.583 -1.9903  1.5922  0.9166
   50MOL    H9118809   1.172   6.370   0.655 -0.9700 -0.7704  1.4230
   50MOL    H9218810   1.159   6.462   0.504 -1.5441  1.6209  1.1036
   50MOL    H9318811   1.026   6.440   0.624  0.1771  1.1987 -0.9421
   50MOL    H9418812   0.843   6.227   0.407  1.1620 -0.0730  0.5357
   50MOL    H9518813   0.926   6.366   0.332  0.3168  1.3782 -0.1741
   50MOL    H9618814   0.843   6.376   0.497 -1.5884 -1.8941  0.5844
   50MOL    C9718815   1.496   6.179   0.402  0.0810 -0.1071  0.2165
   50MOL    C9818816   1.500   6.338   0.420  0.3906 -0.0288  0.5766
   50MOL    C9918817   1.501   6.416   0.290  0.9828  0.1465  0.5190
   50MOL   O10018818   1.601   6.424   0.222  0.4204  0.5576  0.5432
   50MOL   N10118819   1.383   6.469   0.252 -0.4915 -0.0415 -0.1877
   50MOL   C10218820   1.338   6.527   0.125 -0.5039  0.4712 -0.4123
   50MOL   C10318821   1.261   6.424   0.045  0.1906  0.3567  0.4531
   50MOL   C10418822   1.252   6.650   0.147  0.3318  0.6551  0.1099
   50MOL   H10518823   1.570   6.164   0.324  0.0029  1.3574 -0.1661
   50MOL   H10618824   1.526   6.118   0.486 -1.3736 -0.2036  0.6845
   50MOL   H10718825   1.406   6.369   0.466 -0.7380  0.2814 -1.8725
   50MOL   H10818826   1.312   6.470   0.323 -0.9596  1.6222 -0.6449
   50MOL   H10918827   1.426   6.574   0.080  0.0319 -0.5589 -0.4548
   50MOL   H11018828   1.331   6.342   0.029 -0.8363 -0.8928  2.2399
   50MOL   H11118829   1.178   6.379   0.099 -0.8040  2.3175  0.6039
   50MOL   H11218830   1.216   6.469   7.793 -1.0024 -2.4909 -0.4707
   50MOL   H11318831   1.168   6.625   0.211  0.3332 -0.8265 -0.4632
   50MOL   H11418832   1.210   6.675   0.049  0.2499  1.3747  0.3231
   50MOL   H11518833   1.318   6.730   0.182  2.1901 -0.4388 -0.7995
   50MOL   C11618834   1.612   6.386   0.511 -0.1440  0.1668  0.2918
   50MOL   C11718835   1.609   6.531   0.569 -0.5173 -0.0902  0.2617
   50MOL   C11818836   1.735   6.554   0.652  0.0163 -1.1111  0.6103
   50MOL   O11918837   1.774   6.476   0.737 -0.2203  0.4610 -0.4239
   50MOL   N12018838   1.799   6.667   0.618 -0.0309 -0.1324 -0.4659
   50MOL   C12118839   1.925   6.715   0.669  0.5709 -0.5768  0.0494
   50MOL   C12218840   2.037   6.632   0.615  0.1693 -0.2233  0.0382
   50MOL   C12318841   1.931   6.865   0.631  0.0658 -0.2565  0.2279
   50MOL   H12418842   1.699   6.364   0.449 -0.3203  1.9414 -0.6316
   50MOL   H12518843   1.613   6.323   0.599  0.5176  0.6218  0.6134
   50MOL   H12618844   1.598   6.597   0.483 -2.5148 -1.2744 -0.4200
   50MOL   H12718845   1.750   6.723   0.550 -0.4196 -0.6436 -0.6165
   50MOL   H12818846   1.930   6.703   0.777  0.9659  0.5848  0.1647
   50MOL   H12918847   2.053   6.635   0.507 -1.7182 -0.7097 -0.2592
   50MOL   H13018848   2.035   6.532   0.656 -1.5177  0.5401  1.8680
   50MOL   H13118849   2.134   6.663   0.655  0.1096 -1.8491  1.4601
   50MOL   H13218850   2.028   6.900   0.667 -0.2035 -1.3414  2.1196
   50MOL   H13318851   1.930   6.890   0.525 -0.0026  2.8422  0.9107
   50MOL   H13418852   1.853   6.916   0.688  0.0455  0.0454 -0.0690
   50MOL   C13518853   1.486   6.558   0.658 -1.0887  1.1261  0.5120
   50MOL   C13618854   1.433   6.699   0.667 -0.2648 -0.6091 -0.9221
   50MOL   C13718855   1.397   6.755   0.525 -0.6237 -0.4373  0.6396
   50MOL   O13818856   1.331   6.688   0.452  0.0423  0.4941 -0.3578
   50MOL   N13918857   1.447   6.874   0.497 -0.8387 -0.2966 -0.1333
   50MOL   C14018858   1.473   6.922   0.361  0.1591 -0.1108 -0.3181
   50MOL   C14118859   1.608   6.868   0.294 -0.1669 -0.2032  0.1106
   50MOL   C14218860   1.455   7.072   0.355  0.1678 -0.1914 -0.6944
   50MOL   H14318861   1.498   6.524   0.761  0.6631 -0.6044 -0.2254
   50MOL   H14418862   1.402   6.496   0.627 -1.4743  1.7566  0.2803
   50MOL   H14518863   1.515   6.763   0.701 -0.7192  0.0275 -1.0119
   50MOL   H14618864   1.494   6.924   0.571 -1.3154  0.3025 -0.2340
   50MOL   H14718865   1.406   6.868   0.295 -0.8186  0.3701  0.2684
   50MOL   H14818866   1.598   6.759   0.285  2.9763 -0.4360 -0.9749
   50MOL   H14918867   1.607   6.900   0.190 -0.2412  3.9047  1.3133
   50MOL   H15018868   1.698   6.909   0.339  0.9722 -2.2297 -0.2661
   50MOL   H15118869   1.349   7.093   0.345  0.2005 -0.6117 -2.0247
   50MOL   H15218870   1.505   7.108   0.265  0.4472 -0.3381 -0.5970
   50MOL   H15318871   1.504   7.127   0.436 -0.0848 -1.6929  0.4845
   50MOL   C15418872   1.303   6.708   0.756  0.1974 -0.0728 -0.1589
   50MOL   C15518873   1.280   6.851   0.815  0.4015 -0.4966 -0.6358
   50MOL   C15618874   1.404   6.897   0.891  0.6593  0.0291 -0.0912
   50MOL   O15718875   1.451   7.005   0.858 -0.3671 -0.8353  0.1744
   50MOL   N15818876   1.440   6.810   0.988 -0.6106  1.2916 -0.5935
   50MOL   C15918877   1.570   6.800   1.058 -0.0874 -0.3832  0.3478
   50MOL   C16018878   1.657   6.681   1.016  0.9417  0.7734 -0.1187
   50MOL   C16118879   1.539   6.788   1.210 -0.2940 -0.2470 -0.1423
   50MOL   H16218880   1.324   6.640   0.839  1.9266  2.1276  1.2611
   50MOL   H16318881   1.208   6.676   0.713 -0.0455 -2.2002  1.8511
   50MOL   H16418882   1.262   6.921   0.733 -1.3628  0.4397  0.5279
   50MOL   H16518883   1.387   6.725   0.994 -0.0891  0.9873 -0.2984
   50MOL   H16618884   1.626   6.892   1.043 -1.8844  0.4145 -1.7325
   50MOL   H16718885   1.741   6.681   1.086 -0.8942 -1.4296  2.1919
   50MOL   H16818886   1.599   6.588   1.014  1.3586  0.5116 -0.1847
   50MOL   H16918887   1.694   6.689   0.914 -0.5954 -0.0798 -0.7592
   50MOL   H17018888   1.524   6.688   1.252  0.1788 -1.2220 -2.2232
   50MOL   H17118889   1.475   6.867   1.250 -1.5959 -0.5101 -1.6275
   50MOL   H17218890   1.632   6.826   1.251  0.3049 -1.9766  0.1598
   50MOL   C17318891   1.155   6.857   0.907  0.4144 -0.7615  0.0940
   50MOL   C17418892   1.120   6.999   0.961  0.5558  0.0836  0.3946
   50MOL   C17518893   1.073   7.101   0.850 -0.2381 -0.3394 -0.0904
   50MOL   O17618894   0.954   7.121   0.834  0.0089  0.4853 -0.0322
   50MOL   N17718895   1.174   7.165   0.783 -0.6060  0.2536  0.6919
   50MOL   C17818896   1.162   7.275   0.690 -0.0921  0.6207  0.3323
   50MOL   C17918897   1.067   7.247   0.572 -0.7867  0.0154  0.5792
   50MOL   C18018898   1.298   7.314   0.634  0.3166  0.0485  0.7811
   50MOL   H18118899   1.174   6.798   0.997  0.9998 -0.1891  0.3605
   50MOL   H18218900   1.072   6.815   0.851 -0.5351  0.2644  0.6929
   50MOL   H18318901   1.210   7.033   1.014  1.5902 -2.3748  0.2618
   50MOL   H18418902   1.262   7.141   0.824  0.1365 -1.1566 -1.5894
   50MOL   H18518903   1.121   7.356   0.750  0.8372 -1.1621  3.4508
   50MOL   H18618904   0.969   7.223   0.614 -1.3531 -0.3872 -0.9373
   50MOL   H18718905   1.101   7.168   0.505  2.9427  0.2775  2.0621
   50MOL   H18818906   1.059   7.333   0.506 -0.8379  1.5842  2.6064
   50MOL   H18918907   1.366   7.359   0.706  2.3483 -1.0564 -0.4025
   50MOL   H19018908   1.294   7.390   0.556 -1.5007  0.9484  1.7126
   50MOL   H19118909   1.352   7.233   0.584  1.9069 -0.4273  3.1421
   50MOL   C19218910   1.019   6.980   1.072 -0.5430  0.5436 -0.6064
   50MOL   C19318911   1.041   7.065   1.196 -0.2753 -0.4579 -0.1218
   50MOL   C19418912   1.082   6.979   1.319 -0.4493  0.1883  0.6834
   50MOL   O19518913   0.990   6.942   1.391 -0.2414  0.1993 -0.2956
   50MOL   N19618914   1.213   6.955   1.345  0.6810 -0.1803 -0.6841
   50MOL   C19718915   1.267   6.877   1.459  0.0127  0.0011 -0.5292
   50MOL   C19818916   1.225   6.928   1.603 -0.1464  0.0680 -0.1469
   50MOL   C19918917   1.255   6.728   1.431 -0.1511 -0.5826  0.1964
   50MOL   H20018918   1.018   6.877   1.108 -2.1355  0.6089 -0.4059
   50MOL   H20118919   0.916   6.996   1.038 -0.8335 -0.1486 -0.0451
   50MOL   H20218920   1.128   7.129   1.181 -1.1353  0.8612  0.4356
   50MOL   H20318921   1.277   6.992   1.275  3.0591  1.1240  2.0697
   50MOL   H20418922   1.373   6.900   1.457 -0.3899  2.4498  2.1195
   50MOL   H20518923   1.262   6.869   1.687  1.0270  2.2872  0.9260
   50MOL   H20618924   1.116   6.932   1.615 -0.0968  3.7186 -0.4730
   50MOL   H20718925   1.236   7.032   1.632 -1.1481  0.2427 -0.3522
   50MOL   H20818926   1.296   6.669   1.513  3.3887  2.5276  0.7754
   50MOL   H20918927   1.307   6.700   1.340  1.2322  0.6072  0.6031
   50MOL   H21018928   1.149   6.704   1.418 -0.8312  0.7476  2.7741
   50MOL   C21118929   0.917   7.158   1.236 -0.2453  0.0958 -0.2909
   50MOL   C21218930   0.910   7.290   1.152  0.3836 -0.0362 -1.3751
   50MOL   C21318931   0.757   7.338   1.159 -0.5251 -0.8602  0.4806
   50MOL   O21418932   0.736   7.435   1.228  0.1108  0.4270  0.0294
   50MOL   N21518933   0.667   7.264   1.091 -0.2069 -0.4018 -0.2034
   50MOL   C21618934   0.524   7.283   1.085 -0.2379 -0.2419 -0.1069
   50MOL   C21718935   0.457   7.164   1.022  0.3614 -0.0120  0.4788
   50MOL   C21818936   0.494   7.401   0.994  0.4604  0.2271 -0.6779
   50MOL   H21918937   0.925   7.189   1.341  2.0140 -0.0862 -0.3687
   50MOL   H22018938   0.827   7.097   1.236  0.4346 -0.9270 -0.8844
   50MOL   H22118939   0.924   7.254   1.050 -0.1137 -1.5166 -0.9354
   50MOL   H22218940   0.704   7.178   1.053  1.3171  0.5573 -0.9880
   50MOL   H22318941   0.485   7.297   1.185 -0.5144 -2.7779  0.1736
   50MOL   H22418942   0.480   7.154   0.916  3.0168 -1.1626  1.1383
   50MOL   H22518943   0.476   7.074   1.080  0.8015 -0.3711 -0.2103
   50MOL   H22618944   0.348   7.172   1.025  0.2668 -1.7094  1.9800
   50MOL   H22718945   0.537   7.496   1.027 -0.5270  1.0477 -1.7017
   50MOL   H22818946   0.386   7.414   0.992  0.3561 -0.2282  1.0566
   50MOL   H22918947   0.533   7.382   0.894  0.4085 -0.5947 -0.5405
   50MOL   C23018948   1.012   7.393   1.198 -0.4571 -0.0469  0.5353
   50MOL   C23118949   1.035   7.522   1.112  0.2034  0.4535 -0.0276
   50MOL   C23218950   1.028   7.650   1.208  0.3414  0.6266 -0.2531
   50MOL   O23318951   1.118   7.732   1.216 -0.6772 -0.5135 -0.2248
   50MOL   N23418952   0.912   7.666   1.272  0.0830 -0.2276 -0.3210
   50MOL   C23518953   0.864   7.788   1.352  0.1305  0.8317  0.1801
   50MOL   C23618954   0.721   7.829   1.314 -0.0049  0.2802  0.3123
   50MOL   C23718955   0.880   7.758   1.499  0.0727  0.1852 -0.1828
   50MOL   H23818956   1.110   7.346   1.207 -0.5777 -0.0802  1.8067
   50MOL   H23918957   0.981   7.416   1.300  0.9477  2.0712  0.5205
   50MOL   H24018958   0.946   7.531   1.049 -0.5365  2.6639  1.2720
   50MOL   H24118959   0.848   7.588   1.277 -0.5734  0.3536  0.7580
   50MOL   H24218960   0.926   0.039   1.328 -1.8994  2.5377  0.9651
   50MOL   H24318961   0.653   7.744   1.324 -0.9084  0.6162 -2.4334
   50MOL   H24418962   0.678   0.072   1.375  2.5043 -0.1243  2.6952
   50MOL   H24518963   0.719   0.022   1.209 -1.6991 -0.4033  0.1308
   50MOL   H24618964   0.982   7.768   1.535  0.2705 -1.5490 -0.2053
   50MOL   H24718965   0.843   7.657   1.520  0.8919 -0.3710 -1.3097
   50MOL   H24818966   0.812   7.820   1.556  0.4101  0.6657 -0.2985
   50MOL   C24918967   1.156   7.493   1.014  0.3079 -0.9271 -0.5263
   50MOL   C25018968   1.290   7.483   1.084 -0.1193  0.6078  0.7307
   50MOL   C25118969   1.389   7.593   1.034 -0.4485  0.3465  0.6278
   50MOL   O25218970   1.448   7.574   0.930 -0.1353  0.1184 -0.2540
   50MOL   N25318971   1.399   7.703   1.104  0.8515 -0.5846 -0.2003
   50MOL   C25418972   1.510   7.799   1.092  0.8794  0.4938  0.0919
   50MOL   C25518973   1.452   0.080   1.010 -0.4398  0.6489  0.0576
   50MOL   C25618974   1.547   0.002   1.234  0.2289  0.5806  0.6974
   50MOL   H25718975   1.163   7.574   0.941 -0.0171  1.4904  2.0329
   50MOL   H25818976   1.139   7.401   0.958 -0.0457 -0.7637 -0.6943
   50MOL   H25918977   1.276   7.506   1.190 -0.7086  0.9393  0.5819
   50MOL   H26018978   1.333   7.720   1.179 -0.9249 -2.8377 -1.1977
   50MOL   H26118979   1.602   7.763   1.047  0.4347  0.3391 -0.7034
   50MOL   H26218980   1.500   0.178   1.011  0.6943  0.1007  0.2134
   50MOL   H26318981   1.443   0.055   0.905  1.2775  0.4160 -0.0460
   50MOL   H26418982   1.357   0.110   1.053 -0.0501  1.7996  0.1314
   50MOL   H26518983   1.460   0.044   1.284 -1.5295 -0.8075 -1.1521
   50MOL   H26618984   1.580   7.751   1.290  0.1614  0.3878  0.4317
   50MOL   H26718985   1.633   0.069   1.245  0.9744 -0.6440  2.6268
   50MOL   C26818986   1.356   7.345   1.064  0.2469  0.1775  0.1897
   50MOL   C26918987   1.484   7.313   1.142 -0.3938  0.3597 -0.6218
   50MOL   C27018988   1.439   7.271   1.287 -0.2405  0.0082  0.7386
   50MOL   O27118989   1.383   7.162   1.300  0.2811 -0.2284  0.4522
   50MOL   N27218990   1.455   7.359   1.381  0.0623 -0.2742  0.3814
   50MOL   C27318991   1.401   7.337   1.513 -0.1898 -0.4538 -0.2293
   50MOL   C27418992   1.492   7.399   1.624 -0.3240 -0.2342  0.1160
   50MOL   C27518993   1.257   7.387   1.531  0.0476  0.1164  0.3727
   50MOL   H27618994   1.284   7.268   1.090 -0.2027  0.8831  1.0289
   50MOL   H27718995   1.369   7.328   0.957  1.1896  1.0046  0.1625
   50MOL   H27818996   1.541   7.405   1.159 -0.2143  0.5308 -2.1123
   50MOL   H27918997   1.506   7.446   1.373 -0.4953 -0.0111 -0.2791
   50MOL   H28018998   1.395   7.228   1.521  1.4656 -0.6355 -1.1875
   50MOL   H28118999   1.583   7.339   1.631 -1.7229 -2.1933  1.9744
   50MOL   H28219000   1.521   7.501   1.601  0.6831 -0.9728 -2.0388
   50MOL   H28319001   1.450   7.405   1.724 -0.7349  0.1043 -0.0760
   50MOL   H28419002   1.188   7.346   1.458  2.1579 -1.7572 -0.6245
   50MOL   H28519003   1.212   7.349   1.623 -0.3851 -0.9580 -0.2778
   50MOL   H28619004   1.248   7.495   1.519  2.1423 -0.0892 -3.9323
   50MOL   C28719005   1.565   7.210   1.065 -0.8801  0.4040 -0.5133
   50MOL   C28819006   1.720   7.227   1.085 -0.0090 -0.4953 -0.0157
   50MOL   C28919007   1.797   7.244   0.953 -0.1193  0.0256  0.6892
   50MOL   O29019008   1.893   7.174   0.921 -0.1736  0.5338  0.0669
   50MOL   N29119009   1.752   7.345   0.877  0.0149 -0.3604  1.1393
   50MOL   C29219010   1.832   7.410   0.771 -0.3805 -0.4660  0.1337
   50MOL   C29319011   1.733   7.464   0.666 -0.1337 -0.0880 -0.3376
   50MOL   C29419012   1.925   7.513   0.837  0.0129 -0.4777 -0.1541
   50MOL   H29519013   1.536   7.109   1.096  0.1230  0.4271  0.5734
   50MOL   H29619014   1.543   7.211   0.959 -0.8420  0.2034 -0.5233
   50MOL   H29719015   1.726   7.315   1.149 -2.5420  1.0130 -1.7780
   50MOL   H29819016   1.656   7.373   0.896 -0.2930  0.5553 -1.5497
   50MOL   H29919017   1.897   7.339   0.721  0.3223 -0.0811  0.4951
   50MOL   H30019018   1.796   7.500   0.584  1.5102 -3.0340 -0.4351
   50MOL   H30119019   1.673   7.379   0.633 -1.6042  1.1647 -0.9264
   50MOL   H30219020   1.670   7.545   0.703 -0.5434  0.1467 -1.5505
   50MOL   H30319021   1.983   7.549   0.752 -1.2027 -1.7466 -1.5452
   50MOL   H30419022   1.866   7.598   0.873  0.6129  0.6279 -1.7003
   50MOL   H30519023   1.987   7.475   0.918 -0.0036 -0.5066 -0.1547
   50MOL   C30619024   1.774   7.111   1.174 -0.1411  0.2835  0.4666
   50MOL   C30719025   1.895   7.161   1.270 -0.2933  0.3407 -0.1570
   50MOL   C30819026   2.007   7.054   1.265  0.4736 -0.9601  0.1730
   50MOL   O30919027   2.034   6.990   1.361  0.0484  0.9553  0.1773
   50MOL   N31019028   2.058   7.033   1.145 -0.4925  0.2274  0.2758
   50MOL   C31119029   2.128   6.915   1.101  0.1154  0.5425 -0.2204
   50MOL   C31219030   2.034   6.786   1.082 -0.1470 -0.2952  0.5879
   50MOL   C31319031   2.209   6.950   0.968  0.1693 -0.6490  0.0222
   50MOL   H31419032   1.703   7.075   1.248 -0.7705 -1.7416 -1.0914
   50MOL   H31519033   1.790   7.018   1.120  2.1168  0.2437  1.1739
   50MOL   H31619034   1.923   7.261   1.237  1.3424 -0.5157 -1.4124
   50MOL   H31719035   2.025   7.088   1.066 -0.3318 -0.2705 -0.1368
   50MOL   H31819036   2.209   6.880   1.164  0.5392 -0.6263 -1.3926
   50MOL   H31919037   1.942   6.825   1.038  0.0052 -1.2042 -0.5506
   50MOL   H32019038   2.013   6.733   1.175  1.6451  0.8504  1.6637
   50MOL   H32119039   2.071   6.709   1.015  0.6581 -1.2673  2.1423
   50MOL   H32219040   2.146   7.008   0.900 -0.8380 -0.4191  1.1300
   50MOL   H32319041   2.248   6.863   0.915  0.1241 -0.4206 -0.3899
   50MOL   H32419042   2.284   7.019   1.007  0.0846 -0.6688  0.2217
   50MOL   C32519043   1.842   7.196   1.417 -0.3462 -0.1360  0.5124
   50MOL   C32619044   1.938   7.295   1.497  0.8373  0.9467 -0.2066
   50MOL   C32719045   1.888   7.438   1.464  0.0142 -0.8425 -0.2855
   50MOL   O32819046   1.790   7.483   1.526  0.0812 -0.4386 -0.0102
   50MOL   N32919047   1.955   7.504   1.366 -0.7866  0.0928 -0.5515
   50MOL   C33019048   1.928   7.645   1.330  0.1406 -0.2501 -0.6730
   50MOL   C33119049   1.874   7.643   1.189 -0.2654  0.0519 -0.2385
   50MOL   C33219050   2.054   7.726   1.345 -0.3443 -0.1601 -0.2967
   50MOL   H33319051   1.839   7.097   1.462  0.4632 -0.2454  0.3472
   50MOL   H33419052   1.739   7.230   1.419 -0.0797  0.9530 -1.9863
   50MOL   H33519053   2.035   7.291   1.449 -0.5367 -1.6937 -2.9679
   50MOL   H33619054   2.046   7.480   1.331 -1.4813 -0.8162 -1.7646
   50MOL   H33719055   1.854   7.694   1.394  1.0872  0.5249 -0.1468
   50MOL   H33819056   1.853   7.741   1.147 -2.3393  0.4046  1.5207
   50MOL   H33919057   1.950   7.603   1.122  1.3702 -0.0956  1.6398
   50MOL   H34019058   1.794   7.575   1.162  1.5256 -2.1491 -0.1136
   50MOL   H34119059   2.023   7.826   1.376 -0.2022 -0.5626  1.1650
   50MOL   H34219060   2.114   7.730   1.254 -1.6106  0.7643 -1.1169
   50MOL   H34319061   2.119   7.687   1.423  0.4924 -0.5314 -1.1781
   50MOL   C34419062   1.947   7.274   1.648 -0.3816 -0.0470  0.4815
   50MOL   C34519063   1.955   7.127   1.700  0.8311 -0.0770 -0.1417
   50MOL   C34619064   2.034   7.119   1.833  0.5150 -0.6745 -0.5357
   50MOL   O34719065   1.999   7.200   1.918  0.8074  0.3976 -0.7465
   50MOL   N34819066   2.135   7.036   1.849  0.4457  0.2883  0.1393
   50MOL   C34919067   2.222   7.037   1.966 -1.1295 -0.1368  0.4004
   50MOL   C35019068   2.261   6.896   2.018 -0.4840 -0.3653  0.9380
   50MOL   C35119069   2.349   7.129   1.944 -0.0128 -0.1907  0.8354
   50MOL   H35219070   1.866   7.335   1.687 -2.2545 -1.9899 -0.2471
   50MOL   H35319071   2.041   7.320   1.678  0.4038 -2.0433  1.1841
   50MOL   H35419072   1.999   7.059   1.626  2.4619  0.0825  0.6709
   50MOL   H35519073   2.160   6.980   1.769 -0.3561  1.0864 -0.6735
   50MOL   H35619074   2.161   7.083   2.044 -1.2041 -1.4872  1.1546
   50MOL   H35719075   2.168   6.843   2.036 -1.2206 -2.2657 -6.7006
   50MOL   H35819076   2.332   6.847   1.951  2.5052  1.9983  2.2550
   50MOL   H35919077   2.314   6.907   2.113  2.2344  0.9787 -0.6497
   50MOL   H36019078   2.401   7.118   1.849 -2.1404  0.0958 -0.3849
   50MOL   H36119079   2.317   7.233   1.957  0.5626  0.0594  0.2983
   50MOL   H36219080   2.423   7.108   2.021  1.1757  0.9618  0.0297
   50MOL   C36319081   1.806   7.079   1.723 -0.0742 -0.7894  0.1547
   50MOL   C36419082   1.786   6.926   1.706  0.1712  0.2073  0.0363
   50MOL   C36519083   1.643   6.883   1.680  0.3075 -0.5512  0.5737
   50MOL   O36619084   1.552   6.954   1.711  0.0227 -0.5024  0.1392
   50MOL   N36719085   1.623   6.757   1.643  0.1213 -0.2109  0.4370
   50MOL   C36819086   1.723   6.654   1.600 -0.0322  0.1645  0.2069
   50MOL   C36919087   1.701   6.523   1.684 -1.2224 -0.1012 -0.2925
   50MOL   C37019088   1.728   6.621   1.445 -0.0953 -0.2760  0.3249
   50MOL   H37119089   1.744   7.119   1.644  2.4348 -2.7193 -2.9103
   50MOL   H37219090   1.766   7.119   1.816  0.2044 -0.1302 -0.0082
   50MOL   H37319091   1.825   6.875   1.794  1.7416 -1.8164 -1.7867
   50MOL   H37419092   1.525   6.739   1.627 -0.0747  0.4724  0.8812
   50MOL   H37519093   1.824   6.687   1.620 -0.4453  1.8616 -0.4232
   50MOL   H37619094   1.753   6.436   1.644  1.6953  1.3463  0.2245
   50MOL   H37719095   1.731   6.534   1.788  3.2011 -2.7766 -1.1970
   50MOL   H37819096   1.598   6.489   1.677 -1.1786 -0.4250  0.5034
   50MOL   H37919097   1.626   6.589   1.422 -0.3262  1.0465 -0.5181
   50MOL   H38019098   1.759   6.700   1.377 -1.0578  1.3887  1.8023
   50MOL   H38119099   1.796   6.537   1.425  0.9829  0.4492  0.8675
   50MOL   H38219100   1.844   6.891   1.620 -0.2780 -1.8323  0.5383
   51MOL     C119101   2.079   0.423   4.584 -0.0252 -0.1746 -0.0123
   51MOL     C219102   2.108   0.480   4.445  0.3484  0.2308  0.0505
   51MOL     C319103   2.241   0.566   4.444 -0.2557  0.6687  0.6624
   51MOL     O419104   2.353   0.516   4.468 -0.2710 -0.0533 -0.2526
   51MOL     N519105   2.234   0.695   4.410  0.4472  0.2301 -0.3196
   51MOL     C619106   2.118   0.775   4.371  0.3572  0.5999  0.0185
   51MOL     C719107   2.061   0.851   4.497  0.2714 -0.9301  0.1426
   51MOL     C819108   2.165   0.870   4.268 -0.5044 -0.1563 -0.3230
   51MOL     H919109   2.038   0.495   4.655 -1.1126 -2.1209  1.4059
   51MOL    H1019110   2.167   0.378   4.631  0.3766  0.0896 -0.5031
   51MOL    H1119111   2.022   0.542   4.420  0.6236  0.8461  0.6029
   51MOL    H1219112   2.322   0.737   4.384 -0.9240  2.3956 -1.7260
   51MOL    H1319113   2.043   0.716   4.318  4.1416 -2.1994 -2.4936
   51MOL    H1419114   2.022   0.794   4.581  2.5758  1.8668  3.2279
   51MOL    H1519115   1.990   0.928   4.466 -0.0289 -1.3907 -0.3046
   51MOL    H1619116   2.138   0.907   4.550  1.3390 -2.0492 -0.1942
   51MOL    H1719117   2.232   0.944   4.312 -0.9872 -0.8448  1.6327
   51MOL    H1819118   2.227   0.823   4.191  0.6043 -0.8620  0.9707
   51MOL    H1919119   2.085   0.917   4.212 -0.4027  0.3083 -0.0805
   51MOL    H2019120   1.997   0.352   4.574  1.5435 -1.7911 -1.7398
   51MOL    C2119121   2.124   0.367   4.344  0.0924 -0.2132 -0.3470
   51MOL    C2219122   2.009   0.329   4.258 -0.2142  0.0314 -0.1525
   51MOL    C2319123   1.980   0.435   4.151  0.0352 -0.4288 -0.9289
   51MOL    O2419124   1.899   0.526   4.163  0.0800  0.3354 -0.8755
   51MOL    N2519125   2.050   0.426   4.040 -0.0090 -0.4617 -0.3321
   51MOL    C2619126   2.036   0.507   3.918 -0.6175  0.1919  0.1571
   51MOL    C2719127   2.127   0.461   3.800  0.4546 -0.0149  0.1747
   51MOL    C2819128   2.059   0.656   3.939  0.3354 -0.5740 -0.3205
   51MOL    H2919129   2.151   0.285   4.410 -1.4584  0.9718  1.8044
   51MOL    H3019130   2.208   0.394   4.280  1.2270  0.2278  1.3060
   51MOL    H3119131   2.062   0.253   4.201  1.2046 -0.2103  1.4581
   51MOL    H3219132   2.132   0.367   4.037  0.5991  0.4091 -1.1782
   51MOL    H3319133   1.932   0.496   3.886 -0.5235  0.9451 -0.4225
   51MOL    H3419134   2.134   0.352   3.792  2.3047 -0.1010  2.2947
   51MOL    H3519135   2.227   0.498   3.823  0.2833 -0.2742  1.3721
   51MOL    H3619136   2.084   0.483   3.702 -0.2641  0.6408  0.6357
   51MOL    H3719137   1.971   0.701   3.984  0.5098 -1.7282  1.2363
   51MOL    H3819138   2.146   0.680   4.001 -0.8463 -0.2576  1.2366
   51MOL    H3919139   2.087   0.703   3.844  1.1066 -1.3946 -0.5112
   51MOL    C4019140   1.889   0.264   4.319  0.2368  0.2608 -0.6698
   51MOL    C4119141   1.796   0.211   4.205 -0.3006  0.1921  0.0138
   51MOL    C4219142   1.646   0.208   4.242 -0.0041 -0.0327  0.3216
   51MOL    O4319143   1.603   0.136   4.332 -0.1759 -0.5462 -0.0502
   51MOL    N4419144   1.566   0.286   4.163  0.3867  0.1812  0.5372
   51MOL    C4519145   1.425   0.319   4.184  0.6289  0.6504  0.1804
   51MOL    C4619146   1.393   0.467   4.147 -0.7575  0.2710 -0.6659
   51MOL    C4719147   1.338   0.218   4.110 -0.0228  0.5245 -0.1341
   51MOL    H4819148   1.831   0.330   4.383  4.0134  0.6567  2.4955
   51MOL    H4919149   1.929   0.191   4.389 -2.4660  1.9477  2.8135
   51MOL    H5019150   1.800   0.278   4.119 -1.3647 -0.8592 -0.8620
   51MOL    H5119151   1.604   0.322   4.077  0.2490  0.0105  0.4044
   51MOL    H5219152   1.407   0.297   4.289  2.7923 -1.5379  0.1203
   51MOL    H5319153   1.287   0.487   4.162 -0.8780  0.5202 -1.8296
   51MOL    H5419154   1.410   0.492   4.042  0.0123  1.9387 -0.1771
   51MOL    H5519155   1.458   0.535   4.203 -2.1177  0.4727  0.6812
   51MOL    H5619156   1.376   0.116   4.113  0.8800  0.8736  0.5086
   51MOL    H5719157   1.349   0.249   4.006  0.5246  0.2225 -0.1677
   51MOL    H5819158   1.231   0.223   4.130 -0.0618 -0.5585 -0.0659
   51MOL    C5919159   1.842   0.068   4.160  0.5575 -0.0350  0.1535
   51MOL    C6019160   1.750   7.819   4.065 -0.9241 -0.7346  0.2471
   51MOL    C6119161   1.734   7.682   4.126 -0.0085  0.0888  0.1043
   51MOL    O6219162   1.781   7.580   4.075 -0.4846  0.6003  0.0167
   51MOL    N6319163   1.664   7.675   4.240  0.0049  0.0159 -0.1679
   51MOL    C6419164   1.655   7.554   4.331 -0.7694 -0.0637 -0.0035
   51MOL    C6519165   1.795   7.512   4.383 -0.3685  0.5623  0.4062
   51MOL    C6619166   1.548   7.560   4.427  0.0197  0.2793 -0.2640
   51MOL    H6719167   1.943   0.054   4.119  1.5861 -2.1474  3.2269
   51MOL    H6819168   1.847   0.026   4.260 -0.3009 -0.3565  0.0617
   51MOL    H6919169   1.650   0.025   4.069 -1.1502 -1.0791 -1.4785
   51MOL    H7019170   1.624   7.761   4.273 -0.3177 -1.1757  2.6792
   51MOL    H7119171   1.620   7.473   4.267  1.5673 -1.1305  0.0145
   51MOL    H7219172   1.878   7.528   4.315  1.0322 -2.4673  1.3339
   51MOL    H7319173   1.801   7.584   4.465 -2.1411 -1.6923  2.5874
   51MOL    H7419174   1.797   7.408   4.414 -2.5743  0.8459  1.6266
   51MOL    H7519175   1.470   7.612   4.371  1.4817 -0.1280 -2.7541
   51MOL    H7619176   1.519   7.460   4.460 -4.3067  1.5276 -0.0006
   51MOL    H7719177   1.584   7.625   4.507 -1.4539 -1.2401  1.6633
   51MOL    C7819178   1.807   7.810   3.925 -0.3204 -0.0564 -0.4163
   51MOL    C7919179   1.806   0.105   3.858 -0.3677 -0.6249 -0.6949
   51MOL    C8019180   1.891   0.085   3.731  0.1020 -0.4284  0.3749
   51MOL    O8119181   1.834   0.050   3.629  0.0873  0.2183  0.2577
   51MOL    N8219182   2.020   0.109   3.737 -0.5063 -0.8133  0.3738
   51MOL    C8319183   2.121   0.097   3.639 -0.3834 -0.2524  0.0727
   51MOL    C8419184   2.155   7.792   3.600  0.1120  0.4547  0.6526
   51MOL    C8519185   2.088   0.184   3.518  0.1344 -0.1566  0.3449
   51MOL    H8619186   1.751   7.742   3.861 -2.1987 -0.0803  1.2376
   51MOL    H8719187   1.905   7.763   3.933 -0.4623 -0.6585 -2.0319
   51MOL    H8819188   1.854   0.186   3.913 -2.7140  0.2427  0.1040
   51MOL    H8919189   2.048   0.133   3.831  0.9987 -1.1147  0.0198
   51MOL    H9019190   2.209   0.138   3.690 -1.8362  0.2899  2.2260
   51MOL    H9119191   2.251   7.776   3.553 -0.5413 -0.8346 -0.2667
   51MOL    H9219192   2.144   7.721   3.681 -2.5926 -0.0527 -0.1007
   51MOL    H9319193   2.085   7.772   3.519  0.7928  0.0419  0.1648
   51MOL    H9419194   2.001   0.147   3.463  1.4974 -0.6399 -1.5411
   51MOL    H9519195   2.171   0.185   3.448 -1.4429  3.2422 -1.6343
   51MOL    H9619196   2.080   0.292   3.533 -2.6911 -0.3504  0.4929
   51MOL    C9719197   1.657   0.151   3.825 -0.6269  0.5635  0.1595
   51MOL    C9819198   1.641   0.269   3.727 -0.3334 -0.3431 -0.3993
   51MOL    C9919199   1.666   0.399   3.802  0.2595  0.0219  0.2136
   51MOL   O10019200   1.688   0.401   3.920  0.2311 -0.1436  0.3575
   51MOL   N10119201   1.658   0.507   3.726  0.2630 -0.1698  0.2046
   51MOL   C10219202   1.674   0.646   3.772 -0.0933 -0.4154 -0.0437
   51MOL   C10319203   1.755   0.712   3.665  0.7853 -0.7617  0.1611
   51MOL   C10419204   1.537   0.711   3.790  0.7420  0.1509  0.0538
   51MOL   H10519205   1.592   0.161   3.911 -0.5320  0.4837  0.2405
   51MOL   H10619206   1.615   0.071   3.763 -1.7282  0.7674  0.6335
   51MOL   H10719207   1.724   0.263   3.656 -1.3898  0.5086 -1.7404
   51MOL   H10819208   1.655   0.485   3.627  0.4008 -0.6960  0.3114
   51MOL   H10919209   1.730   0.633   3.864  1.2821 -0.2881 -0.8406
   51MOL   H11019210   1.779   0.816   3.686  0.5282 -0.4752 -0.9257
   51MOL   H11119211   1.849   0.657   3.658  2.0752  1.1465  1.9844
   51MOL   H11219212   1.705   0.714   3.568  0.8892  0.6003  0.1201
   51MOL   H11319213   1.481   0.652   3.863  0.2702  0.7958  0.2104
   51MOL   H11419214   1.479   0.716   3.698 -0.3120  1.0392  0.7616
   51MOL   H11519215   1.557   0.807   3.837  0.6910 -0.6555  1.8011
   51MOL   C11619216   1.504   0.267   3.658 -0.4795  0.5477 -0.3142
   51MOL   C11719217   1.508   0.172   3.538 -0.3497 -0.8714  0.2940
   51MOL   C11819218   1.573   0.232   3.413  0.4317  0.2978 -0.1826
   51MOL   O11919219   1.523   0.326   3.358  0.4012 -0.1285 -0.5163
   51MOL   N12019220   1.691   0.186   3.381 -0.0383  0.1006 -0.4357
   51MOL   C12119221   1.781   0.229   3.269 -0.2975 -0.2695  0.3090
   51MOL   C12219222   1.724   0.183   3.130  0.4364  0.4049  0.4890
   51MOL   C12319223   1.822   0.378   3.276  0.1619 -0.2718 -0.5618
   51MOL   H12419224   1.460   0.366   3.646 -1.1542  0.2305 -0.5188
   51MOL   H12519225   1.437   0.234   3.738 -0.1509 -1.7692 -0.9521
   51MOL   H12619226   1.560   0.080   3.564  2.4193 -0.2213 -2.5875
   51MOL   H12719227   1.710   0.102   3.434  2.1689  0.8582  0.0675
   51MOL   H12819228   1.876   0.179   3.285  0.0203  0.2466  0.0477
   51MOL   H12919229   1.797   0.193   3.049  0.1470  0.2189  0.2051
   51MOL   H13019230   1.639   0.242   3.095  0.0805  0.0727  0.7980
   51MOL   H13119231   1.704   0.076   3.137  0.2870  0.5557  2.6755
   51MOL   H13219232   1.732   0.440   3.278 -0.0776 -0.6077 -0.7621
   51MOL   H13319233   1.896   0.391   3.354 -0.1832  0.3720 -0.3447
   51MOL   H13419234   1.865   0.422   3.186  2.3560 -1.4801 -0.1495
   51MOL   C13519235   1.365   0.130   3.506  2.0486 -0.1170 -0.0038
   51MOL   C13619236   1.302   0.005   3.570  0.0204  0.1104 -0.0392
   51MOL   C13719237   1.309   7.821   3.721 -0.6874  0.2690 -0.1349
   51MOL   O13819238   1.248   0.064   3.796 -0.2063  0.4578  0.3589
   51MOL   N13919239   1.385   7.718   3.765  0.2734 -0.4520 -0.0563
   51MOL   C14019240   1.421   7.683   3.906 -0.0762  0.1904 -0.5971
   51MOL   C14119241   1.476   7.542   3.910  0.1286 -0.6720  0.7719
   51MOL   C14219242   1.303   7.692   4.002 -0.2307  0.5023 -0.2280
   51MOL   H14319243   1.362   0.116   3.398  0.1086 -1.6828  0.2129
   51MOL   H14419244   1.293   0.212   3.513  1.0700 -1.0655  1.2255
   51MOL   H14519245   1.350   7.754   3.524  1.3362  0.8717 -0.1351
   51MOL   H14619246   1.449   7.682   3.696  0.2417  2.3391 -1.6063
   51MOL   H14719247   1.492   7.754   3.949 -0.6066  2.1201 -2.7766
   51MOL   H14819248   1.395   7.471   3.895  0.3570 -0.5782 -1.0134
   51MOL   H14919249   1.558   7.532   3.839  1.3716 -0.6904  2.1999
   51MOL   H15019250   1.520   7.516   4.006  1.3028 -1.1258  0.1237
   51MOL   H15119251   1.321   7.643   4.097 -1.0410  0.4136 -0.1126
   51MOL   H15219252   1.212   7.646   3.963  0.6184  0.9591 -2.8803
   51MOL   H15319253   1.274   7.793   4.033 -0.3817  0.3329  0.1779
   51MOL   C15419254   1.158   7.830   3.521  0.4986  0.1474 -0.4863
   51MOL   C15519255   1.056   0.102   3.568  0.4101 -0.1539 -0.3430
   51MOL   C15619256   0.936   0.043   3.654 -0.5747  0.0034  0.6674
   51MOL   O15719257   0.830   0.011   3.601  0.3825 -0.2217  0.2880
   51MOL   N15819258   0.972   0.036   3.785  0.0541  0.5549  0.6913
   51MOL   C15919259   0.876   0.002   3.886  0.3604  0.3954 -0.4354
   51MOL   C16019260   0.799   0.119   3.939  0.0880  0.5207 -0.0918
   51MOL   C16119261   0.943   7.765   4.002  0.1103  0.3286  0.4291
   51MOL   H16219262   1.113   7.739   3.561 -0.6833  1.1761  0.5977
   51MOL   H16319263   1.160   7.818   3.413  1.2488  2.3891 -0.7588
   51MOL   H16419264   1.114   0.176   3.623  0.2210 -1.3945  1.5545
   51MOL   H16519265   1.065   0.069   3.807 -0.4832  1.7753  1.2287
   51MOL   H16619266   0.801   7.774   3.840 -0.4136  0.3966  0.7836
   51MOL   H16719267   0.856   0.207   3.968 -1.4006 -0.0025  4.9136
   51MOL   H16819268   0.717   0.147   3.872  1.1890  3.7023 -0.1845
   51MOL   H16919269   0.741   0.098   4.029 -0.6401  2.5690 -0.0536
   51MOL   H17019270   0.883   7.752   4.092 -0.2055 -0.0469  0.1681
   51MOL   H17119271   1.028   7.827   4.031 -0.1175  0.4302  0.8754
   51MOL   H17219272   0.968   7.665   3.966 -0.7211 -0.4259  1.9099
   51MOL   C17319273   0.997   0.176   3.446 -0.1370  0.0763 -0.3715
   51MOL   C17419274   0.909   0.300   3.470 -0.7569  0.5507  0.0287
   51MOL   C17519275   0.995   0.401   3.548  0.2988 -0.0528 -0.1124
   51MOL   O17619276   1.071   0.478   3.494 -0.4964 -0.3428  0.5052
   51MOL   N17719277   0.966   0.410   3.680 -0.5926 -0.5419  0.1880
   51MOL   C17819278   1.016   0.518   3.765  0.0446  0.0429 -0.0283
   51MOL   C17919279   1.155   0.480   3.821 -0.7238  0.4870  0.0815
   51MOL   C18019280   0.919   0.523   3.882 -0.4857 -0.6141 -0.0030
   51MOL   H18119281   0.942   0.095   3.397  1.1492 -1.6452  0.9800
   51MOL   H18219282   1.080   0.204   3.382 -1.1531 -1.4810 -2.4488
   51MOL   H18319283   0.826   0.264   3.532 -0.8932  2.9587  1.2962
   51MOL   H18419284   0.922   0.329   3.721 -0.5691 -0.6491  0.0037
   51MOL   H18519285   1.018   0.616   3.719 -3.5428  1.1278  1.9101
   51MOL   H18619286   1.144   0.398   3.892  3.2014  0.0741  0.2954
   51MOL   H18719287   1.204   0.556   3.882 -2.6613  0.4505  1.7515
   51MOL   H18819288   1.227   0.451   3.745 -0.6621 -1.6093  0.9130
   51MOL   H18919289   0.933   0.619   3.930  0.8172  0.0263 -1.6149
   51MOL   H19019290   0.916   0.439   3.952 -0.3406 -1.2366 -0.7378
   51MOL   H19119291   0.820   0.539   3.839  0.0746  0.9356 -0.7641
   51MOL   C19219292   0.858   0.355   3.332 -0.1076  0.1713  0.2706
   51MOL   C19319293   0.748   0.457   3.342  0.0582 -0.1826 -0.5486
   51MOL   C19419294   0.618   0.393   3.396 -0.4820 -0.3427  0.4723
   51MOL   O19519295   0.574   0.300   3.329  0.1637 -0.0677 -0.6021
   51MOL   N19619296   0.574   0.438   3.510 -0.6473 -0.3276  0.4905
   51MOL   C19719297   0.487   0.370   3.606 -0.1072 -0.3487 -0.6222
   51MOL   C19819298   0.573   0.264   3.676 -0.3059  0.1631  0.1817
   51MOL   C19919299   0.431   0.469   3.715  0.0963  0.1838  0.2535
   51MOL   H20019300   0.820   0.273   3.271  0.9389  0.1005 -0.2959
   51MOL   H20119301   0.941   0.403   3.281 -1.1171 -0.1999 -1.7913
   51MOL   H20219302   0.775   0.545   3.401  0.4252  0.4929 -1.7093
   51MOL   H20319303   0.610   0.523   3.552 -1.0228 -1.0477  2.3392
   51MOL   H20419304   0.399   0.329   3.557 -0.3222 -1.7830  0.8877
   51MOL   H20519305   0.521   0.225   3.764 -0.2293 -0.8571 -0.2254
   51MOL   H20619306   0.667   0.302   3.716  0.8822 -2.3080 -0.1727
   51MOL   H20719307   0.596   0.177   3.615 -1.1941  0.0955 -0.0695
   51MOL   H20819308   0.369   0.420   3.790  1.6655 -2.7890 -0.3175
   51MOL   H20919309   0.367   0.550   3.679  0.8159  1.0566  0.9034
   51MOL   H21019310   0.499   0.523   3.780  0.5120 -0.0992  0.0522
   51MOL   C21119311   0.719   0.514   3.206 -0.3369 -0.2218 -1.1198
   51MOL   C21219312   0.814   0.629   3.161 -0.2168  0.0872 -0.9442
   51MOL   C21319313   0.796   0.671   3.014  0.2471  0.5385  0.1478
   51MOL   O21419314   0.686   0.675   2.958  0.2753 -0.0992 -0.1974
   51MOL   N21519315   0.910   0.702   2.944  0.5360  0.3283 -1.0208
   51MOL   C21619316   0.927   0.742   2.812 -0.3635  0.3407  0.4360
   51MOL   C21719317   0.887   0.628   2.715 -0.0508 -0.3695 -0.0691
   51MOL   C21819318   1.067   0.797   2.793  0.4267 -0.0880 -0.1491
   51MOL   H21919319   0.617   0.553   3.198 -0.4261 -0.1622  0.0865
   51MOL   H22019320   0.729   0.438   3.128  1.0142 -1.6189  0.3788
   51MOL   H22119321   0.914   0.585   3.169 -0.8389 -0.6540  5.1972
   51MOL   H22219322   0.993   0.680   2.997 -0.8125 -1.5682  0.3934
   51MOL   H22319323   0.856   0.820   2.784  0.0729 -0.2482 -2.5295
   51MOL   H22419324   0.928   0.532   2.746 -0.9988 -1.5098 -2.2512
   51MOL   H22519325   0.778   0.621   2.714 -0.1539  0.7321  1.4231
   51MOL   H22619326   0.915   0.636   2.610 -0.0544 -0.3687 -0.0701
   51MOL   H22719327   1.077   0.888   2.853  0.4151 -0.9117  1.1168
   51MOL   H22819328   1.077   0.809   2.685  0.2799 -2.1176 -0.3976
   51MOL   H22919329   1.145   0.737   2.840  0.0629  0.7764  1.6348
   51MOL   C23019330   0.811   0.751   3.259 -0.5269  0.4074  0.2489
   51MOL   C23119331   0.927   0.776   3.362 -0.3410 -0.4064  0.0106
   51MOL   C23219332   1.071   0.762   3.290 -0.1924  0.7880 -0.4775
   51MOL   O23319333   1.079   0.808   3.176  0.2740  0.8635  0.3315
   51MOL   N23419334   1.176   0.708   3.357 -0.2567  0.3730  0.4881
   51MOL   C23519335   1.314   0.695   3.309 -0.4223  0.2655  0.3611
   51MOL   C23619336   1.414   0.704   3.422  0.1453 -0.1718 -0.4445
   51MOL   C23719337   1.338   0.561   3.234 -0.3808  0.2251 -0.6526
   51MOL   H23819338   0.716   0.743   3.312 -1.0892 -2.3160 -1.0472
   51MOL   H23919339   0.804   0.847   3.208  1.8628 -0.3576 -1.6043
   51MOL   H24019340   0.925   0.695   3.436 -1.1931 -1.4502 -1.1326
   51MOL   H24119341   1.159   0.654   3.441 -2.1411  0.2753  0.0745
   51MOL   H24219342   1.334   0.772   3.235 -1.2777  1.2574  1.1628
   51MOL   H24319343   1.516   0.678   3.395 -0.1673 -0.5710 -1.2291
   51MOL   H24419344   1.427   0.805   3.461  1.1834 -0.7731  0.8222
   51MOL   H24519345   1.379   0.646   3.507  1.1671 -0.8170 -0.4540
   51MOL   H24619346   1.284   0.568   3.139 -0.7994 -1.3874 -0.5439
   51MOL   H24719347   1.309   0.473   3.291  0.1870  0.9757  0.8189
   51MOL   H24819348   1.445   0.541   3.225 -0.5370 -1.8482  1.5658
   51MOL   C24919349   0.915   0.914   3.437 -0.1879  0.5719  0.3984
   51MOL   C25019350   0.864   0.910   3.584  0.3807 -0.2239  0.0066
   51MOL   C25119351   0.734   0.829   3.595 -1.0771 -0.3202 -0.5280
   51MOL   O25219352   0.725   0.702   3.609 -1.0440  0.0222  0.0743
   51MOL   N25319353   0.619   0.895   3.588  0.1470  0.8132 -0.0698
   51MOL   C25419354   0.490   0.844   3.639  0.6912  0.4852 -0.4443
   51MOL   C25519355   0.487   0.848   3.792  0.0468 -0.0873  0.6607
   51MOL   C25619356   0.388   0.943   3.587 -0.0465  0.6240  0.0098
   51MOL   H25719357   0.868   0.983   3.367  1.4652  2.0322  0.6599
   51MOL   H25819358   1.011   0.966   3.443  1.0422 -1.4084 -1.5827
   51MOL   H25919359   0.934   0.852   3.644 -1.5642  0.0891  2.6433
   51MOL   H26019360   0.616   0.996   3.583  1.3496  0.9832  1.9882
   51MOL   H26119361   0.478   0.743   3.599 -0.6200  0.8473 -1.0137
   51MOL   H26219362   0.386   0.863   3.829 -1.1364 -2.4482 -1.4809
   51MOL   H26319363   0.524   0.752   3.827  1.8236 -1.1415 -3.7401
   51MOL   H26419364   0.541   0.935   3.828  1.6968 -0.3725 -1.0215
   51MOL   H26519365   0.380   0.942   3.479  1.5889 -0.3213 -0.1081
   51MOL   H26619366   0.292   0.924   3.636  0.6027  0.5943  1.2902
   51MOL   H26719367   0.422   1.044   3.608  0.2822  0.3243  0.9547
   51MOL   C26819368   0.856   1.047   3.644  0.2013 -0.6191 -0.1733
   51MOL   C26919369   0.987   1.122   3.684 -1.0663  0.9023  0.4399
   51MOL   C27019370   0.948   1.262   3.717  0.0812  0.6591 -0.2534
   51MOL   O27119371   0.862   1.294   3.805  0.0555  0.7491 -0.0953
   51MOL   N27219372   1.018   1.355   3.654 -0.4743 -0.4031 -0.0629
   51MOL   C27319373   1.002   1.496   3.695 -0.5590  0.2950 -0.1287
   51MOL   C27419374   1.123   1.574   3.652  0.3180 -0.4587  1.0018
   51MOL   C27519375   0.873   1.549   3.626 -0.0688 -0.3647  0.1941
   51MOL   H27619376   0.789   1.112   3.589 -1.1046 -0.6247  1.3751
   51MOL   H27719377   0.799   1.032   3.736  0.4564 -3.8454 -0.4847
   51MOL   H27819378   1.055   1.111   3.600 -1.1103  0.7696  0.4211
   51MOL   H27919379   1.086   1.320   3.589  0.0512  2.4917 -1.1249
   51MOL   H28019380   1.003   1.506   3.804 -1.5486  1.6335 -0.2332
   51MOL   H28119381   1.129   1.677   3.687 -1.7268 -0.0802  0.3088
   51MOL   H28219382   1.209   1.519   3.688  1.1831  0.7071  0.7636
   51MOL   H28319383   1.121   1.573   3.543  2.3049 -3.9839  0.9528
   51MOL   H28419384   0.782   1.491   3.644 -0.2222  0.0498  0.7991
   51MOL   H28519385   0.858   1.648   3.668 -2.2951  0.2491 -1.9353
   51MOL   H28619386   0.871   1.564   3.518  1.1080  3.1472  0.5866
   51MOL   C28719387   1.054   1.052   3.809  0.2477 -0.3819  0.2250
   51MOL   C28819388   1.194   1.093   3.839  0.0962 -0.4716  0.6357
   51MOL   C28919389   1.298   1.041   3.739  0.5074  0.1873 -0.7100
   51MOL   O29019390   1.288   0.929   3.692 -0.2943  0.6000 -0.2492
   51MOL   N29119391   1.385   1.133   3.706  0.7445  0.3084 -0.6305
   51MOL   C29219392   1.471   1.112   3.588 -1.0861 -0.8817  0.6560
   51MOL   C29319393   1.517   1.250   3.549  1.0028 -0.5392  0.4445
   51MOL   C29419394   1.592   1.019   3.622  0.9022  0.6500 -0.1343
   51MOL   H29519395   0.989   1.083   3.891 -1.2078 -0.3132 -0.9208
   51MOL   H29619396   1.036   0.944   3.810  1.1176 -0.5139  2.2982
   51MOL   H29719397   1.192   1.202   3.827  0.4468 -0.7244 -1.9417
   51MOL   H29819398   1.371   1.229   3.733  1.4155 -0.0694  1.1894
   51MOL   H29919399   1.422   1.077   3.497  3.3832 -1.4828 -1.6701
   51MOL   H30019400   1.559   1.301   3.636 -2.9427  1.3475  1.4023
   51MOL   H30119401   1.584   1.235   3.465 -0.7712 -0.7770 -0.9708
   51MOL   H30219402   1.427   1.303   3.516  1.4613  1.6397  2.5273
   51MOL   H30319403   1.632   1.053   3.717 -2.2934  3.8655  0.1881
   51MOL   H30419404   1.549   0.919   3.619  2.7820 -0.1556 -0.4523
   51MOL   H30519405   1.668   1.005   3.546  0.6821 -2.2800  0.1367
   51MOL   C30619406   1.233   1.054   3.986 -0.4349  0.1320  0.7429
   51MOL   C30719407   1.341   1.144   4.047 -0.1754  0.2736 -0.4710
   51MOL   C30819408   1.407   1.066   4.156  0.0311 -0.6009  0.6742
   51MOL   O30919409   1.361   1.051   4.267  0.2479 -0.1130 -0.0584
   51MOL   N31019410   1.512   0.995   4.117 -0.1718 -0.3780  0.3701
   51MOL   C31119411   1.604   0.914   4.202 -0.2845 -0.5637 -0.1241
   51MOL   C31219412   1.668   0.808   4.110 -0.0667  0.2858 -0.0106
   51MOL   C31319413   1.716   1.000   4.261 -0.1216 -0.2070 -0.4046
   51MOL   H31419414   1.148   1.042   4.052 -0.2578 -1.4308  0.7078
   51MOL   H31519415   1.269   0.951   3.980 -0.1071  0.2703  0.2601
   51MOL   H31619416   1.421   1.161   3.975 -0.8799  1.6896 -0.9492
   51MOL   H31719417   1.519   0.989   4.017 -1.3473  0.8714  0.1927
   51MOL   H31819418   1.538   0.874   4.279  0.6082 -0.5824  0.6340
   51MOL   H31919419   1.596   0.735   4.072 -0.4359  0.1432  0.9411
   51MOL   H32019420   1.741   0.747   4.162  1.0474 -0.0574 -1.9377
   51MOL   H32119421   1.717   0.867   4.033 -0.6152 -0.2638 -0.7777
   51MOL   H32219422   1.757   1.076   4.194  1.3644  0.1870  0.9335
   51MOL   H32319423   1.793   0.931   4.296 -1.3026 -0.9025  0.8711
   51MOL   H32419424   1.686   1.056   4.349  1.2612 -0.4672  0.2351
   51MOL   C32519425   1.281   1.283   4.089  0.4727 -0.4434  0.1323
   51MOL   C32619426   1.387   1.402   4.099 -0.1337 -0.2751 -0.6553
   51MOL   C32719427   1.480   1.399   3.983 -0.2400  0.0117  0.1030
   51MOL   O32819428   1.437   1.400   3.866  0.0306  0.0862 -0.0217
   51MOL   N32919429   1.610   1.388   4.005  0.1947  0.4998  0.5011
   51MOL   C33019430   1.719   1.367   3.912  0.5005 -0.2217 -0.3687
   51MOL   C33119431   1.771   1.221   3.924 -0.1765 -0.7470  0.2178
   51MOL   C33219432   1.830   1.479   3.908  0.0745  0.2689  0.1805
   51MOL   H33319433   1.241   1.267   4.189 -1.7381  1.4395 -0.4122
   51MOL   H33419434   1.200   1.315   4.024 -0.1924 -1.3355  0.5073
   51MOL   H33519435   1.432   1.372   4.194  1.5979 -0.1326 -1.4143
   51MOL   H33619436   1.643   1.424   4.093  2.6846  0.1535 -0.2653
   51MOL   H33719437   1.667   1.376   3.816  2.1896  2.5873 -1.0816
   51MOL   H33819438   1.815   1.198   3.827 -0.3764  0.1139 -0.0879
   51MOL   H33919439   1.858   1.222   3.989  0.2583  0.4617 -0.3595
   51MOL   H34019440   1.698   1.146   3.954  1.5220 -2.5031  0.0117
   51MOL   H34119441   1.893   1.468   3.819  0.1122 -3.5828  0.5667
   51MOL   H34219442   1.894   1.474   3.996 -1.7855 -0.3662  1.5310
   51MOL   H34319443   1.794   1.581   3.914  1.3912  0.9266 -2.3009
   51MOL   C34419444   1.313   1.541   4.122  0.4437  0.3951  0.4932
   51MOL   C34519445   1.396   1.673   4.149  0.7716  0.3268  1.0007
   51MOL   C34619446   1.510   1.637   4.245 -0.1783  0.7483 -0.4891
   51MOL   O34719447   1.610   1.569   4.215 -0.1439 -0.1457  0.2879
   51MOL   N34819448   1.490   1.690   4.366 -0.6657  0.0665 -0.5178
   51MOL   C34919449   1.581   1.674   4.481  0.0944 -0.8795 -0.6539
   51MOL   C35019450   1.687   1.776   4.459 -0.4391 -0.5153 -0.4362
   51MOL   C35119451   1.501   1.699   4.608 -0.4687 -0.0005  0.3352
   51MOL   H35219452   1.262   1.526   4.217 -0.0758  0.0945  0.1664
   51MOL   H35319453   1.235   1.560   4.048 -3.3805 -2.2488  3.6162
   51MOL   H35419454   1.331   1.747   4.195  0.1469 -1.0037  2.3003
   51MOL   H35519455   1.417   1.759   4.379 -1.7401 -1.0705 -0.4016
   51MOL   H35619456   1.631   1.577   4.477 -0.1529 -1.0976  0.9929
   51MOL   H35719457   1.644   1.873   4.481 -1.2973 -1.2045  0.9731
   51MOL   H35819458   1.757   1.768   4.542 -0.2104 -1.0648 -0.6744
   51MOL   H35919459   1.734   1.780   4.361  0.2935 -1.6101 -0.1421
   51MOL   H36019460   1.574   1.697   4.689  0.5309  0.4180 -0.5326
   51MOL   H36119461   1.448   1.793   4.599  1.2172  0.7686 -2.2758
   51MOL   H36219462   1.424   1.622   4.616 -2.4267  1.6967 -1.6651
   51MOL   C36319463   1.453   1.751   4.019 -0.0814 -0.1255  0.2149
   51MOL   C36419464   1.509   1.896   4.053 -0.3083  0.0238 -0.0114
   51MOL   C36519465   1.402   2.000   4.059  0.0101 -0.6612  0.5928
   51MOL   O36619466   1.282   1.964   4.060  0.0591  0.0981 -0.5047
   51MOL   N36719467   1.439   2.130   4.068  0.2294 -0.4831  0.9140
   51MOL   C36819468   1.354   2.246   4.095  0.6146  0.3889  0.1012
   51MOL   C36919469   1.375   2.303   4.237 -0.5213  0.8163  0.1474
   51MOL   C37019470   1.363   2.355   3.992 -0.7816  0.8048  0.7429
   51MOL   H37119471   1.373   1.759   3.945 -1.1340  0.3620  1.3863
   51MOL   H37219472   1.527   1.697   3.960 -1.0352 -0.8096 -0.3763
   51MOL   H37319473   1.584   1.923   3.980  0.4902 -1.8897  0.0728
   51MOL   H37419474   1.538   2.148   4.081 -0.2695  1.8344  1.6961
   51MOL   H37519475   1.250   2.213   4.088  0.0491  1.0631  4.0493
   51MOL   H37619476   1.385   2.222   4.309 -0.6349 -1.0928 -1.9473
   51MOL   H37719477   1.462   2.367   4.248 -0.0227 -0.2039  2.3313
   51MOL   H37819478   1.289   2.364   4.266 -0.1993  0.7997  1.1649
   51MOL   H37919479   1.462   2.401   3.995 -1.0248  1.2732  1.9971
   51MOL   H38019480   1.335   2.313   3.896  2.2176 -0.8975  0.5368
   51MOL   H38119481   1.294   2.438   4.006 -1.2774  0.3202  1.2219
   51MOL   H38219482   1.565   1.896   4.146  1.0579 -1.2681 -0.8251
   52MOL     C119483   6.841   5.959   3.371 -0.4078 -0.0697 -0.2709
   52MOL     C219484   6.990   5.915   3.367  0.5454  0.5124  0.5787
   52MOL     C319485   7.026   5.837   3.240  0.1301  0.8407 -0.8127
   52MOL     O419486   6.989   5.877   3.132 -0.0434  0.6539 -0.5671
   52MOL     N519487   7.099   5.725   3.255 -0.4482 -0.3033 -0.0343
   52MOL     C619488   7.160   5.648   3.149  0.5304 -0.6873 -0.3784
   52MOL     C719489   7.310   5.683   3.153 -0.1586 -0.4564 -0.2740
   52MOL     C819490   7.140   5.497   3.164 -0.1033 -0.3081 -0.6613
   52MOL     H919491   6.817   5.998   3.469 -1.7407  0.4633 -0.8018
   52MOL    H1019492   6.769   5.877   3.366  0.7306 -1.0794 -0.4625
   52MOL    H1119493   7.008   5.843   3.447 -0.4080 -1.3016 -0.7891
   52MOL    H1219494   7.120   5.690   3.348  2.7070  2.7790  0.4825
   52MOL    H1319495   7.118   5.681   3.054 -1.9321 -2.4699  0.0574
   52MOL    H1419496   7.327   5.790   3.145  1.2621 -0.3525  3.3994
   52MOL    H1519497   7.371   5.640   3.074  1.4934  1.9031 -0.3171
   52MOL    H1619498   7.355   5.650   3.246  0.5709  0.1723 -0.3981
   52MOL    H1719499   7.189   5.436   3.089 -0.0326 -2.6596  1.2235
   52MOL    H1819500   7.182   5.463   3.259 -0.6355 -2.8079 -1.2781
   52MOL    H1919501   7.032   5.483   3.162 -0.3980  1.9163 -1.4652
   52MOL    H2019502   6.809   6.026   3.291 -0.3527 -1.3331 -1.3683
   52MOL    C2119503   7.077   6.041   3.393 -0.1101  0.2132  0.5334
   52MOL    C2219504   7.086   6.137   3.280  0.5495  0.0401 -0.3005
   52MOL    C2319505   7.206   6.112   3.188  0.1082 -0.1721  0.6031
   52MOL    O2419506   7.319   6.124   3.234 -0.0184 -0.3025  1.1555
   52MOL    N2519507   7.175   6.076   3.062  0.0162 -0.6599 -0.0018
   52MOL    C2619508   7.263   6.038   2.951 -0.9565 -0.1924  0.2005
   52MOL    C2719509   7.331   6.155   2.885 -0.0626  0.7423 -0.7996
   52MOL    C2819510   7.181   5.948   2.855 -1.0153 -0.2954 -0.0655
   52MOL    H2919511   7.174   5.997   3.417  1.2829  0.4352 -4.2207
   52MOL    H3019512   7.041   6.101   3.476  0.4292 -0.3617  1.1903
   52MOL    H3119513   6.993   6.132   3.224  0.5776 -1.5942 -0.2099
   52MOL    H3219514   7.081   6.041   3.054 -0.7902  1.2605  0.8028
   52MOL    H3319515   7.345   5.974   2.984 -2.1752 -2.3049 -0.7782
   52MOL    H3419516   7.402   6.115   2.813  0.2460 -0.8343  0.3610
   52MOL    H3519517   7.391   6.212   2.957  1.4041  0.1323 -1.5112
   52MOL    H3619518   7.269   6.220   2.823 -0.0293  0.9000 -0.6690
   52MOL    H3719519   7.151   5.854   2.899  0.0465 -0.0800  1.1377
   52MOL    H3819520   7.087   5.999   2.834 -0.6807  0.5164  0.3603
   52MOL    H3919521   7.230   5.923   2.761  1.9410  0.9098  1.0845
   52MOL    C4019522   7.087   6.288   3.330  0.5791  0.3074  0.0405
   52MOL    C4119523   6.942   6.335   3.365 -0.2113 -0.3819  0.4510
   52MOL    C4219524   6.839   6.341   3.248 -0.7084 -0.3739 -0.1132
   52MOL    O4319525   6.873   6.383   3.137  0.3051 -0.0703  0.2329
   52MOL    N4419526   6.719   6.291   3.277 -0.4428 -0.1340  0.3136
   52MOL    C4519527   6.616   6.268   3.174 -0.1910 -0.8576  0.3117
   52MOL    C4619528   6.589   6.124   3.132 -0.9576  0.3575 -0.2578
   52MOL    C4719529   6.488   6.338   3.221 -0.2353  0.0479 -0.3975
   52MOL    H4819530   7.128   6.352   3.252  2.3541 -2.3556 -1.2417
   52MOL    H4919531   7.157   6.286   3.414  0.6897  0.1470 -0.0561
   52MOL    H5019532   6.895   6.268   3.437 -0.1058 -1.0453 -0.0922
   52MOL    H5119533   6.689   6.269   3.371 -0.9976  0.2260  0.2260
   52MOL    H5219534   6.655   6.311   3.081 -1.4788 -0.7274 -0.1939
   52MOL    H5319535   6.548   6.054   3.206  0.6215  0.6801  0.9557
   52MOL    H5419536   6.680   6.072   3.102 -0.9734  1.8547 -3.0003
   52MOL    H5519537   6.528   6.121   3.042 -0.7585  0.6212 -0.4015
   52MOL    H5619538   6.421   6.344   3.135  0.6122 -0.6471 -1.1263
   52MOL    H5719539   6.500   6.437   3.263  0.2729  0.4495 -1.4682
   52MOL    H5819540   6.424   6.272   3.280 -0.1077 -0.8724 -1.2694
   52MOL    C5919541   6.949   6.474   3.434  0.4737 -0.2429  0.0852
   52MOL    C6019542   7.041   6.592   3.380  0.0810 -0.0029  0.2266
   52MOL    C6119543   7.180   6.567   3.443  1.3735 -0.7599 -0.0659
   52MOL    O6219544   7.191   6.571   3.566  0.4622 -0.4093  0.4929
   52MOL    N6319545   7.283   6.562   3.361  0.0584 -0.0032 -0.0355
   52MOL    C6419546   7.423   6.546   3.392 -0.6609 -0.5465  0.6984
   52MOL    C6519547   7.489   6.441   3.305 -0.3627 -0.3128 -0.0742
   52MOL    C6619548   7.503   6.683   3.385  0.6579  0.7447 -0.0287
   52MOL    H6719549   6.850   6.518   3.442  0.6864  0.3252 -0.3697
   52MOL    H6819550   6.987   6.454   3.534 -0.1449  1.3860  0.6515
   52MOL    H6919551   7.049   6.572   3.273  5.3127  0.1776  0.4865
   52MOL    H7019552   7.262   6.593   3.267 -1.3192 -0.3706  0.1427
   52MOL    H7119553   7.440   6.511   3.494  0.8855  0.9041  0.9547
   52MOL    H7219554   7.428   6.352   3.290 -1.1462  0.0547  0.9131
   52MOL    H7319555   7.511   6.483   3.207 -2.0400  1.6466  0.3844
   52MOL    H7419556   7.589   6.410   3.335  0.2217  1.2160 -0.3908
   52MOL    H7519557   7.607   6.661   3.409  0.1698 -1.4789  0.1765
   52MOL    H7619558   7.516   6.727   3.286 -1.5698 -0.0657 -0.7220
   52MOL    H7719559   7.461   6.759   3.452  0.8154  1.0131 -0.2336
   52MOL    C7819560   6.987   6.739   3.415 -0.4664  0.0703  0.4014
   52MOL    C7919561   6.930   6.814   3.289  0.0090 -0.3061 -0.3311
   52MOL    C8019562   7.044   6.868   3.201 -0.8078 -0.0813  0.1039
   52MOL    O8119563   7.142   6.792   3.186 -0.0401 -0.1114 -0.3351
   52MOL    N8219564   7.027   6.983   3.130 -0.4603  0.0466  0.3398
   52MOL    C8319565   7.118   7.023   3.020 -0.0470  0.0262 -0.0001
   52MOL    C8419566   7.050   7.011   2.883 -0.3983 -0.8896 -0.5250
   52MOL    C8519567   7.167   7.166   3.051 -0.0764 -0.3073  0.0885
   52MOL    H8619568   7.069   6.796   3.458 -1.5763  3.0460 -1.2310
   52MOL    H8719569   6.915   6.734   3.497  1.4451  0.0308  2.0904
   52MOL    H8819570   6.883   6.899   3.337  1.4436  0.9318 -1.0576
   52MOL    H8919571   6.936   7.027   3.127 -0.6994 -0.2677  2.3374
   52MOL    H9019572   7.209   6.966   3.001  1.0294  0.6116  3.1147
   52MOL    H9119573   6.970   7.084   2.878 -1.3865 -1.9481 -0.4846
   52MOL    H9219574   7.125   7.027   2.806  3.9841  2.9030  4.1669
   52MOL    H9319575   7.012   6.910   2.866  0.7457 -1.5502  0.7744
   52MOL    H9419576   7.252   7.171   3.118 -0.0974 -0.4789  0.1271
   52MOL    H9519577   7.078   7.215   3.092 -0.9153 -2.7467  1.2681
   52MOL    H9619578   7.188   7.226   2.962 -1.0921 -2.3360 -1.5586
   52MOL    C9719579   6.813   6.743   3.220  0.1518 -0.0567  0.2257
   52MOL    C9819580   6.746   6.820   3.099 -0.9596 -0.4006 -0.1768
   52MOL    C9919581   6.690   6.957   3.138  0.2457 -0.1819  0.0455
   52MOL   O10019582   6.766   7.051   3.168  0.0635 -0.3694  0.2135
   52MOL   N10119583   6.552   6.964   3.157  0.3281 -0.2251  0.3544
   52MOL   C10219584   6.481   7.076   3.230  0.4427  0.7707  0.3193
   52MOL   C10319585   6.334   7.049   3.207  0.5554  0.6085 -0.5384
   52MOL   C10419586   6.516   7.081   3.381 -0.5695 -0.3857  0.3546
   52MOL   H10519587   6.732   6.731   3.292 -0.9336 -2.1417 -1.3085
   52MOL   H10619588   6.841   6.643   3.188 -0.8351  0.3994 -2.1494
   52MOL   H10719589   6.828   6.846   3.032  0.3814 -4.0965 -0.0985
   52MOL   H10819590   6.497   6.882   3.137 -0.9605  0.9948 -1.2494
   52MOL   H10919591   6.502   7.162   3.168 -1.8572 -1.1274 -3.2255
   52MOL   H11019592   6.309   7.057   3.102 -1.6428 -2.3938 -0.3165
   52MOL   H11119593   6.296   6.954   3.247  0.4827 -0.2025 -2.4980
   52MOL   H11219594   6.265   7.123   3.246 -0.6540 -0.3729 -0.7992
   52MOL   H11319595   6.546   6.985   3.424 -1.7761 -0.8546  0.1999
   52MOL   H11419596   6.433   7.134   3.429 -1.5431 -0.7292 -0.9159
   52MOL   H11519597   6.605   7.142   3.393 -0.6334 -0.6575  2.3912
   52MOL   C11619598   6.641   6.743   3.015  0.5166  0.0849 -0.6102
   52MOL   C11719599   6.700   6.610   2.958  0.6658 -0.0789  0.4105
   52MOL   C11819600   6.833   6.619   2.877 -0.8510 -0.2868 -0.2519
   52MOL   O11919601   6.849   6.687   2.772 -0.0723 -0.2167  0.3334
   52MOL   N12019602   6.939   6.544   2.921  0.2659 -0.6117  0.0881
   52MOL   C12119603   7.074   6.554   2.873 -0.3744  0.5812 -0.1697
   52MOL   C12219604   7.172   6.515   2.985 -0.4645 -0.3858 -0.5989
   52MOL   C12319605   7.086   6.468   2.752  0.5847 -0.1447  0.4097
   52MOL   H12419606   6.615   6.818   2.939  0.3619 -1.3662 -2.0283
   52MOL   H12519607   6.552   6.727   3.076  0.2969 -0.0982 -0.9792
   52MOL   H12619608   6.712   6.539   3.040 -4.0307 -0.9811  0.4497
   52MOL   H12719609   6.925   6.478   2.997 -0.4207 -0.2676  0.2684
   52MOL   H12819610   7.106   6.655   2.848  0.3785  0.8143  1.6260
   52MOL   H12919611   7.145   6.552   3.084  0.9306  1.3476 -0.8484
   52MOL   H13019612   7.263   6.572   2.967 -0.0839  0.0550  2.4204
   52MOL   H13119613   7.184   6.406   2.981  0.2157 -0.2727 -1.7387
   52MOL   H13219614   7.031   6.497   2.663  0.4225  2.5563  1.3579
   52MOL   H13319615   7.190   6.471   2.719  0.3560  0.8017 -0.2384
   52MOL   H13419616   7.061   6.368   2.786 -1.3791  0.3675  0.4917
   52MOL   C13519617   6.589   6.548   2.868 -0.1532 -0.3595 -1.0796
   52MOL   C13619618   6.539   6.635   2.747  0.5286 -0.5453  0.3634
   52MOL   C13719619   6.550   6.569   2.609 -0.3568  0.9100  0.8616
   52MOL   O13819620   6.448   6.520   2.550  0.1863  0.3009  0.6324
   52MOL   N13919621   6.668   6.561   2.551 -0.2822 -0.2764 -0.0861
   52MOL   C14019622   6.690   6.469   2.445 -0.0432 -0.3203 -0.3781
   52MOL   C14119623   6.831   6.418   2.457  0.3047 -0.2580  0.4491
   52MOL   C14219624   6.679   6.557   2.315 -0.1508  0.4119  0.0845
   52MOL   H14319625   6.503   6.523   2.930  1.1054 -0.1004  0.8138
   52MOL   H14419626   6.639   6.461   2.825  0.5165 -0.2835 -0.4801
   52MOL   H14519627   6.595   6.729   2.745  2.2479 -1.5956 -1.9425
   52MOL   H14619628   6.749   6.606   2.591 -1.0950  1.5596 -0.4512
   52MOL   H14719629   6.610   6.395   2.437  0.2336 -0.5585 -1.0084
   52MOL   H14819630   6.852   6.341   2.383 -0.5083 -0.1866  0.1375
   52MOL   H14919631   6.904   6.497   2.442 -0.3353  0.2532  0.0364
   52MOL   H15019632   6.853   6.368   2.551 -4.1376 -2.8042  0.2934
   52MOL   H15119633   6.582   6.599   2.288  0.7374  3.2852  1.2198
   52MOL   H15219634   6.699   6.497   2.226 -0.0617 -2.1897  1.7936
   52MOL   H15319635   6.750   6.639   2.324  2.0941 -1.0246 -3.4944
   52MOL   C15419636   6.389   6.672   2.781 -0.6280 -0.2623  0.0781
   52MOL   C15519637   6.331   6.791   2.698  0.4851  0.0457 -0.1193
   52MOL   C15619638   6.377   6.921   2.766 -0.2929 -0.0107 -0.3725
   52MOL   O15719639   6.318   6.969   2.863 -0.1598 -0.5045 -0.2369
   52MOL   N15819640   6.479   6.983   2.702  0.5478  1.2022 -0.2240
   52MOL   C15919641   6.548   7.111   2.745  0.0320  0.3510  0.0476
   52MOL   C16019642   6.483   7.231   2.668  0.1656 -0.7189  0.3412
   52MOL   C16119643   6.696   7.098   2.717 -0.2002  0.9587 -0.6558
   52MOL   H16219644   6.376   6.695   2.887 -0.7123 -0.1342  0.0389
   52MOL   H16319645   6.332   6.580   2.775 -1.4591  0.1241  1.7555
   52MOL   H16419646   6.368   6.790   2.596  2.2117  0.9688  0.4782
   52MOL   H16519647   6.522   6.920   2.635  0.0345  2.4596 -1.7772
   52MOL   H16619648   6.520   7.134   2.848  1.5539 -0.5824  0.7014
   52MOL   H16719649   6.510   7.222   2.563  0.6578 -2.1166  0.5785
   52MOL   H16819650   6.375   7.240   2.674  0.1564 -0.5444 -0.0586
   52MOL   H16919651   6.536   7.317   2.707 -1.1990 -0.0584  0.7739
   52MOL   H17019652   6.722   7.063   2.617  2.4892 -0.2570  0.4186
   52MOL   H17119653   6.746   7.033   2.788 -0.4740  1.0802 -0.3526
   52MOL   H17219654   6.741   7.195   2.734 -3.1933  2.5517 -1.3803
   52MOL   C17319655   6.179   6.773   2.692  0.1696  0.3151 -0.2494
   52MOL   C17419656   6.089   6.897   2.651  0.0229 -0.1950 -0.6580
   52MOL   C17519657   6.126   6.952   2.510 -0.6784 -0.0584 -0.0856
   52MOL   O17619658   6.143   7.073   2.494  0.1273 -0.0856 -0.5894
   52MOL   N17719659   6.117   6.862   2.415  0.3559  0.2054 -0.3010
   52MOL   C17819660   6.120   6.878   2.270  0.6994 -0.2025 -0.4246
   52MOL   C17919661   5.983   6.937   2.229  0.0056 -0.1740  0.2897
   52MOL   C18019662   6.158   6.744   2.195 -0.0962  0.4304 -0.7061
   52MOL   H18119663   6.153   6.751   2.795  1.4153  0.0748  0.0196
   52MOL   H18219664   6.140   6.689   2.634  3.3464  0.1347 -2.2204
   52MOL   H18319665   6.105   6.983   2.715 -1.4858  1.2314 -2.1505
   52MOL   H18419666   6.104   6.766   2.445 -0.2589  1.0156  2.1347
   52MOL   H18519667   6.189   6.962   2.262 -2.3779  2.3001 -1.7609
   52MOL   H18619668   5.907   6.859   2.236 -0.3554  0.0938 -0.4807
   52MOL   H18719669   5.994   6.967   2.124 -3.5395 -1.1432 -0.4134
   52MOL   H18819670   5.951   7.021   2.289  1.9282  0.5668  0.3118
   52MOL   H18919671   6.241   6.694   2.245 -1.0522 -0.5216 -0.0375
   52MOL   H19019672   6.172   6.746   2.087 -0.3918 -3.0032 -0.8511
   52MOL   H19119673   6.072   6.678   2.203  1.3346 -1.2944  0.8356
   52MOL   C19219674   5.945   6.860   2.657  0.1680  0.1995  0.1179
   52MOL   C19319675   5.833   6.961   2.621 -0.9181 -0.8271 -0.9890
   52MOL   C19419676   5.857   7.094   2.695 -0.4001 -0.1523 -0.0730
   52MOL   O19519677   5.802   7.115   2.807  0.1138  0.2118  0.2093
   52MOL   N19619678   5.930   7.189   2.632  0.1198 -0.0179 -0.0424
   52MOL   C19719679   5.938   7.331   2.678 -0.6515  0.2572 -0.5531
   52MOL   C19819680   6.034   7.340   2.798 -0.0976  0.1722 -0.2294
   52MOL   C19919681   5.988   7.424   2.568  0.2677  0.0708  0.0473
   52MOL   H20019682   5.931   6.819   2.757  1.1217  1.1997  0.6757
   52MOL   H20119683   5.924   6.786   2.580 -0.2493  1.0626 -0.6091
   52MOL   H20219684   5.843   6.996   2.518  1.6015  0.6433 -0.3079
   52MOL   H20319685   5.973   7.154   2.548 -1.5681  2.0759 -1.8705
   52MOL   H20419686   5.842   7.369   2.714 -0.1171  0.6140  0.5486
   52MOL   H20519687   6.023   7.445   2.827 -0.4539  0.0371  0.1238
   52MOL   H20619688   6.137   7.314   2.771  0.0108 -0.3967  0.6791
   52MOL   H20719689   6.006   7.279   2.884  0.9948 -0.8749 -0.6069
   52MOL   H20819690   6.092   7.397   2.548  0.2241 -1.1062  1.3431
   52MOL   H20919691   5.987   7.532   2.584 -0.2885 -0.0051  0.5111
   52MOL   H21019692   5.941   7.391   2.475 -0.0185  1.6294 -0.3696
   52MOL   C21119693   5.694   6.891   2.632 -0.5099 -0.0519 -0.4907
   52MOL   C21219694   5.641   6.847   2.770  0.6608 -0.3391 -0.4285
   52MOL   C21319695   5.522   6.936   2.810 -0.6510  0.3581  0.0092
   52MOL   O21419696   5.415   6.926   2.750  0.1448  0.3061  0.5062
   52MOL   N21519697   5.547   7.025   2.905 -0.1338 -0.0814 -0.2170
   52MOL   C21619698   5.451   7.129   2.958 -0.2718 -0.5168 -0.0599
   52MOL   C21719699   5.417   7.236   2.851  0.5290  0.3046  1.0413
   52MOL   C21819700   5.504   7.183   3.092  0.3084 -0.1844  0.0851
   52MOL   H21919701   5.688   6.804   2.567  1.5045 -1.2259  0.8100
   52MOL   H22019702   5.619   6.960   2.595 -1.1435  0.1473  1.1481
   52MOL   H22119703   5.719   6.852   2.846  0.7603 -0.5125 -0.5185
   52MOL   H22219704   5.642   7.028   2.940 -0.0564 -2.1191 -0.1632
   52MOL   H22319705   5.362   7.079   2.996 -0.3253  0.1208  0.6657
   52MOL   H22419706   5.356   7.185   2.776 -1.1463 -1.0828  3.2491
   52MOL   H22519707   5.348   7.303   2.903  0.5147  1.1142 -0.0072
   52MOL   H22619708   5.508   7.287   2.821  1.3724 -1.3162  0.7468
   52MOL   H22719709   5.452   7.270   3.132  0.1471  0.2152 -0.9824
   52MOL   H22819710   5.608   7.214   3.078  0.1716  1.3161  2.2102
   52MOL   H22919711   5.511   7.098   3.160  1.0233  0.2770  0.6008
   52MOL   C23019712   5.605   6.694   2.778  0.0386 -0.1076 -0.0690
   52MOL   C23119713   5.729   6.587   2.750 -0.5468  0.0115  0.2093
   52MOL   C23219714   5.813   6.565   2.876  0.3718  0.6467 -0.1945
   52MOL   O23319715   5.751   6.537   2.988 -0.1919 -0.4845 -0.1398
   52MOL   N23419716   5.947   6.573   2.866  0.0474 -0.2837  0.1415
   52MOL   C23519717   6.034   6.511   2.971  0.0794  0.2887 -0.0332
   52MOL   C23619718   6.107   6.390   2.910 -0.3363  0.0020  0.6056
   52MOL   C23719719   6.137   6.595   3.042 -0.1421  0.1694 -0.1419
   52MOL   H23819720   5.534   6.682   2.696  2.8445 -1.8809 -2.3233
   52MOL   H23919721   5.546   6.664   2.864  0.2717 -0.9145 -0.1854
   52MOL   H24019722   5.781   6.621   2.661 -3.0102  1.1992 -0.8244
   52MOL   H24119723   5.977   6.590   2.771  0.7649 -1.3179  0.1854
   52MOL   H24219724   5.977   6.456   3.047  3.5776  0.7532  3.0740
   52MOL   H24319725   6.156   6.419   2.817  2.5747 -0.1939  2.0488
   52MOL   H24419726   6.175   6.338   2.977  0.5245  1.9901  1.3284
   52MOL   H24519727   6.038   6.312   2.878  0.9689 -0.9944  0.2047
   52MOL   H24619728   6.215   6.608   2.967  0.1219 -0.8104 -0.0467
   52MOL   H24719729   6.186   6.547   3.126 -2.5159 -0.1915  1.0785
   52MOL   H24819730   6.098   6.690   3.077  1.1036  1.4684 -2.1647
   52MOL   C24919731   5.656   6.457   2.717  0.0265 -0.1892  0.5315
   52MOL   C25019732   5.749   6.337   2.691  0.5425 -0.0146 -0.3898
   52MOL   C25119733   5.843   6.357   2.569  0.4665 -0.2238 -0.4141
   52MOL   O25219734   5.816   6.433   2.478  0.1498 -0.3847  0.4574
   52MOL   N25319735   5.960   6.295   2.575  0.2179  0.2106 -0.3114
   52MOL   C25419736   6.066   6.310   2.480 -0.2607 -0.3312  0.0838
   52MOL   C25519737   6.032   6.258   2.340  0.2827  0.5663  0.3222
   52MOL   C25619738   6.123   6.452   2.483  0.4605 -1.0644 -0.4952
   52MOL   H25719739   5.599   6.465   2.624  0.5226 -1.0495  0.1485
   52MOL   H25819740   5.583   6.437   2.795  1.8418 -0.3054  2.2416
   52MOL   H25919741   5.813   6.324   2.779  2.1581  0.3877 -1.4847
   52MOL   H26019742   5.973   6.244   2.661  1.3434 -0.4549 -0.8628
   52MOL   H26119743   6.144   6.244   2.519 -0.0757  0.6436  1.3603
   52MOL   H26219744   5.973   6.166   2.345  2.0853 -0.6323 -0.2167
   52MOL   H26319745   5.960   6.328   2.298 -1.2999 -1.3534 -0.2759
   52MOL   H26419746   6.106   6.238   2.263 -0.8677  0.1651 -0.7005
   52MOL   H26519747   6.202   6.453   2.407  3.1173 -0.8447  2.1952
   52MOL   H26619748   6.058   6.530   2.444  1.1363  0.5412  1.5294
   52MOL   H26719749   6.156   6.483   2.582  0.7733 -0.8859 -0.6531
   52MOL   C26819750   5.669   6.205   2.679  0.3469 -0.3910  0.9470
   52MOL   C26919751   5.564   6.200   2.572 -0.5161  0.6479  0.6760
   52MOL   C27019752   5.573   6.079   2.477  0.9460  0.0070 -0.3264
   52MOL   O27119753   5.569   5.964   2.516  0.7167 -0.8206  0.4200
   52MOL   N27219754   5.572   6.112   2.346 -0.1148  0.3297  0.5018
   52MOL   C27319755   5.568   6.011   2.238  0.0736  0.0681 -0.5750
   52MOL   C27419756   5.564   6.104   2.113 -0.3515  1.1753  0.2244
   52MOL   C27519757   5.687   5.916   2.245  0.3275  0.5378  0.0863
   52MOL   H27619758   5.751   6.140   2.650 -0.1767 -0.3714 -0.6182
   52MOL   H27719759   5.637   6.161   2.774 -0.5824  0.4906  1.0594
   52MOL   H27819760   5.578   6.282   2.502  1.5770 -1.4694 -1.4635
   52MOL   H27919761   5.548   6.209   2.332 -0.4172  0.2943  0.7719
   52MOL   H28019762   5.473   5.960   2.244  0.0627  0.0574 -0.8546
   52MOL   H28119763   5.482   6.176   2.109 -0.5689  0.8308 -2.8232
   52MOL   H28219764   5.658   6.157   2.101  0.6221 -0.7472 -0.8484
   52MOL   H28319765   5.547   6.057   2.016  1.8583  0.1729  0.3026
   52MOL   H28419766   5.700   5.872   2.344  0.6441  4.2322  1.7685
   52MOL   H28519767   5.684   5.829   2.178  1.0610  1.8231 -1.6546
   52MOL   H28619768   5.785   5.952   2.216  1.0948 -2.1308 -0.8241
   52MOL   C28719769   5.423   6.224   2.639 -0.2377 -0.0815  0.3014
   52MOL   C28819770   5.297   6.184   2.549  0.7575 -0.4608 -0.2763
   52MOL   C28919771   5.264   6.258   2.425 -0.1049  0.0519  0.0381
   52MOL   O29019772   5.265   6.381   2.417 -0.2182 -0.1334  0.3441
   52MOL   N29119773   5.219   6.186   2.319 -0.1240 -0.5604  0.4614
   52MOL   C29219774   5.139   6.251   2.212 -0.6787  0.3951 -0.0524
   52MOL   C29319775   5.150   6.175   2.078 -0.5444 -0.3021  0.4231
   52MOL   C29419776   4.989   6.256   2.264 -0.4263 -0.5810  0.2950
   52MOL   H29519777   5.419   6.148   2.717  0.4356  1.4595  1.8731
   52MOL   H29619778   5.408   6.321   2.688 -0.7149 -0.0482  0.0935
   52MOL   H29719779   5.309   6.078   2.528 -2.2570 -0.8427 -0.2784
   52MOL   H29819780   5.229   6.086   2.324 -1.6930 -0.6948  1.2592
   52MOL   H29919781   5.184   6.349   2.194  0.4393 -0.2648 -0.9266
   52MOL   H30019782   5.108   6.238   2.000 -1.7087 -0.9833  0.4829
   52MOL   H30119783   5.252   6.150   2.051 -0.3116 -1.8151  2.5294
   52MOL   H30219784   5.100   6.078   2.084  1.4009 -1.2393  2.1238
   52MOL   H30319785   4.968   6.299   2.362  0.4888  1.4493 -0.3818
   52MOL   H30419786   4.939   6.318   2.189 -0.4478 -1.4515 -0.4287
   52MOL   H30519787   4.939   6.158   2.268 -1.0979 -0.1768  2.2756
   52MOL   C30619788   5.172   6.192   2.638  0.5643 -0.5415  0.0318
   52MOL   C30719789   5.128   6.330   2.704  0.0083 -0.0851 -0.6023
   52MOL   C30819790   5.160   6.315   2.863 -0.1390 -0.1128  0.2365
   52MOL   O30919791   5.114   6.223   2.933 -0.3008  0.2277  0.1770
   52MOL   N31019792   5.250   6.403   2.911  0.1884  0.4573  0.4183
   52MOL   C31119793   5.289   6.426   3.045 -0.4141  0.0478  0.1296
   52MOL   C31219794   5.441   6.437   3.057 -0.3617 -0.1764  0.0662
   52MOL   C31319795   5.218   6.552   3.081 -0.3414 -0.4734 -0.1916
   52MOL   H31419796   5.090   6.156   2.575  0.4637  2.6852 -1.7807
   52MOL   H31519797   5.173   6.116   2.716 -1.2173  0.2370  0.8553
   52MOL   H31619798   5.168   6.420   2.657  1.4012 -0.6693 -0.5578
   52MOL   H31719799   5.264   6.469   2.836 -1.6821 -0.4150 -0.7342
   52MOL   H31819800   5.254   6.347   3.111  1.4991 -0.1704  0.9072
   52MOL   H31919801   5.474   6.536   3.026 -1.0000  0.6070  1.8448
   52MOL   H32019802   5.496   6.362   3.001 -1.6957 -1.6531  0.7032
   52MOL   H32119803   5.458   6.438   3.165 -1.7290 -1.3819  0.3134
   52MOL   H32219804   5.247   6.638   3.020  1.1394 -0.5173  0.4293
   52MOL   H32319805   5.228   6.593   3.181 -1.4531 -0.0441 -0.2564
   52MOL   H32419806   5.110   6.539   3.082 -0.5424  0.9402  2.9602
   52MOL   C32519807   4.970   6.341   2.690 -0.2387 -0.4814 -0.4611
   52MOL   C32619808   4.898   6.462   2.767 -0.2080  0.1838  0.0656
   52MOL   C32719809   4.931   6.600   2.703 -0.3532 -0.4496  0.0762
   52MOL   O32819810   4.879   6.633   2.595  0.6669 -0.0414 -0.3708
   52MOL   N32919811   5.012   6.679   2.779  0.8262 -0.0937  0.4365
   52MOL   C33019812   5.078   6.800   2.725  0.3728  0.2133  0.1977
   52MOL   C33119813   5.190   6.759   2.637 -0.8440  0.1339 -0.0018
   52MOL   C33219814   5.114   6.890   2.841 -0.3805  0.2806 -0.4196
   52MOL   H33319815   4.929   6.243   2.713 -0.4938  0.1635  2.0218
   52MOL   H33419816   4.949   6.370   2.588 -0.3187  0.1146 -0.2796
   52MOL   H33519817   4.928   6.460   2.872  4.2175 -0.0472 -1.1343
   52MOL   H33619818   5.030   6.638   2.870  1.2806  2.7375  1.6888
   52MOL   H33719819   5.009   6.865   2.670  1.6405 -0.6235 -2.4737
   52MOL   H33819820   5.158   6.691   2.558 -0.2329 -1.9348  1.4895
   52MOL   H33919821   5.221   6.849   2.583  1.6550 -0.7131 -0.0563
   52MOL   H34019822   5.276   6.719   2.691 -0.7673 -1.4122 -1.2488
   52MOL   H34119823   5.201   6.853   2.894 -0.3488  3.1003  1.6525
   52MOL   H34219824   5.029   6.909   2.907 -0.1683 -0.4534  0.0702
   52MOL   H34319825   5.143   6.983   2.793  1.7079  0.1942  0.6094
   52MOL   C34419826   4.738   6.449   2.773  0.6214 -0.0406 -0.9467
   52MOL   C34519827   4.666   6.319   2.817 -0.0670 -0.1499  0.6504
   52MOL   C34619828   4.744   6.232   2.915 -0.1292  0.0742 -0.5409
   52MOL   O34719829   4.803   6.283   3.006 -0.5200  0.2577 -0.4411
   52MOL   N34819830   4.751   6.097   2.885  0.7339  0.2699  0.1724
   52MOL   C34919831   4.829   5.996   2.961  0.1835  0.1837  0.5463
   52MOL   C35019832   4.732   5.883   2.993  0.4498 -0.6605 -0.2841
   52MOL   C35119833   4.952   5.952   2.873  0.4575  0.6440  0.0253
   52MOL   H35219834   4.705   6.475   2.672  0.1766 -3.8645 -1.8790
   52MOL   H35319835   4.704   6.527   2.841  0.1095 -0.4195 -0.7612
   52MOL   H35419836   4.667   6.264   2.722  2.6796 -0.4999  0.8547
   52MOL   H35519837   4.680   6.063   2.823  1.4108  1.1726 -1.1206
   52MOL   H35619838   4.871   6.035   3.053  2.2249  1.4463 -0.8775
   52MOL   H35719839   4.670   5.906   3.080  1.2913 -0.9278  0.4054
   52MOL   H35819840   4.666   5.862   2.909 -0.1338  0.7611 -0.1948
   52MOL   H35919841   4.793   5.794   3.012  0.8321 -0.2760  0.3286
   52MOL   H36019842   4.933   5.858   2.821 -1.4534  0.3944  1.1589
   52MOL   H36119843   4.989   6.030   2.806  1.9133  0.2856  0.3840
   52MOL   H36219844   5.029   5.944   2.950 -0.5033 -0.6430  0.8808
   52MOL   C36319845   4.522   6.342   2.868 -0.2542 -0.0517 -0.1746
   52MOL   C36419846   4.426   6.221   2.888  0.3906  0.4500 -0.2497
   52MOL   C36519847   4.428   6.126   2.764 -0.6952 -0.0997  0.1867
   52MOL   O36619848   4.519   6.039   2.754 -0.2768 -0.1064  0.3064
   52MOL   N36719849   4.333   6.155   2.670 -0.1466  0.4045 -0.5962
   52MOL   C36819850   4.336   6.103   2.533  0.1791 -0.5142  0.0638
   52MOL   C36919851   4.201   6.054   2.475  0.3291  0.0043  0.0210
   52MOL   C37019852   4.394   6.192   2.429  0.2388 -0.2916  0.6112
   52MOL   H37119853   4.475   6.403   2.790  1.8325  0.4584 -1.0476
   52MOL   H37219854   4.521   6.399   2.961 -1.0495  0.1825 -0.3163
   52MOL   H37319855   4.326   6.256   2.912  0.5913  0.3999  0.6588
   52MOL   H37419856   4.253   6.206   2.705  0.2475  1.5569 -1.3571
   52MOL   H37519857   4.399   6.014   2.538 -0.5402 -0.9463  1.5436
   52MOL   H37619858   4.130   6.135   2.490  1.1765  0.9006 -0.7603
   52MOL   H37719859   4.209   6.035   2.368  1.2090  0.1478  0.0609
   52MOL   H37819860   4.163   5.964   2.522 -2.4010  1.9585  1.7256
   52MOL   H37919861   4.346   6.290   2.438 -0.0859 -0.5901  2.2199
   52MOL   H38019862   4.502   6.206   2.434  0.2337 -0.4397  1.1225
   52MOL   H38119863   4.376   6.159   2.327 -1.0727  1.2829  0.3038
   52MOL   H38219864   4.452   6.160   2.974 -0.2328  1.4148  0.6263
   53MOL     C119865   2.066   6.322   7.075  0.0019 -0.0227  0.1886
   53MOL     C219866   1.974   6.296   6.959  0.6484  0.6793 -0.3702
   53MOL     C319867   1.973   6.140   6.924 -0.5695 -0.7188  0.5756
   53MOL     O419868   1.864   6.082   6.925 -0.4007 -0.9202 -0.1625
   53MOL     N519869   2.086   6.073   6.901  0.3415  0.4019 -0.0535
   53MOL     C619870   2.080   5.927   6.862 -0.1781  0.0906  0.2138
   53MOL     C719871   2.179   5.880   6.746 -0.0874 -0.2660  0.4998
   53MOL     C819872   2.094   5.843   6.994 -0.1794  0.1907  0.1462
   53MOL     H919873   2.019   6.289   7.168 -1.1200  3.7918  1.0833
   53MOL    H1019874   2.075   6.430   7.080  1.5450 -0.0397 -1.9285
   53MOL    H1119875   2.025   6.348   6.878 -0.2811 -0.7555 -1.9334
   53MOL    H1219876   2.176   6.112   6.927  1.8454 -2.1939 -1.1794
   53MOL    H1319877   1.982   5.897   6.825 -0.8776 -1.0627  2.8666
   53MOL    H1419878   2.142   5.927   6.655  0.7372 -1.4624 -0.4551
   53MOL    H1519879   2.179   5.772   6.730  2.7312 -0.2851  0.4264
   53MOL    H1619880   2.284   5.900   6.765  0.4169 -1.9529 -0.3800
   53MOL    H1719881   2.009   5.871   7.057  0.6282  5.1007 -0.7250
   53MOL    H1819882   2.094   5.734   6.991 -1.4830  0.2069 -1.2625
   53MOL    H1919883   2.184   5.873   7.048 -0.3635  0.1894  0.4557
   53MOL    H2019884   2.160   6.274   7.048 -0.7956 -0.0078 -2.6998
   53MOL    C2119885   1.829   6.352   6.972  0.0101  0.3872  0.1330
   53MOL    C2219886   1.759   6.353   6.829 -0.4544 -0.2896 -0.8973
   53MOL    C2319887   1.790   6.480   6.743 -0.3265 -0.1858 -0.8379
   53MOL    O2419888   1.771   6.591   6.792 -0.1423  0.2099  0.1836
   53MOL    N2519889   1.862   6.469   6.628  0.2952 -0.1793  0.1319
   53MOL    C2619890   1.903   6.581   6.541  0.6571 -0.1347  0.0385
   53MOL    C2719891   1.795   6.618   6.435 -0.4888 -0.4262 -0.3373
   53MOL    C2819892   2.040   6.537   6.474 -0.5494 -0.5560 -0.2671
   53MOL    H2919893   1.817   6.448   7.023 -1.9801 -1.3541  3.0596
   53MOL    H3019894   1.774   6.281   7.033  0.3043 -0.5578 -0.6909
   53MOL    H3119895   1.796   6.265   6.777 -0.4012 -2.4137  2.6028
   53MOL    H3219896   1.902   6.379   6.605 -1.3952 -0.2729 -2.6352
   53MOL    H3319897   1.906   6.678   6.590  1.0548 -1.6548  3.1285
   53MOL    H3419898   1.703   6.643   6.487 -0.1449  0.1851 -0.0193
   53MOL    H3519899   1.785   6.521   6.387 -2.3338 -0.1364 -0.5711
   53MOL    H3619900   1.831   6.696   6.369 -0.8521  0.9348  1.0534
   53MOL    H3719901   2.083   6.624   6.425 -2.1731 -0.2557 -1.1945
   53MOL    H3819902   2.122   6.505   6.540  2.5474  2.0594 -2.6919
   53MOL    H3919903   2.025   6.468   6.391 -2.6377 -0.0367 -0.3382
   53MOL    C4019904   1.609   6.334   6.828  0.0537  0.2550 -0.6712
   53MOL    C4119905   1.548   6.273   6.701  0.0349  0.1131  0.3062
   53MOL    C4219906   1.413   6.340   6.653  1.0011  0.1323 -0.3219
   53MOL    O4319907   1.325   6.380   6.736 -0.0243 -0.3520  0.3600
   53MOL    N4419908   1.388   6.355   6.519  0.3858  0.4253 -0.3562
   53MOL    C4519909   1.262   6.414   6.469 -0.5351  0.3203  0.1938
   53MOL    C4619910   1.292   6.450   6.323 -0.0166  0.2913 -0.2417
   53MOL    C4719911   1.150   6.317   6.493  0.2211  0.5591  1.1332
   53MOL    H4819912   1.558   6.429   6.839  0.1275  0.1475  0.6167
   53MOL    H4919913   1.574   6.267   6.907  0.3501  1.3642  0.4090
   53MOL    H5019914   1.618   6.296   6.621 -1.6631  3.1313 -0.3740
   53MOL    H5119915   1.449   6.310   6.451 -0.0935 -1.1860  0.2651
   53MOL    H5219916   1.247   6.511   6.516  0.4872  0.8834 -0.6136
   53MOL    H5319917   1.352   6.372   6.274  0.0620  1.2578 -1.7079
   53MOL    H5419918   1.350   6.542   6.323  0.4556 -0.0011 -0.6070
   53MOL    H5519919   1.201   6.462   6.265  0.0715 -1.8303 -0.8884
   53MOL    H5619920   1.117   6.336   6.595  0.6825  2.2500  0.9784
   53MOL    H5719921   1.182   6.213   6.486  0.1073  0.5869  0.0567
   53MOL    H5819922   1.073   6.336   6.418  0.1119  0.4832  1.2256
   53MOL    C5919923   1.533   6.119   6.713 -0.6029  0.8193  0.3778
   53MOL    C6019924   1.427   6.060   6.817 -0.5426 -0.0491  0.2553
   53MOL    C6119925   1.470   5.922   6.866  0.3731  0.3970  0.2930
   53MOL    O6219926   1.397   5.820   6.852  0.1387 -0.1248 -0.2502
   53MOL    N6319927   1.585   5.907   6.928 -0.4251  0.1516  1.0774
   53MOL    C6419928   1.634   5.786   6.990 -0.9597 -0.2905 -0.7636
   53MOL    C6519929   1.709   5.699   6.891  0.1848  0.0424 -0.2331
   53MOL    C6619930   1.724   5.836   7.111  0.0800 -0.1595 -0.4976
   53MOL    H6719931   1.510   6.084   6.613 -0.0771  0.4444  0.3836
   53MOL    H6819932   1.634   6.083   6.734 -0.3079  0.6018 -1.2877
   53MOL    H6919933   1.433   6.103   6.917 -0.2804 -0.0001  0.2182
   53MOL    H7019934   1.647   5.987   6.924 -1.4010  0.8434 -2.0555
   53MOL    H7119935   1.559   5.727   7.041 -0.0106 -0.4691  0.4527
   53MOL    H7219936   1.645   5.674   6.806  2.1699 -1.2367 -1.3901
   53MOL    H7319937   1.792   5.752   6.844  0.2314  0.1757 -0.0013
   53MOL    H7419938   1.738   5.603   6.935 -0.4199  0.7662  1.7915
   53MOL    H7519939   1.751   5.752   7.175  1.6739  0.7506  0.0623
   53MOL    H7619940   1.816   5.885   7.077 -0.0807 -0.0932 -0.8375
   53MOL    H7719941   1.668   5.906   7.173 -0.1462  0.4031 -1.3381
   53MOL    C7819942   1.279   6.056   6.770  0.2657  0.3477 -0.2207
   53MOL    C7919943   1.165   6.039   6.870  0.6234 -0.3236  0.6780
   53MOL    C8019944   1.172   6.136   6.982 -0.0766 -0.4268  0.2838
   53MOL    O8119945   1.168   6.104   7.107 -0.4760  0.1455  0.7951
   53MOL    N8219946   1.196   6.260   6.940  1.1469  0.3099  0.3175
   53MOL    C8319947   1.192   6.383   7.010  0.2022  0.1176 -0.7906
   53MOL    C8419948   1.337   6.414   7.068  0.0287 -0.8294 -0.6179
   53MOL    C8519949   1.128   6.504   6.944 -0.1988 -0.1622 -0.3190
   53MOL    H8619950   1.275   5.962   6.715 -0.6337  1.5962 -2.3590
   53MOL    H8719951   1.252   6.123   6.689  0.2529  0.8593  0.2075
   53MOL    H8819952   1.169   5.943   6.922  2.1435 -1.2281 -1.0342
   53MOL    H8919953   1.212   6.263   6.840  1.1978 -0.6964  0.2947
   53MOL    H9019954   1.129   6.358   7.095 -2.2646  3.2431 -1.6075
   53MOL    H9119955   1.378   6.324   7.115  1.0897  0.3844  0.8524
   53MOL    H9219956   1.397   6.457   6.988 -1.3776 -0.2470 -1.3695
   53MOL    H9319957   1.323   6.492   7.143  1.2118 -2.2928  1.1537
   53MOL    H9419958   1.110   6.590   7.008 -0.7424 -1.4916  1.3580
   53MOL    H9519959   1.036   6.494   6.886  1.8101 -0.0193 -3.7156
   53MOL    H9619960   1.204   6.548   6.880  1.4381  0.7875  2.2100
   53MOL    C9719961   1.025   6.042   6.805  0.1158 -0.3822 -0.8001
   53MOL    C9819962   0.978   5.915   6.730 -0.2549  0.2253 -0.0533
   53MOL    C9919963   1.006   5.924   6.582 -1.1043  0.1621 -0.4721
   53MOL   O10019964   0.945   6.011   6.514 -0.1312  0.4712  0.1771
   53MOL   N10119965   1.101   5.844   6.520  0.1611 -0.2443  0.0371
   53MOL   C10219966   1.146   5.856   6.389 -0.3256 -0.9732  0.2448
   53MOL   C10319967   1.282   5.928   6.374  0.6812  0.9045  0.1048
   53MOL   C10419968   1.149   5.714   6.339 -0.0021 -0.2928  0.7604
   53MOL   H10519969   1.018   6.139   6.755  2.1099  0.3309  0.2195
   53MOL   H10619970   0.951   6.045   6.885 -0.9247 -1.7452 -1.7017
   53MOL   H10719971   1.051   5.843   6.766  1.0795  0.9356 -1.2924
   53MOL   H10819972   1.148   5.779   6.581  1.3348  0.9777  0.4545
   53MOL   H10919973   1.072   5.910   6.330  1.1517 -0.0699 -0.8296
   53MOL   H11019974   1.360   5.899   6.445  1.3114 -0.3203 -1.0622
   53MOL   H11119975   1.309   5.901   6.272 -0.0822 -0.6626  0.2938
   53MOL   H11219976   1.268   6.036   6.375  0.9608  0.9402  0.1684
   53MOL   H11319977   1.056   5.666   6.372 -1.4795  0.0499 -2.7114
   53MOL   H11419978   1.236   5.659   6.374  0.3779  0.3392  0.8166
   53MOL   H11519979   1.156   5.708   6.231  2.1668 -2.2501  0.9733
   53MOL   C11619980   0.830   5.865   6.766 -0.0659  0.6937 -0.1061
   53MOL   C11719981   0.794   5.717   6.718 -0.3700 -0.0727 -0.3583
   53MOL   C11819982   0.640   5.693   6.705  0.0992 -0.1421  0.4924
   53MOL   O11919983   0.558   5.724   6.796 -0.1095 -0.0540  0.3209
   53MOL   N12019984   0.600   5.627   6.588  0.2034 -0.4624  0.0025
   53MOL   C12119985   0.466   5.567   6.565  0.0604 -0.5684 -0.2083
   53MOL   C12219986   0.406   5.636   6.445 -0.0012 -0.0976  0.0475
   53MOL   C12319987   0.462   5.416   6.556 -0.6523 -0.2118  0.1635
   53MOL   H12419988   0.762   5.940   6.725  1.1010  2.5464  1.2761
   53MOL   H12519989   0.815   5.875   6.873 -2.1255 -0.3506 -0.2817
   53MOL   H12619990   0.832   5.703   6.617 -0.7455 -4.5024 -0.0010
   53MOL   H12719991   0.676   5.611   6.522  0.2847 -1.2403  0.2784
   53MOL   H12819992   0.411   5.592   6.656 -2.1563  2.7854 -2.3635
   53MOL   H12919993   0.447   5.611   6.347 -0.2505  1.0889 -0.3666
   53MOL   H13019994   0.422   5.743   6.460  0.6660 -0.1824 -0.0477
   53MOL   H13119995   0.300   5.619   6.424  0.1824  0.1265 -1.1208
   53MOL   H13219996   0.540   5.385   6.625  0.0734  0.1920 -0.4659
   53MOL   H13319997   0.368   5.372   6.588 -0.1044  0.3169  2.5348
   53MOL   H13419998   0.484   5.384   6.454 -2.3134  0.3548 -0.3850
   53MOL   C13519999   0.862   5.617   6.812 -0.6136  0.1999 -0.3179
   53MOL   C13620000   0.857   5.466   6.757  0.1843 -0.5584  0.3869
   53MOL   C13720001   0.922   5.458   6.618  0.2054 -0.0210  0.3704
   53MOL   O13820002   1.021   5.528   6.602  0.0935  0.2488  0.5317
   53MOL   N13920003   0.865   5.384   6.524 -0.3551  0.0193  0.1635
   53MOL   C14020004   0.880   5.387   6.384 -0.1406 -0.1404  0.4634
   53MOL   C14120005   0.770   5.480   6.317 -0.0895  0.4368  0.0595
   53MOL   C14220006   0.871   5.248   6.317  0.2291 -0.3101 -0.2638
   53MOL   H14320007   0.806   5.619   6.906 -0.0272 -0.7439  0.0686
   53MOL   H14420008   0.967   5.641   6.822 -0.8101  1.5973 -1.5278
   53MOL   H14520009   0.750   5.454   6.739  0.0295  1.7087 -0.3640
   53MOL   H14620010   0.790   5.320   6.549  0.8103 -0.6780  1.9936
   53MOL   H14720011   0.976   5.437   6.370 -0.0839 -0.2052  0.6182
   53MOL   H14820012   0.754   5.464   6.210 -0.5676  0.0754  0.1853
   53MOL   H14920013   0.670   5.477   6.360 -0.0029  0.9547  0.2965
   53MOL   H15020014   0.805   5.583   6.322  0.6049  0.1409  1.4641
   53MOL   H15120015   0.793   5.185   6.359  0.6500 -2.0132 -1.9432
   53MOL   H15220016   0.960   5.185   6.319 -0.2228 -0.9165  1.0827
   53MOL   H15320017   0.832   5.267   6.217 -0.0452  0.0724 -0.0835
   53MOL   C15420018   0.906   5.366   6.867 -0.0606 -0.2296 -0.5509
   53MOL   C15520019   0.892   5.211   6.848 -0.6400  0.1842  0.0040
   53MOL   C15620020   0.756   5.184   6.788 -0.4084 -0.4996 -0.4605
   53MOL   O15720021   0.742   5.147   6.675 -0.0144 -0.3877 -0.2769
   53MOL   N15820022   0.653   5.203   6.873 -0.7991  0.3913 -0.6295
   53MOL   C15920023   0.515   5.167   6.845 -0.2115  0.5643  0.2379
   53MOL   C16020024   0.429   5.291   6.886 -0.2010 -0.1795 -0.2994
   53MOL   C16120025   0.475   5.038   6.913 -0.0168  0.2415  0.2515
   53MOL   H16220026   0.845   5.395   6.953  0.4843 -2.3203  0.5749
   53MOL   H16320027   1.012   5.386   6.887 -0.5962  0.2419  1.9510
   53MOL   H16420028   0.963   5.177   6.773 -1.0829 -0.0458 -0.3053
   53MOL   H16520029   0.676   5.236   6.966  1.9268  1.9611 -1.8070
   53MOL   H16620030   0.496   5.159   6.737 -0.7939  1.6271  0.2605
   53MOL   H16720031   0.326   5.278   6.852  0.1478  1.3328 -2.0028
   53MOL   H16820032   0.431   5.299   6.995 -3.2319 -1.6018 -0.0802
   53MOL   H16920033   0.472   5.384   6.850 -1.9324  0.7894  0.0718
   53MOL   H17020034   0.481   5.057   7.020 -0.5970 -2.0013  0.7043
   53MOL   H17120035   0.549   4.960   6.894 -0.5614 -0.3256  0.4436
   53MOL   H17220036   0.371   5.023   6.887 -0.2053 -0.5805  1.4627
   53MOL   C17320037   0.919   5.153   6.991  0.5096  0.3079 -0.2601
   53MOL   C17420038   1.054   5.189   7.064  0.2217 -0.1699  0.5656
   53MOL   C17520039   1.047   5.154   7.212 -0.1794 -0.2494 -0.0135
   53MOL   O17620040   1.042   5.042   7.256 -0.6142 -0.5161  0.2364
   53MOL   N17720041   1.058   5.261   7.295  0.2609 -1.0018  0.3963
   53MOL   C17820042   1.036   5.259   7.441 -0.0833  0.2482 -0.5149
   53MOL   C17920043   0.999   5.407   7.493 -0.2099  0.0146  0.3518
   53MOL   C18020044   1.159   5.221   7.511  0.3015 -0.3682  0.1426
   53MOL   H18120045   0.920   5.044   6.991  1.5870  0.2963  1.0342
   53MOL   H18220046   0.836   5.182   7.057 -2.0367  1.7564 -3.9536
   53MOL   H18320047   1.059   5.298   7.064  0.7403 -0.1793 -1.0467
   53MOL   H18420048   1.027   5.350   7.259  1.7917 -0.7309 -0.2801
   53MOL   H18520049   0.944   5.205   7.465 -0.3913  0.3547 -1.4370
   53MOL   H18620050   0.908   5.442   7.444 -0.1214 -0.4118 -0.1188
   53MOL   H18720051   1.077   5.483   7.483  0.3806 -0.5468  0.6715
   53MOL   H18820052   0.970   5.400   7.597 -1.9690  0.7494 -0.0814
   53MOL   H18920053   1.193   5.127   7.466  2.4296 -0.4162  1.7847
   53MOL   H19020054   1.135   5.208   7.616 -2.8486  0.7763 -0.3838
   53MOL   H19120055   1.241   5.293   7.499 -0.0234 -0.2122 -1.2832
   53MOL   C19220056   1.179   5.130   6.991 -0.5839 -0.6373  0.2828
   53MOL   C19320057   1.324   5.158   7.037  0.3037 -0.1477 -1.0573
   53MOL   C19420058   1.357   5.307   7.014  0.3756  0.2013 -0.2779
   53MOL   O19520059   1.393   5.353   6.906 -0.0217  0.2021 -0.0338
   53MOL   N19620060   1.343   5.379   7.129  0.3864  0.1521  0.4205
   53MOL   C19720061   1.378   5.520   7.128  0.4554 -0.0394 -0.0904
   53MOL   C19820062   1.256   5.601   7.067  1.2075  0.0788 -0.6369
   53MOL   C19920063   1.394   5.575   7.269  0.7814 -0.2437  0.5321
   53MOL   H20020064   1.175   5.173   6.891 -2.3926  0.0995  0.6563
   53MOL   H20120065   1.163   5.022   6.992 -3.1842 -0.2744 -0.2358
   53MOL   H20220066   1.325   5.139   7.144  0.9933  0.8380 -0.8817
   53MOL   H20320067   1.302   5.333   7.209 -0.1224 -0.1010  0.0108
   53MOL   H20420068   1.471   5.541   7.075 -0.3731  1.2727 -1.0634
   53MOL   H20520069   1.158   5.587   7.113  0.4561  2.7925 -1.2942
   53MOL   H20620070   1.244   5.585   6.960 -3.0899  2.0023 -0.5547
   53MOL   H20720071   1.265   5.708   7.087 -1.1249  0.1528  0.1480
   53MOL   H20820072   1.417   5.682   7.273  0.1599 -0.1515  2.1382
   53MOL   H20920073   1.476   5.529   7.325  0.9533 -2.4909 -1.5067
   53MOL   H21020074   1.308   5.568   7.336  1.5939  0.1366  1.6437
   53MOL   C21120075   1.426   5.065   6.967  0.1108 -0.4283 -0.1659
   53MOL   C21220076   1.573   5.076   7.007 -0.0099 -0.0826  1.0101
   53MOL   C21320077   1.588   5.075   7.159 -0.0192 -0.4072  0.2840
   53MOL   O21420078   1.511   5.017   7.239 -0.0650  0.2879 -0.2833
   53MOL   N21520079   1.688   5.149   7.199 -0.4442  0.3992  0.4590
   53MOL   C21620080   1.723   5.166   7.336 -0.6451  0.0845 -0.7240
   53MOL   C21720081   1.656   5.289   7.391 -0.4840 -0.3711  0.0854
   53MOL   C21820082   1.876   5.172   7.327 -0.0061  0.0250  0.1317
   53MOL   H21920083   1.424   5.066   6.858 -0.6194 -1.2364 -0.1676
   53MOL   H22020084   1.403   4.960   6.987 -1.4422  0.2004  1.4831
   53MOL   H22120085   1.615   5.169   6.970 -0.6913  0.6196  1.9886
   53MOL   H22220086   1.739   5.212   7.138  2.7094 -0.3720  2.2077
   53MOL   H22320087   1.687   5.087   7.402 -0.3939 -0.7701 -1.5849
   53MOL   H22420088   1.661   5.368   7.315  1.1165  0.2711  0.8352
   53MOL   H22520089   1.549   5.272   7.408 -0.3419  1.1861  2.8237
   53MOL   H22620090   1.701   5.323   7.484 -0.0533  0.4069 -0.3986
   53MOL   H22720091   1.910   5.247   7.256 -0.5783  2.2847  2.1571
   53MOL   H22820092   1.932   5.083   7.299  0.1761  0.3392 -0.5074
   53MOL   H22920093   1.924   5.199   7.421 -1.8612  1.4147  0.7095
   53MOL   C23020094   1.649   4.958   6.937  0.8210  0.1239 -0.4309
   53MOL   C23120095   1.802   4.961   6.944  0.1985  0.1836 -0.5949
   53MOL   C23220096   1.863   5.098   6.919 -0.1913  0.2066  0.4538
   53MOL   O23320097   1.931   5.158   7.004  0.3564 -0.3153  0.1485
   53MOL   N23420098   1.831   5.148   6.800  0.2430 -0.3773  0.3581
   53MOL   C23520099   1.845   5.287   6.771  0.0945 -0.2573  0.9291
   53MOL   C23620100   1.986   5.327   6.720  0.1441  0.2261  0.1217
   53MOL   C23720101   1.740   5.334   6.667  0.3651  0.9398  0.1196
   53MOL   H23820102   1.613   4.968   6.835  1.9779 -1.2931 -1.0020
   53MOL   H23920103   1.605   4.864   6.969  0.9505  0.9681  2.3733
   53MOL   H24020104   1.832   4.907   6.854 -0.5213 -1.0515 -0.1081
   53MOL   H24120105   1.780   5.085   6.738 -1.1507  0.1802  0.9096
   53MOL   H24220106   1.838   5.345   6.862 -0.7999  1.8378 -0.4337
   53MOL   H24320107   2.006   5.284   6.623 -0.9450 -1.1394  0.4860
   53MOL   H24420108   1.994   5.435   6.706  2.2018  0.1374  0.4184
   53MOL   H24520109   2.064   5.304   6.792  1.2217  0.4334 -0.9710
   53MOL   H24620110   1.638   5.345   6.703  0.0840 -0.1542 -0.3228
   53MOL   H24720111   1.740   5.259   6.587  1.2657 -0.8716  1.7803
   53MOL   H24820112   1.779   5.430   6.633  1.5651  0.3417 -0.2391
   53MOL   C24920113   1.866   4.883   7.058  0.2981 -0.4990  0.1307
   53MOL   C25020114   2.016   4.854   7.052 -0.1718  0.3702  0.5142
   53MOL   C25120115   2.072   4.820   6.910 -0.2716  0.2461 -0.9476
   53MOL   O25220116   2.057   4.707   6.860  0.0878 -0.1104 -0.0002
   53MOL   N25320117   2.134   4.926   6.853 -0.3377 -0.1564 -0.2825
   53MOL   C25420118   2.192   4.918   6.712 -0.3161 -0.8680 -0.4161
   53MOL   C25520119   2.152   5.039   6.634  0.4546  0.1438  0.2346
   53MOL   C25620120   2.342   4.904   6.724 -0.0456 -0.3919 -0.1442
   53MOL   H25720121   1.823   4.783   7.063  1.8428 -1.1878  0.1808
   53MOL   H25820122   1.848   4.934   7.153  1.1961  2.3248 -1.1528
   53MOL   H25920123   2.061   4.946   7.089 -0.8277  1.3593 -1.1022
   53MOL   H26020124   2.135   5.015   6.899 -1.6966 -0.1318 -0.2859
   53MOL   H26120125   2.143   4.829   6.673 -0.0356 -2.7170  3.2351
   53MOL   H26220126   2.045   5.050   6.653  0.5311 -1.1909  1.5415
   53MOL   H26320127   2.198   5.133   6.663  1.0221  0.6256 -2.1522
   53MOL   H26420128   2.165   5.041   6.526  2.0463 -1.2529  0.3723
   53MOL   H26520129   2.390   4.982   6.783  2.7636  0.3125 -3.2182
   53MOL   H26620130   2.378   4.808   6.761  0.0759  0.4327  1.9612
   53MOL   H26720131   2.370   4.929   6.622 -0.8945 -2.7329 -0.9750
   53MOL   C26820132   2.050   4.749   7.159  0.4872 -0.2743  0.5001
   53MOL   C26920133   2.016   4.779   7.311 -0.1200  0.4010 -0.0339
   53MOL   C27020134   1.904   4.693   7.367 -0.5656 -0.2262 -0.2251
   53MOL   O27120135   1.921   4.582   7.418  0.4954 -0.0932  0.1211
   53MOL   N27220136   1.781   4.753   7.362 -0.1951 -0.4455 -0.0566
   53MOL   C27320137   1.655   4.697   7.402 -0.9130 -0.2008 -0.7476
   53MOL   C27420138   1.575   4.776   7.513 -0.1836 -0.0228  0.1430
   53MOL   C27520139   1.573   4.677   7.273  0.6034 -0.0611  0.1197
   53MOL   H27620140   1.993   4.662   7.129 -0.7506 -0.3243  2.8832
   53MOL   H27720141   2.153   4.714   7.163  0.4840 -0.8294 -2.9847
   53MOL   H27820142   1.983   4.880   7.329  0.0755  0.4597 -0.0029
   53MOL   H27920143   1.779   4.843   7.317 -0.1171  0.5078  1.7930
   53MOL   H28020144   1.670   4.597   7.441  0.0748 -1.1116 -3.3612
   53MOL   H28120145   1.488   4.722   7.549 -0.0449  0.5653  1.3842
   53MOL   H28220146   1.638   4.796   7.599  0.3072  1.1189 -0.4623
   53MOL   H28320147   1.540   4.870   7.470  1.0340 -1.4476 -4.2537
   53MOL   H28420148   1.547   4.759   7.205 -0.0621  1.2316  1.8926
   53MOL   H28520149   1.625   4.601   7.216  1.2368  1.1243 -0.9155
   53MOL   H28620150   1.476   4.635   7.300 -0.3362  1.8878 -0.1033
   53MOL   C28720151   2.145   4.756   7.403 -0.3772  0.0450  0.2925
   53MOL   C28820152   2.138   4.805   7.554  0.7936  0.1071 -0.2773
   53MOL   C28920153   2.106   4.950   7.561 -0.3312 -0.1860  0.2051
   53MOL   O29020154   2.172   5.026   7.490  0.7801  0.3762 -0.0302
   53MOL   N29120155   2.034   4.994   7.667 -0.0564 -0.2508  0.0053
   53MOL   C29220156   2.027   5.133   7.703 -0.1235  0.5900  0.6639
   53MOL   C29320157   1.890   5.184   7.752  0.1982 -0.5315 -0.6923
   53MOL   C29420158   2.135   5.156   7.805 -0.3481 -0.7030 -0.3610
   53MOL   H29520159   2.186   4.656   7.412 -1.3188 -0.4318 -0.5728
   53MOL   H29620160   2.233   4.806   7.363 -1.4358  2.0606  0.4070
   53MOL   H29720161   2.052   4.751   7.593  0.5113  1.2244  0.6362
   53MOL   H29820162   1.987   4.928   7.727 -3.1361  0.9671 -1.0073
   53MOL   H29920163   2.056   5.197   7.619 -0.2578 -1.1752 -0.7539
   53MOL   H30020164   1.837   5.110   7.812  0.5205 -1.5135 -1.6087
   53MOL   H30120165   1.896   5.271   7.818 -0.0810 -0.0784 -1.2586
   53MOL   H30220166   1.822   5.202   7.669  0.2922  1.1135 -0.4470
   53MOL   H30320167   2.146   5.261   7.832 -1.0835 -1.1587  1.8491
   53MOL   H30420168   2.117   5.104   0.063 -0.8734 -0.0394 -0.0917
   53MOL   H30520169   2.229   5.120   7.764  0.8405  1.6863  0.2115
   53MOL   C30620170   2.272   4.781   7.632 -0.2826 -0.2329 -0.2926
   53MOL   C30720171   2.343   4.643   7.643  1.3079 -0.8729 -0.3666
   53MOL   C30820172   2.246   4.550   7.712 -0.9575  0.4747  0.6281
   53MOL   O30920173   2.188   4.591   7.815  0.0486 -0.0965 -0.4238
   53MOL   N31020174   2.229   4.427   7.658 -0.1777 -0.1579  0.3416
   53MOL   C31120175   2.132   4.340   7.705  0.4646 -0.1999  0.4828
   53MOL   C31220176   2.079   4.263   7.580  0.0800 -0.0813 -0.3573
   53MOL   C31320177   2.201   4.240   7.801  0.4294 -0.0098  0.5285
   53MOL   H31420178   2.353   4.836   7.584 -1.0133  0.3862 -0.8210
   53MOL   H31520179   2.254   4.811   7.736 -0.5989 -3.9956  0.8009
   53MOL   H31620180   2.351   4.604   7.542 -0.9154  1.7836 -1.6159
   53MOL   H31720181   2.289   4.400   7.582  0.9635 -0.5664  1.3676
   53MOL   H31820182   2.050   4.390   7.755  1.1031  1.2532  0.0963
   53MOL   H31920183   2.020   4.318   7.506  1.4165  2.0638  0.1137
   53MOL   H32020184   2.003   4.193   7.612  0.0961  0.3792  0.7113
   53MOL   H32120185   2.155   4.200   7.533  1.5863  0.7055  0.9443
   53MOL   H32220186   2.254   4.281   0.051  1.5058 -1.5481  0.6305
   53MOL   H32320187   2.268   4.176   7.743 -0.3689 -1.4025  1.1051
   53MOL   H32420188   2.119   4.184   0.011  0.1667  0.7082  0.9470
   53MOL   C32520189   2.484   4.659   7.711 -0.0577 -0.0266 -0.3023
   53MOL   C32620190   2.608   4.618   7.622  0.6075 -0.1094 -0.5004
   53MOL   C32720191   2.614   4.469   7.611 -0.5243  0.2214  0.0373
   53MOL   O32820192   2.529   4.409   7.538 -0.0510  0.1559 -0.1737
   53MOL   N32920193   2.718   4.406   7.669  0.3416  0.9030  0.7845
   53MOL   C33020194   2.749   4.265   7.643  0.3823 -0.3124 -0.5962
   53MOL   C33120195   2.765   4.183   7.765 -0.5015  0.7212 -0.2327
   53MOL   C33220196   2.886   4.262   7.572 -0.0387 -0.6148  0.4099
   53MOL   H33320197   2.496   4.606   7.805 -1.1771  1.1752  0.5419
   53MOL   H33420198   2.504   4.764   7.732 -0.5704 -0.1215  0.7068
   53MOL   H33520199   2.693   4.660   7.675 -1.0316  0.9144  1.3803
   53MOL   H33620200   2.786   4.462   7.718  2.2265 -0.6374 -0.0319
   53MOL   H33720201   2.672   4.221   7.579 -1.9372  1.8073  0.6928
   53MOL   H33820202   2.823   4.090   7.756  1.1794  1.4330  2.7574
   53MOL   H33920203   2.817   4.240   0.005 -0.1417 -2.8464  2.3462
   53MOL   H34020204   2.672   4.143   7.807 -0.7397  1.3993 -0.1200
   53MOL   H34120205   2.942   4.354   7.589 -1.2879  0.1444  0.4360
   53MOL   H34220206   2.869   4.266   7.465  0.3590  5.4693  0.4434
   53MOL   H34320207   2.949   4.175   7.594  0.8214 -0.0387  0.2805
   53MOL   C34420208   2.597   4.694   7.486 -0.0534  0.0030  0.0285
   53MOL   C34520209   2.718   4.689   7.388 -0.5032 -0.2611  0.0398
   53MOL   C34620210   2.846   4.729   7.459  0.1059 -0.6246 -0.3566
   53MOL   O34720211   2.936   4.648   7.463  0.0407 -0.2470  0.1560
   53MOL   N34820212   2.859   4.850   7.513  0.6400 -0.0071  0.6436
   53MOL   C34920213   2.963   4.889   7.611 -0.1206 -0.0780 -0.1818
   53MOL   C35020214   2.977   5.041   7.616  0.4333  0.3202 -0.2944
   53MOL   C35120215   2.961   4.812   7.744 -0.3991 -0.5632 -0.2717
   53MOL   H35220216   2.583   4.797   7.520  0.3670 -0.4733  1.7060
   53MOL   H35320217   2.508   4.670   7.428  0.1099  0.4555 -0.4185
   53MOL   H35420218   2.694   4.771   7.321 -1.5414 -1.2992 -0.8716
   53MOL   H35520219   2.787   4.920   7.498 -0.1234 -1.1399 -1.1503
   53MOL   H35620220   3.053   4.852   7.562 -0.0986  2.5241 -2.1730
   53MOL   H35720221   2.886   5.101   7.610  0.0187 -0.3351 -0.6974
   53MOL   H35820222   3.007   5.064   7.718 -0.7472 -0.1843  0.1795
   53MOL   H35920223   3.053   5.082   7.549  0.9472 -1.6172 -0.9478
   53MOL   H36020224   2.893   4.856   7.817  1.6421 -0.2199  1.4831
   53MOL   H36120225   2.941   4.705   7.739 -0.8632 -0.6652  2.7267
   53MOL   H36220226   3.057   4.825   7.795 -0.3089 -1.5848 -0.1683
   53MOL   C36320227   2.736   4.558   7.304  0.6708  0.4890 -0.1744
   53MOL   C36420228   2.812   4.577   7.176 -0.6211  0.0277 -0.6278
   53MOL   C36520229   2.719   4.631   7.057 -0.3863 -0.1129  0.4662
   53MOL   O36620230   2.710   4.750   7.031 -0.1622 -0.2377  0.0507
   53MOL   N36720231   2.637   4.543   6.999  0.4542 -0.1194 -0.3904
   53MOL   C36820232   2.540   4.568   6.897  0.3482  0.4064  0.6553
   53MOL   C36920233   2.562   4.486   6.763  0.1811  0.4419 -0.0052
   53MOL   C37020234   2.401   4.535   6.948  0.9560 -0.9201 -0.3070
   53MOL   H37120235   2.641   4.511   7.278  0.8844 -0.8918  1.4701
   53MOL   H37220236   2.791   4.482   7.359  0.2094  0.3443  0.0950
   53MOL   H37320237   2.850   4.481   7.139  0.2977  1.5848 -3.8814
   53MOL   H37420238   2.640   4.448   7.035  3.1326  0.0261 -0.1493
   53MOL   H37520239   2.552   4.673   6.869  1.1583  1.0135  3.1542
   53MOL   H37620240   2.663   4.519   6.740  1.2486 -3.1298 -0.7088
   53MOL   H37720241   2.554   4.378   6.776 -0.1513  0.5124  0.3958
   53MOL   H37820242   2.497   4.508   6.679  1.6366  1.5721 -0.8432
   53MOL   H37920243   2.326   4.573   6.878  0.5376 -1.1939 -0.0142
   53MOL   H38020244   2.374   4.429   6.952 -0.8133 -0.4682  0.2397
   53MOL   H38120245   2.373   4.579   7.044 -0.0670 -0.4981 -0.7928
   53MOL   H38220246   2.905   4.629   7.199 -1.1899  0.6320  0.3102
   54MOL     C120247   1.016   7.518   3.747 -0.5517  0.3742 -0.2432
   54MOL     C220248   1.025   7.413   3.634  0.1246 -0.1341  0.2208
   54MOL     C320249   1.050   7.481   3.500  0.8750  0.9017  0.1917
   54MOL     O420250   1.166   7.493   3.455  0.3659  0.0511  0.4258
   54MOL     N520251   0.934   7.525   3.449  0.4688  0.0631  0.0933
   54MOL     C620252   0.895   7.603   3.332  0.3383  0.9369 -0.4309
   54MOL     C720253   0.908   7.523   3.197 -0.3370  0.7349 -0.0798
   54MOL     C820254   0.752   7.649   3.359 -0.1183 -0.3772  0.3724
   54MOL     H920255   1.013   7.466   3.842  0.0563 -0.2026 -0.5391
   54MOL    H1020256   0.930   7.585   3.750 -1.5389 -0.9226  1.0677
   54MOL    H1120257   0.927   7.365   3.628 -0.4299  1.0595 -0.5038
   54MOL    H1220258   0.852   7.512   3.506 -0.0427  0.5662 -0.5244
   54MOL    H1320259   0.971   7.681   3.334  1.4692 -0.1560 -0.2734
   54MOL    H1420260   0.908   7.588   3.110 -0.2534 -0.9711 -1.3821
   54MOL    H1520261   0.832   7.445   3.186  1.1554 -0.7221 -0.2466
   54MOL    H1620262   1.006   7.476   3.208  0.4870  2.7165  1.3056
   54MOL    H1720263   0.680   7.568   3.374 -0.8773  0.3837  0.8518
   54MOL    H1820264   0.750   7.713   3.447 -0.0670  0.7269 -0.4127
   54MOL    H1920265   0.722   7.720   3.282 -0.2383 -2.1667 -1.2880
   54MOL    H2020266   1.099   7.587   3.733 -0.9018  0.8960  0.2563
   54MOL    C2120267   1.130   7.304   3.683 -0.0233  0.0936 -0.6658
   54MOL    C2220268   1.153   7.193   3.581  0.1972 -0.2397  0.1266
   54MOL    C2320269   1.036   7.104   3.552  0.7301  0.3392 -1.1290
   54MOL    O2420270   1.001   7.021   3.640  0.2181 -0.3231 -0.2487
   54MOL    N2520271   0.966   7.127   3.443 -0.0607  0.4612  0.5041
   54MOL    C2620272   0.828   7.083   3.412  0.2264 -0.8508  0.5892
   54MOL    C2720273   0.839   6.975   3.300  0.9993 -0.1341 -0.0800
   54MOL    C2820274   0.746   7.205   3.360 -0.1054 -0.1498  0.0601
   54MOL    H2920275   1.108   7.248   3.774  1.6726  0.4370 -0.0319
   54MOL    H3020276   1.229   7.345   3.699  0.0293  0.0984 -0.9844
   54MOL    H3120277   1.154   7.239   3.482  0.6781  1.4313  0.9013
   54MOL    H3220278   1.005   7.171   3.361 -0.0918  2.7987  1.7339
   54MOL    H3320279   0.769   7.058   3.500 -1.9509 -1.5479 -1.0181
   54MOL    H3420280   0.747   6.956   3.245  1.6264  0.5863 -1.4039
   54MOL    H3520281   0.876   6.884   3.347 -0.2808 -0.4600  0.3145
   54MOL    H3620282   0.906   7.005   3.219 -0.7756 -3.2228 -2.7947
   54MOL    H3720283   0.817   7.250   3.290 -0.1813  0.0444  0.1085
   54MOL    H3820284   0.659   7.165   3.309 -0.3904  0.4744  0.0569
   54MOL    H3920285   0.707   7.277   3.432 -1.2603 -0.6770 -0.0301
   54MOL    C4020286   1.290   7.119   3.593  0.7000  0.2829 -0.1560
   54MOL    C4120287   1.403   7.195   3.526 -0.6253  0.4932  0.0644
   54MOL    C4220288   1.393   7.209   3.374  0.6275 -0.0260 -0.4630
   54MOL    O4320289   1.421   7.110   3.308 -0.1058 -0.0963 -0.0581
   54MOL    N4420290   1.343   7.318   3.324  0.5083 -0.1851 -0.1849
   54MOL    C4520291   1.351   7.355   3.178 -0.7141  0.8675 -1.5485
   54MOL    C4620292   1.252   7.283   3.089  0.3516  0.4603  0.3423
   54MOL    C4720293   1.330   7.508   3.175  0.6203  0.5676 -0.7834
   54MOL    H4820294   1.275   7.019   3.553 -0.5692  0.6207 -0.5605
   54MOL    H4920295   1.314   7.095   3.697  1.2584  1.8184  0.0807
   54MOL    H5020296   1.391   7.299   3.557  1.7409  0.3198  1.6523
   54MOL    H5120297   1.319   7.389   3.392  0.3407 -1.0233  0.6472
   54MOL    H5220298   1.451   7.333   3.142  0.6015  2.2086  1.2028
   54MOL    H5320299   1.155   7.285   3.137  0.2321 -0.4900  0.1652
   54MOL    H5420300   1.278   7.177   3.081 -1.2562  0.0611  0.2595
   54MOL    H5520301   1.251   7.337   2.994  1.1787 -0.1287 -0.0094
   54MOL    H5620302   1.346   7.548   3.075  2.9204  0.1872 -0.5798
   54MOL    H5720303   1.408   7.557   3.233 -0.0077 -1.2059  1.6602
   54MOL    H5820304   1.236   7.551   3.211  2.5784  1.9763  3.0250
   54MOL    C5920305   1.541   7.152   3.578  0.0270 -0.5798  0.0208
   54MOL    C6020306   1.656   7.249   3.535  0.1435 -0.3641 -1.0989
   54MOL    C6120307   1.747   7.184   3.430 -0.2268 -0.6743  0.1297
   54MOL    O6220308   1.859   7.146   3.462 -0.3098 -0.4587 -0.2617
   54MOL    N6320309   1.697   7.200   3.302 -0.2789 -0.7409  0.0602
   54MOL    C6420310   1.773   7.180   3.180  0.5648  0.2519 -0.3036
   54MOL    C6520311   1.676   7.134   3.070  0.3957  0.0973 -0.1284
   54MOL    C6620312   1.850   7.309   3.134 -0.8289  0.4265  0.0151
   54MOL    H6720313   1.540   7.150   3.687  1.3182  0.2602  0.0504
   54MOL    H6820314   1.549   7.048   3.547 -0.9815 -0.6317 -0.0829
   54MOL    H6920315   1.618   7.341   3.491  2.1277  0.1384 -1.8280
   54MOL    H7020316   1.602   7.235   3.294  0.6512  2.2921  1.3006
   54MOL    H7120317   1.838   7.094   3.195  0.9566  0.2469 -1.8949
   54MOL    H7220318   1.734   7.088   2.990  1.9856 -0.8738  1.5523
   54MOL    H7320319   1.600   7.059   3.095  0.0294  0.3449 -0.5040
   54MOL    H7420320   1.626   7.214   3.017 -0.3960  0.0996  0.5997
   54MOL    H7520321   1.919   7.347   3.209 -1.2138  0.4066  0.3822
   54MOL    H7620322   1.902   7.296   3.039  0.0686  0.0570  0.5514
   54MOL    H7720323   1.787   7.397   3.121 -1.1492  0.0319 -1.2120
   54MOL    C7820324   1.740   7.303   3.662 -0.1712 -0.5237 -0.1884
   54MOL    C7920325   1.833   7.429   3.644  0.6166  0.3934 -0.5257
   54MOL    C8020326   1.764   7.535   3.562  0.9093 -0.7054  0.0255
   54MOL    O8120327   1.655   7.577   3.598  0.3548 -0.3691  0.4606
   54MOL    N8220328   1.833   7.587   3.463 -0.0329 -0.6213  0.1480
   54MOL    C8320329   1.774   7.677   3.359 -0.3144 -0.5510  0.1129
   54MOL    C8420330   1.884   7.714   3.265 -0.4370 -0.1009 -0.0284
   54MOL    C8520331   1.656   7.604   3.291  0.4577 -0.2410  0.1907
   54MOL    H8620332   1.795   7.213   3.689  0.4029 -0.8161 -2.2309
   54MOL    H8720333   1.673   7.339   3.740 -2.3636  1.4154 -2.8514
   54MOL    H8820334   1.910   7.373   3.590 -0.2544 -1.9045  0.5265
   54MOL    H8920335   1.930   7.564   3.445  0.5073  2.0797 -0.6466
   54MOL    H9020336   1.749   7.773   3.405 -1.3861 -0.1485 -1.2906
   54MOL    H9120337   1.965   7.755   3.325  0.1973 -1.2920 -0.0537
   54MOL    H9220338   1.927   7.632   3.206  1.5788  2.0372 -1.6069
   54MOL    H9320339   1.860   7.790   3.191 -0.9574 -1.1641 -0.9875
   54MOL    H9420340   1.688   7.511   3.245  0.2807 -0.3754  0.3352
   54MOL    H9520341   1.609   7.666   3.215  2.7683 -1.0377 -1.9125
   54MOL    H9620342   1.581   7.589   3.369  1.9565  1.2463  1.9818
   54MOL    C9720343   1.904   7.491   3.768 -0.2071  0.1813 -0.6802
   54MOL    C9820344   2.006   7.393   3.847 -0.6007  0.3693  0.7168
   54MOL    C9920345   1.936   7.263   3.905 -0.0346 -0.7507  0.1269
   54MOL   O10020346   1.996   7.153   3.882 -0.2385  0.1100  0.7924
   54MOL   N10120347   1.827   7.273   3.979  0.2322 -0.1410  0.0169
   54MOL   C10220348   1.749   7.161   4.025  1.0310 -0.2044 -0.5173
   54MOL   C10320349   1.809   7.107   4.153  0.4315  0.0376  0.1086
   54MOL   C10420350   1.603   7.210   4.049 -0.4096 -0.1748  0.2932
   54MOL   H10520351   1.833   7.531   3.840 -1.3629  0.6241 -2.0446
   54MOL   H10620352   1.958   7.580   3.736  1.2759  0.0426  1.3283
   54MOL   H10720353   2.071   7.354   3.769 -1.0110 -0.9091  1.0136
   54MOL   H10820354   1.796   7.364   4.009  2.8790  1.1433 -0.9832
   54MOL   H10920355   1.735   7.087   3.947  1.4853 -2.0539  1.1088
   54MOL   H11020356   1.808   7.178   4.235  0.3171  1.5057 -1.1422
   54MOL   H11120357   1.752   7.022   4.191  0.7743 -0.8372 -1.2592
   54MOL   H11220358   1.910   7.073   4.129  0.7760  1.6464 -0.7955
   54MOL   H11320359   1.577   7.270   3.962  1.3843 -3.1219 -2.4213
   54MOL   H11420360   1.599   7.279   4.133  1.3727 -0.5513  0.7092
   54MOL   H11520361   1.527   7.136   4.075  0.6680 -1.7204 -0.7963
   54MOL   C11620362   2.083   7.452   3.964  0.0525 -1.0420  0.2281
   54MOL   C11720363   2.214   7.519   3.910 -0.6932  0.4458  0.5864
   54MOL   C11820364   2.344   7.452   3.962  0.6160 -0.0540  0.8790
   54MOL   O11920365   2.339   7.389   4.070  0.2242 -0.0407  0.6206
   54MOL   N12020366   2.466   7.453   3.897 -0.2594 -0.1364  0.3209
   54MOL   C12120367   2.498   7.532   3.780  0.5583 -0.5734  0.3387
   54MOL   C12220368   2.601   7.646   3.821 -0.0629 -0.2115  0.6572
   54MOL   C12320369   2.558   7.443   3.670  0.1758  0.0670  0.1707
   54MOL   H12420370   2.110   7.379   4.040 -0.0486 -0.2007  1.0874
   54MOL   H12520371   2.020   7.523   4.017  1.6137  0.5525 -0.0001
   54MOL   H12620372   2.209   7.520   3.801  0.3037  1.6244  0.5365
   54MOL   H12720373   2.544   7.416   3.950  1.0591 -0.4486 -1.7504
   54MOL   H12820374   2.413   7.589   3.742 -0.7278 -1.0340  2.3872
   54MOL   H12920375   2.702   7.608   3.839 -0.1512 -0.5253  0.4937
   54MOL   H13020376   2.557   7.684   3.913 -0.5063  1.6773 -0.3158
   54MOL   H13120377   2.606   7.736   3.760 -2.6429  0.4465  1.3400
   54MOL   H13220378   2.475   7.405   3.610 -0.3250 -0.1916  1.0142
   54MOL   H13320379   2.622   7.500   3.602 -0.1185 -0.2176 -0.3456
   54MOL   H13420380   2.606   7.355   3.712  0.8073 -0.2002 -1.1092
   54MOL   C13520381   2.217   7.670   3.936 -0.9425 -0.5360 -0.0093
   54MOL   C13620382   2.261   7.732   4.074 -0.1821  0.1428 -0.3636
   54MOL   C13720383   2.264   0.051   4.057  0.1485  0.9512  0.1635
   54MOL   O13820384   2.169   0.116   4.020  0.1366 -0.0126 -0.1654
   54MOL   N13920385   2.383   0.104   4.077  0.2352  0.0018 -0.9823
   54MOL   C14020386   2.414   0.248   4.074 -0.2228  0.2428  0.1984
   54MOL   C14120387   2.483   0.276   3.939 -0.2028  0.5831 -0.2561
   54MOL   C14220388   2.496   0.287   4.198 -0.4217  0.1580 -0.4412
   54MOL   H14320389   2.113   7.698   3.920 -1.1056 -1.7175 -1.1634
   54MOL   H14420390   2.274   7.715   3.855  0.2980 -0.6786  0.7683
   54MOL   H14520391   2.358   7.688   4.095 -1.0094 -1.1821  0.7827
   54MOL   H14620392   2.464   0.047   4.097 -0.9535 -0.0963  4.1855
   54MOL   H14720393   2.327   0.314   4.071  0.2138  0.8261  0.2686
   54MOL   H14820394   2.565   0.209   3.914  0.8869  0.7705  2.6786
   54MOL   H14920395   2.407   0.265   3.861 -0.2655  0.4965 -0.1827
   54MOL   H15020396   2.517   0.379   3.927  0.0175  0.7456  1.6610
   54MOL   H15120397   2.530   0.390   4.187 -1.1214  0.3685 -0.6796
   54MOL   H15220398   2.585   0.228   4.217 -1.0497 -0.3098  1.1444
   54MOL   H15320399   2.439   0.270   4.290  0.0869  0.1681 -0.1221
   54MOL   C15420400   2.172   7.680   4.192 -0.2473 -0.5660 -0.1666
   54MOL   C15520401   2.217   7.734   4.333 -0.5467 -0.1124  0.5510
   54MOL   C15620402   2.360   7.689   4.374 -0.3136  0.2221 -0.5345
   54MOL   O15720403   2.372   7.575   4.417  0.0778  0.1097  0.1141
   54MOL   N15820404   2.454   7.779   4.356 -0.6486 -0.3308 -0.1696
   54MOL   C15920405   2.596   7.753   4.372  0.2850 -0.1938  0.7014
   54MOL   C16020406   2.650   7.642   4.275  0.4053  0.2695  0.3149
   54MOL   C16120407   2.628   7.715   4.517  0.6290  0.4983 -0.4579
   54MOL   H16220408   2.185   7.572   4.197 -1.4546 -0.6851  0.5288
   54MOL   H16320409   2.065   7.694   4.173 -0.7781 -2.3284  1.4071
   54MOL   H16420410   2.226   0.006   4.325  0.4419 -0.1100  1.5580
   54MOL   H16520411   2.433   0.036   4.324 -2.2182 -0.9091 -0.9195
   54MOL   H16620412   2.645   0.013   4.360  0.5733 -0.6190 -2.0042
   54MOL   H16720413   2.736   7.586   4.313  0.9719 -0.6877 -2.2795
   54MOL   H16820414   2.582   7.560   4.251  1.0881  0.7731 -3.5461
   54MOL   H16920415   2.675   7.687   4.179  0.5872 -0.3346  0.0745
   54MOL   H17020416   2.735   7.702   4.527  0.5532 -0.2950 -0.6028
   54MOL   H17120417   2.578   7.621   4.541  0.3130  0.1424 -2.4252
   54MOL   H17220418   2.597   7.790   4.589 -0.0961  0.3496 -0.6102
   54MOL   C17320419   2.103   7.687   4.437 -0.2321  0.0116 -0.4236
   54MOL   C17420420   2.118   7.712   4.589  0.4956 -0.0795  0.1531
   54MOL   C17520421   2.158   0.021   4.625  0.0804  0.3116 -0.0127
   54MOL   O17620422   2.088   0.122   4.609  0.1201 -0.6583 -0.1026
   54MOL   N17720423   2.278   0.029   4.680  0.4841  0.1755 -0.1237
   54MOL   C17820424   2.331   0.144   4.740  0.7226  0.3950 -0.4296
   54MOL   C17920425   2.418   0.218   4.634  0.1366  0.6559 -0.2041
   54MOL   C18020426   2.417   0.124   4.871 -0.3630 -0.0081 -0.3680
   54MOL   H18120427   2.083   7.581   4.424 -2.5331 -0.0101  2.7441
   54MOL   H18220428   2.008   7.736   4.414 -0.9623 -0.0986  2.1834
   54MOL   H18320429   2.199   7.643   4.612  0.0354 -1.2698 -1.6039
   54MOL   H18420430   2.324   7.778   4.703  0.7537  0.5465  0.7608
   54MOL   H18520431   2.248   0.207   4.771  1.0384  1.4477 -1.6628
   54MOL   H18620432   2.500   0.161   4.591 -0.9967 -0.1745 -1.3032
   54MOL   H18720433   2.457   0.303   4.691 -0.0838  0.8297 -0.3147
   54MOL   H18820434   2.359   0.253   4.550 -0.6792  1.3443  0.6455
   54MOL   H18920435   2.454   0.220   4.907 -1.7004  0.2957  0.2277
   54MOL   H19020436   2.505   0.063   4.849 -1.0718 -0.7833 -1.1243
   54MOL   H19120437   2.368   0.079   4.957  0.2473 -0.1358 -0.0906
   54MOL   C19220438   1.988   7.659   4.670  0.1823  1.0494  0.0070
   54MOL   C19320439   1.977   7.660   4.826  0.4224 -0.2247  0.2418
   54MOL   C19420440   2.080   7.557   4.884  0.2893 -0.1877  0.5748
   54MOL   O19520441   2.039   7.448   4.919 -0.4285  0.0658 -0.0357
   54MOL   N19620442   2.206   7.597   4.903  0.2040 -0.1142 -0.1664
   54MOL   C19720443   2.300   7.503   4.966 -0.5835  0.2704 -0.9792
   54MOL   C19820444   2.441   7.538   4.915  0.4862 -0.3933 -0.3093
   54MOL   C19920445   2.295   7.527   5.118  0.1107  0.3922 -0.4164
   54MOL   H20020446   1.962   7.556   4.644  0.4932  0.7775  0.7429
   54MOL   H20120447   1.904   7.713   4.627 -1.7630 -0.7035  1.5133
   54MOL   H20220448   2.013   7.759   4.851  0.5919 -0.4044  0.7174
   54MOL   H20320449   2.226   7.695   4.887 -2.9673  0.9191  1.7672
   54MOL   H20420450   2.294   7.399   4.934  0.1838  0.1507 -0.7498
   54MOL   H20520451   2.455   7.512   4.810  0.2214  1.7777 -0.9100
   54MOL   H20620452   2.517   7.478   4.964 -1.7174 -2.0300  1.2430
   54MOL   H20720453   2.467   7.643   4.932  1.1955 -0.6200  0.0055
   54MOL   H20820454   2.326   7.440   5.175  1.1334  1.5030  0.7709
   54MOL   H20920455   2.194   7.554   5.152  1.3784  2.3578  1.9620
   54MOL   H21020456   2.358   7.607   5.157  1.1661 -1.5330  1.9452
   54MOL   C21120457   1.835   7.644   4.876 -0.3512 -0.4808  0.1716
   54MOL   C21220458   1.822   7.669   5.029 -0.1771 -0.5260 -0.0920
   54MOL   C21320459   1.838   7.819   5.064  1.1188 -0.2036 -0.0589
   54MOL   O21420460   1.949   0.017   5.098  0.2023  0.0378  0.3115
   54MOL   N21520461   1.734   0.066   5.072 -0.5702  0.3560  0.1745
   54MOL   C21620462   1.732   0.204   5.102 -0.2052  0.4643 -0.7522
   54MOL   C21720463   1.604   0.244   5.182  0.1065  0.1026  0.1461
   54MOL   C21820464   1.772   0.274   4.970 -0.2152  0.2147 -0.1372
   54MOL   H21920465   1.795   7.548   4.842 -1.0155 -0.0177 -0.3808
   54MOL   H22020466   1.761   7.713   4.835  0.0825  0.2330  0.5888
   54MOL   H22120467   1.911   7.627   5.075  0.4357 -0.9192 -1.5972
   54MOL   H22220468   1.647   0.020   5.051  0.1667 -0.7550 -0.5100
   54MOL   H22320469   1.814   0.220   5.172 -1.0132  0.5755  0.1803
   54MOL   H22420470   1.602   0.206   5.284 -1.4174  0.1324  0.1427
   54MOL   H22520471   1.589   0.352   5.184 -0.3493  0.0330  0.6372
   54MOL   H22620472   1.515   0.207   5.131 -1.7882  1.2393  2.5133
   54MOL   H22720473   1.695   0.277   4.893  1.6428 -1.8232 -2.1335
   54MOL   H22820474   1.855   0.232   4.913 -0.6074 -0.7246 -0.0149
   54MOL   H22920475   1.808   0.373   5.001  1.5191 -0.2910 -0.4727
   54MOL   C23020476   1.693   7.607   5.098  0.1213 -0.9829  0.1438
   54MOL   C23120477   1.676   7.456   5.081 -0.1841 -0.2223  0.1531
   54MOL   C23220478   1.750   7.373   5.180  0.0878  0.3141  0.1383
   54MOL   O23320479   1.714   7.374   5.295 -0.0605 -0.4792 -0.5210
   54MOL   N23420480   1.863   7.311   5.148 -0.7964  0.1698 -0.1442
   54MOL   C23520481   1.956   7.227   5.236  0.2306 -0.2916  0.4126
   54MOL   C23620482   1.892   7.100   5.287  0.2743 -0.1071 -0.1377
   54MOL   C23720483   2.086   7.203   5.149 -0.9734  0.1730  0.3614
   54MOL   H23820484   1.600   7.650   5.062  0.7329  0.2160 -0.0196
   54MOL   H23920485   1.689   7.644   5.200  1.1509  0.9488 -0.4857
   54MOL   H24020486   1.712   7.428   4.982  1.5879 -1.6894  1.1698
   54MOL   H24120487   1.892   7.327   5.053  0.5203 -1.2604  0.0023
   54MOL   H24220488   1.984   7.290   5.320 -0.1989 -0.8002  0.9469
   54MOL   H24320489   1.840   7.039   5.213  0.6949 -0.8763  0.1894
   54MOL   H24420490   1.974   7.038   5.323  0.4523  0.3527  0.2427
   54MOL   H24520491   1.834   7.117   5.378  0.8549  0.2306  0.1641
   54MOL   H24620492   2.064   7.149   5.057 -2.3325  0.5184  0.4768
   54MOL   H24720493   2.161   7.146   5.205 -0.6783  0.4618  0.2659
   54MOL   H24820494   2.125   7.299   5.113 -1.0388  0.3136  0.6689
   54MOL   C24920495   1.523   7.427   5.065  0.1377  0.2765  0.0671
   54MOL   C25020496   1.473   7.279   5.065 -0.0930  0.3028  0.6460
   54MOL   C25120497   1.541   7.185   4.966 -0.0079 -0.2943  0.2424
   54MOL   O25220498   1.546   7.212   4.846 -0.0942 -0.7522 -0.0256
   54MOL   N25320499   1.593   7.071   5.007  0.2808 -0.1810 -0.0919
   54MOL   C25420500   1.634   6.965   4.919 -0.8452  0.5308  0.1495
   54MOL   C25520501   1.783   6.938   4.926 -0.5630  0.2883  0.3494
   54MOL   C25620502   1.550   6.838   4.939 -0.0160  0.4654  0.0243
   54MOL   H25720503   1.485   7.476   4.975 -2.1882 -0.1936  0.7595
   54MOL   H25820504   1.482   7.467   5.158  0.3292  0.1444  0.2093
   54MOL   H25920505   1.490   7.235   5.163 -1.3855  1.4083  1.3877
   54MOL   H26020506   1.583   7.058   5.107 -1.0439  0.2677 -0.1549
   54MOL   H26120507   1.616   6.992   4.815 -0.2158  1.5764  0.3136
   54MOL   H26220508   1.814   6.879   4.840  1.5468 -0.0641  1.3107
   54MOL   H26320509   1.842   7.029   4.916  0.2516 -0.3147 -0.3563
   54MOL   H26420510   1.818   6.889   5.017  0.2673 -2.3477 -1.3651
   54MOL   H26520511   1.444   6.857   4.925 -0.0632 -0.2696 -0.6343
   54MOL   H26620512   1.575   6.758   4.869  1.1201  0.0145  0.9258
   54MOL   H26720513   1.570   6.804   5.041 -1.4349  2.6150  1.0507
   54MOL   C26820514   1.323   7.283   5.054  0.3121  0.3619 -0.9081
   54MOL   C26920515   1.254   7.188   5.152 -0.8228 -0.1138 -0.2620
   54MOL   C27020516   1.258   7.252   5.293 -0.2996  0.2223  0.7855
   54MOL   O27120517   1.321   7.192   5.384 -0.0652 -0.2721  0.4650
   54MOL   N27220518   1.187   7.362   5.309 -0.0568 -0.2925 -0.3192
   54MOL   C27320519   1.186   7.447   5.427  0.6527  0.2470  0.0429
   54MOL   C27420520   1.168   7.589   5.384 -0.0538 -0.1877  0.4930
   54MOL   C27520521   1.072   7.402   5.523  1.0093  0.0476  0.3646
   54MOL   H27620522   1.286   7.385   5.062  2.3160  0.9704  1.1291
   54MOL   H27720523   1.300   7.244   4.955 -0.1035 -2.2946  0.1726
   54MOL   H27820524   1.303   7.092   5.167  0.4272  0.4550 -0.6161
   54MOL   H27920525   1.145   7.392   5.223 -2.8013 -1.0205  0.6982
   54MOL   H28020526   1.269   7.440   5.497 -1.4549  0.0518  2.6227
   54MOL   H28120527   1.213   7.601   5.285 -2.0849  0.1189 -0.4200
   54MOL   H28220528   1.061   7.612   5.388  0.1438  0.7506  0.4306
   54MOL   H28320529   1.203   7.657   5.461 -1.2291  0.6505  0.2926
   54MOL   H28420530   1.057   7.477   5.601 -0.6095  1.5486 -1.3501
   54MOL   H28520531   0.977   7.382   5.474  0.0691 -1.1965  2.6093
   54MOL   H28620532   1.104   7.314   5.579  1.8463 -1.8335 -2.9577
   54MOL   C28720533   1.107   7.160   5.109 -0.5367 -0.1042 -0.7370
   54MOL   C28820534   1.051   7.032   5.178 -0.0781 -0.5965  0.0306
   54MOL   C28920535   0.969   6.952   5.070  0.2035 -0.4210 -1.0408
   54MOL   O29020536   0.850   6.927   5.089 -0.5479  0.0071  0.1201
   54MOL   N29120537   1.037   6.914   4.965  0.2018 -0.4041 -0.5964
   54MOL   C29220538   0.982   6.848   4.849  0.2778  0.2363 -0.5206
   54MOL   C29320539   0.884   6.935   4.772 -0.6158 -0.4337 -0.9308
   54MOL   C29420540   1.088   6.785   4.763 -0.3505 -0.5615 -0.9851
   54MOL   H29520541   1.038   7.243   5.122 -1.0704 -0.4029 -1.5863
   54MOL   H29620542   1.097   7.149   5.001 -1.3072 -3.7078 -0.3782
   54MOL   H29720543   1.130   6.964   5.211  1.1816  1.1727  0.7003
   54MOL   H29820544   1.137   6.922   4.963  0.1918 -0.3082 -0.7519
   54MOL   H29920545   0.928   6.762   4.890 -1.1761  1.5060  0.2595
   54MOL   H30020546   0.810   6.968   4.846  1.3657  2.0889  0.0058
   54MOL   H30120547   0.924   7.030   4.738 -1.2356 -0.4422 -1.7159
   54MOL   H30220548   0.836   6.888   4.686  2.7747 -2.2349 -1.9123
   54MOL   H30320549   1.156   6.854   4.713  2.0785 -1.0963  1.4944
   54MOL   H30420550   1.152   6.724   4.827  0.2303  0.3283 -0.7096
   54MOL   H30520551   1.042   6.720   4.688 -1.8833 -0.7696  0.1194
   54MOL   C30620552   0.962   7.063   5.301  0.1350  0.0233 -0.5406
   54MOL   C30720553   0.922   6.945   5.393 -0.2553  0.4935  0.6495
   54MOL   C30820554   0.771   6.943   5.424 -0.3304  0.4960  0.3833
   54MOL   O30920555   0.719   7.039   5.483  0.1289  0.4686  0.2138
   54MOL   N31020556   0.699   6.839   5.374 -0.2072 -0.1544 -0.2806
   54MOL   C31120557   0.564   6.792   5.401 -0.2352 -0.5867 -0.4904
   54MOL   C31220558   0.468   6.843   5.295  0.5354  0.0226 -0.5524
   54MOL   C31320559   0.564   6.638   5.380  0.3021  0.4019 -0.8317
   54MOL   H31420560   1.014   7.140   5.359 -1.7248 -1.4087  3.2520
   54MOL   H31520561   0.881   7.117   5.252 -0.5574 -0.9544 -0.4791
   54MOL   H31620562   0.961   6.856   5.344  0.3749  0.2944  1.4977
   54MOL   H31720563   0.751   6.801   5.296 -0.0309  2.7999 -1.6506
   54MOL   H31820564   0.528   6.815   5.502  1.7550 -2.1456  0.5892
   54MOL   H31920565   0.446   6.946   5.321  1.1339  0.6774 -2.6101
   54MOL   H32020566   0.376   6.785   5.304  1.2024 -1.0912 -0.7773
   54MOL   H32120567   0.505   6.835   5.193  1.7726  1.1961 -0.2028
   54MOL   H32220568   0.462   6.604   5.395  1.2510 -2.6565 -1.0317
   54MOL   H32320569   0.624   6.582   5.451  0.8344 -0.6954 -2.1195
   54MOL   H32420570   0.592   6.615   5.277 -2.6953 -3.5236 -0.9116
   54MOL   C32520571   0.996   6.937   5.528  0.3064 -1.0061  0.4512
   54MOL   C32620572   1.142   6.892   5.522  0.0052 -0.0961  0.4143
   54MOL   C32720573   1.208   6.951   5.646  0.1663  0.5203  0.0495
   54MOL   O32820574   1.168   6.922   5.759 -0.3888  0.6857  0.1519
   54MOL   N32920575   1.312   7.032   5.619  0.4073  0.2048 -0.1453
   54MOL   C33020576   1.398   7.094   5.721  0.6848 -0.0272 -1.0068
   54MOL   C33120577   1.340   7.226   5.778 -0.4486 -0.4776 -0.0944
   54MOL   C33220578   1.531   7.130   5.655 -0.2927 -0.7303 -0.0859
   54MOL   H33320579   0.940   6.870   5.593  0.2111  0.8477  2.3111
   54MOL   H33420580   0.986   7.035   5.576  0.3073 -1.3016  1.0530
   54MOL   H33520581   1.190   6.939   5.435 -0.5039 -1.2656 -0.5180
   54MOL   H33620582   1.326   7.066   5.525 -0.4726  0.5266 -0.1688
   54MOL   H33720583   1.415   7.017   5.796  1.5502 -0.0045 -1.1806
   54MOL   H33820584   1.236   7.214   5.809 -0.9626  0.5057 -1.4068
   54MOL   H33920585   1.395   7.263   5.865  2.0248 -1.2501 -1.2775
   54MOL   H34020586   1.347   7.302   5.700 -3.3608 -0.1194 -0.0700
   54MOL   H34120587   1.600   7.195   5.709  1.3100 -2.5921  0.1911
   54MOL   H34220588   1.513   7.168   5.554  1.3436  1.5494  0.4365
   54MOL   H34320589   1.589   7.039   5.641 -0.2787 -0.3917 -2.5272
   54MOL   C34420590   1.161   6.740   5.507  0.2091  0.3758 -0.0896
   54MOL   C34520591   1.254   6.691   5.388 -0.2416 -0.2610  0.3680
   54MOL   C34620592   1.392   6.752   5.386 -0.2561  0.4085 -0.3275
   54MOL   O34720593   1.415   6.845   5.308 -0.7501 -0.1311  0.2866
   54MOL   N34820594   1.484   6.703   5.467 -0.2686  0.0638 -0.0615
   54MOL   C34920595   1.605   6.770   5.513 -0.2484 -0.5216 -0.2753
   54MOL   C35020596   1.632   6.750   5.658  0.4733 -0.1495 -0.0752
   54MOL   C35120597   1.727   6.738   5.436 -0.8059  0.1960 -0.1126
   54MOL   H35220598   1.069   6.688   5.483  0.6077 -0.5292  0.3321
   54MOL   H35320599   1.194   6.700   5.602 -1.5448 -0.5372  0.1341
   54MOL   H35420600   1.199   6.722   5.300 -0.9703 -0.3902  0.7746
   54MOL   H35520601   1.454   6.619   5.515 -0.4155  2.2674  3.9227
   54MOL   H35620602   1.586   6.874   5.488  1.6181 -0.3400 -1.0892
   54MOL   H35720603   1.728   6.792   5.690  0.5503  0.8777 -1.6213
   54MOL   H35820604   1.553   6.802   5.713  2.1457  0.3058  2.0000
   54MOL   H35920605   1.629   6.647   5.695 -0.8641 -0.8928 -2.1772
   54MOL   H36020606   1.749   6.631   5.438 -0.9007  0.1864  0.4240
   54MOL   H36120607   1.729   6.772   5.332  3.2825 -0.3406 -0.2719
   54MOL   H36220608   1.806   6.799   5.479 -1.3150  0.8992 -0.1755
   54MOL   C36320609   1.251   6.535   5.373 -0.3190 -0.7246  0.5104
   54MOL   C36420610   1.171   6.494   5.245  0.0665 -0.1539 -0.3087
   54MOL   C36520611   1.020   6.474   5.274 -0.6766 -1.0784 -0.9120
   54MOL   O36620612   0.973   6.491   5.388  0.2446 -0.8154  0.3945
   54MOL   N36720613   0.956   6.437   5.163  0.0723 -0.3258 -0.5077
   54MOL   C36820614   0.815   6.405   5.156  0.1784 -0.0245 -0.6917
   54MOL   C36920615   0.754   6.483   5.041 -0.1185 -0.2545 -0.2975
   54MOL   C37020616   0.798   6.257   5.173  0.4600  0.0391  1.0293
   54MOL   H37120617   1.217   6.490   5.466 -2.2715 -0.6189 -0.1124
   54MOL   H37220618   1.352   6.496   5.371  0.7508  1.8002  2.2191
   54MOL   H37320619   1.216   6.400   5.212  1.2422  0.3761 -0.2648
   54MOL   H37420620   0.998   6.432   5.071  1.1551  0.9306 -0.0894
   54MOL   H37520621   0.760   6.433   5.246 -1.0448 -2.9522 -0.4555
   54MOL   H37620622   0.645   6.478   5.043 -0.2525  1.7138 -1.5151
   54MOL   H37720623   0.790   6.586   5.045  0.3829 -0.4245 -0.3723
   54MOL   H37820624   0.782   6.434   4.948 -0.5087 -0.0295 -0.5313
   54MOL   H37920625   0.832   6.215   5.268  2.0819  0.4426  0.6263
   54MOL   H38020626   0.700   6.212   5.157  0.7695 -0.1529 -0.3548
   54MOL   H38120627   0.857   6.200   5.102 -1.1510 -0.6932  0.2442
   54MOL   H38220628   1.180   6.563   5.161  1.5493  1.5052  1.1532
   55MOL     C120629   0.380   2.538   4.593 -0.7694 -0.2870  0.3148
   55MOL     C220630   0.265   2.446   4.551  0.6598 -0.4338  0.4835
   55MOL     C320631   0.250   2.437   4.401  0.5130 -0.4719  0.6425
   55MOL     O420632   0.346   2.429   4.325 -0.3091  0.3010 -0.6145
   55MOL     N520633   0.126   2.448   4.354  0.7725  0.6480 -0.1376
   55MOL     C620634   0.078   2.448   4.220  0.4732 -0.1137  1.0211
   55MOL     C720635   0.072   2.303   4.169  0.2794  0.2454  0.2149
   55MOL     C820636   7.776   2.519   4.218  0.1467  0.7687 -0.5396
   55MOL     H920637   0.473   2.481   4.589 -0.0830  0.7841  1.1270
   55MOL    H1020638   0.366   2.573   4.695 -0.0559 -1.9765  1.0205
   55MOL    H1120639   0.174   2.490   4.591  0.3484 -1.6170  1.0850
   55MOL    H1220640   0.052   2.458   4.423  1.7706  0.5685  0.9561
   55MOL    H1320641   0.153   2.503   4.163  1.1004 -1.5169  0.4739
   55MOL    H1420642   0.022   2.283   4.075 -0.8004 -2.0807  1.2337
   55MOL    H1520643   0.030   2.237   4.245  3.1079 -2.1349 -0.1868
   55MOL    H1620644   0.176   2.271   4.159 -0.0007 -0.4385 -0.5011
   55MOL    H1720645   7.703   2.466   4.279 -2.3401  3.2970 -1.1926
   55MOL    H1820646   7.795   2.617   4.262  1.6060  0.5813 -0.6968
   55MOL    H1920647   7.746   2.539   4.116  1.2576  2.8926 -0.4872
   55MOL    H2020648   0.386   2.627   4.530 -2.8285  1.2627  2.2525
   55MOL    C2120649   0.273   2.307   4.616 -0.0608 -0.2840 -0.3987
   55MOL    C2220650   0.267   2.299   4.767  0.3356 -0.1932 -0.0154
   55MOL    C2320651   0.265   2.153   4.815  0.2817  0.0831  0.4774
   55MOL    O2420652   0.164   2.082   4.801 -0.5667  0.1351 -0.6100
   55MOL    N2520653   0.380   2.111   4.871 -0.0568 -0.2406 -0.2547
   55MOL    C2620654   0.395   1.980   4.945 -0.3028  0.4142  0.2469
   55MOL    C2720655   0.495   2.008   5.058 -0.2627  0.1112  0.3016
   55MOL    C2820656   0.446   1.869   4.861 -0.6783  0.4564 -0.4095
   55MOL    H2920657   0.364   2.258   4.581  1.6323  3.0707 -0.8870
   55MOL    H3020658   0.189   2.249   4.578 -2.0808  2.1474  0.2033
   55MOL    H3120659   0.361   2.337   4.809 -0.4405  0.9145  0.7676
   55MOL    H3220660   0.458   2.175   4.866 -1.0634  1.0914  0.5505
   55MOL    H3320661   0.304   1.948   4.995  0.8586 -1.5206  1.1606
   55MOL    H3420662   0.449   2.079   5.127 -0.1801 -0.3430  0.8207
   55MOL    H3520663   0.587   2.051   5.018 -1.1339 -0.2858 -2.2670
   55MOL    H3620664   0.513   1.918   5.118 -1.5099  0.0587  0.6099
   55MOL    H3720665   0.546   1.884   4.820 -0.5726  0.6065 -0.0930
   55MOL    H3820666   0.437   1.781   4.924 -0.1353  0.3629 -0.4595
   55MOL    H3920667   0.379   1.848   4.777 -1.0512  1.1408 -0.2870
   55MOL    C4020668   0.156   2.389   4.831  0.3790  0.0044 -0.3953
   55MOL    C4120669   0.008   2.332   4.851  0.5443 -0.2018  0.5114
   55MOL    C4220670   7.783   2.291   4.715  0.2418  0.1393 -0.8096
   55MOL    O4320671   7.750   2.380   4.631  0.1997 -0.1042  0.1701
   55MOL    N4420672   7.761   2.158   4.691 -0.6167 -0.2513 -0.6824
   55MOL    C4520673   7.683   2.103   4.576  0.1919  0.8731 -0.0338
   55MOL    C4620674   7.776   2.017   4.486  0.3311 -0.1110 -0.0994
   55MOL    C4720675   7.568   2.026   4.635  0.6931 -0.1722  0.4965
   55MOL    H4820676   0.161   2.497   4.819  0.1715  0.0191 -0.3554
   55MOL    H4920677   0.185   2.404   4.935  2.2759 -0.1188 -0.8872
   55MOL    H5020678   0.013   2.247   4.920 -1.0805 -1.9523 -1.4555
   55MOL    H5120679   7.814   2.097   4.751 -0.3023  1.3294  0.6726
   55MOL    H5220680   7.636   2.183   4.519 -1.0920  1.4607  1.8285
   55MOL    H5320681   7.832   1.948   4.551  0.4500 -0.2482 -0.3477
   55MOL    H5420682   0.008   2.079   4.429  0.9555  2.5373  3.3508
   55MOL    H5520683   7.716   1.962   4.414 -0.4548  0.7331 -0.0959
   55MOL    H5620684   7.508   1.969   4.564  0.0859  3.9328 -2.4598
   55MOL    H5720685   7.496   2.095   4.680 -0.3267 -0.6727 -0.3353
   55MOL    H5820686   7.612   1.960   4.709  2.9537 -0.0192 -0.6916
   55MOL    C5920687   7.754   2.447   4.920 -1.2058 -0.1138 -0.3363
   55MOL    C6020688   7.610   2.408   4.950  0.0272 -0.2851 -0.4244
   55MOL    C6120689   7.506   2.486   4.865  0.4153  0.5831 -0.1783
   55MOL    O6220690   7.473   2.599   4.889 -0.1126 -0.3027 -0.0551
   55MOL    N6320691   7.455   2.421   4.757  0.2315  0.5600  0.2645
   55MOL    C6420692   7.383   2.485   4.657 -0.3361 -0.2845  0.0317
   55MOL    C6520693   7.410   2.417   4.521 -0.0517  0.2603  0.3738
   55MOL    C6620694   7.233   2.481   4.687 -0.0099  0.3294  0.3144
   55MOL    H6720695   7.801   2.481   5.012  0.0545 -2.6354 -0.0027
   55MOL    H6820696   7.752   2.537   4.859 -1.3398 -0.2853 -0.5848
   55MOL    H6920697   7.598   2.301   4.930 -0.0821 -0.6946  1.6888
   55MOL    H7020698   7.503   2.334   4.739 -0.6298  0.3927 -1.3382
   55MOL    H7120699   7.412   2.590   4.659 -3.5994  0.6564  0.7959
   55MOL    H7220700   7.356   2.458   4.436 -1.0450 -1.4245  0.1804
   55MOL    H7320701   7.516   2.423   4.495  0.3162 -0.6321  1.6193
   55MOL    H7420702   7.380   2.313   4.534 -0.4681  0.3402  0.0456
   55MOL    H7520703   7.205   2.541   4.774  1.4938  1.8623 -0.2296
   55MOL    H7620704   7.176   2.525   4.605  0.0378  0.7507  0.5037
   55MOL    H7720705   7.211   2.376   4.702  1.9151 -0.2089 -0.4599
   55MOL    C7820706   7.579   2.409   5.108  0.3458 -0.1685  0.9390
   55MOL    C7920707   7.428   2.405   5.147 -0.2014 -0.0422  0.2784
   55MOL    C8020708   7.379   2.264   5.108 -0.1346  0.6468  0.4383
   55MOL    O8120709   7.453   2.164   5.131 -0.3505  0.2470 -0.2489
   55MOL    N8220710   7.264   2.258   5.036  0.2122  0.6391  0.3987
   55MOL    C8320711   7.174   2.144   5.030 -0.8131 -0.1495  0.2391
   55MOL    C8420712   7.103   2.112   5.160  0.5437 -1.2830 -0.5879
   55MOL    C8520713   7.071   2.170   4.921 -0.7927  0.4108  0.8149
   55MOL    H8620714   7.614   2.500   5.155  0.7823 -0.7984  1.8494
   55MOL    H8720715   7.632   2.319   5.139  1.0359 -0.4870 -1.0509
   55MOL    H8820716   7.376   2.485   5.094  0.3076 -0.0688 -0.2636
   55MOL    H8920717   7.230   2.347   5.002  0.5387  0.8067  0.5155
   55MOL    H9020718   7.232   2.056   5.000  0.3161  0.2502  1.2589
   55MOL    H9120719   7.031   2.030   5.155 -1.1860  0.2559 -1.3827
   55MOL    H9220720   7.159   2.096   5.252 -1.1299 -0.0866  0.6787
   55MOL    H9320721   7.041   2.192   5.199  1.8753  0.2137 -1.5001
   55MOL    H9420722   7.006   2.252   4.949 -2.0677 -1.0944  2.4039
   55MOL    H9520723   7.000   2.087   4.925 -1.7885  1.3744  3.8653
   55MOL    H9620724   7.100   2.189   4.817  2.1909 -3.5281  0.8114
   55MOL    C9720725   7.414   2.405   5.303  0.7079 -0.2098  0.5273
   55MOL    C9820726   7.272   2.402   5.364 -0.1832  0.0102 -0.6249
   55MOL    C9920727   7.191   2.534   5.335  0.5786  0.5791 -0.3165
   55MOL   O10020728   7.232   2.635   5.386  0.3617  0.1418  0.3464
   55MOL   N10120729   7.075   2.524   5.272  0.1887  0.0854  0.7844
   55MOL   C10220730   6.989   2.643   5.247  0.6065  0.5678 -0.1235
   55MOL   C10320731   6.934   2.640   5.100  0.3241 -0.0367 -1.1531
   55MOL   C10420732   6.884   2.652   5.361  0.0440  0.5562 -0.5664
   55MOL   H10520733   7.465   2.496   5.336 -0.0867  0.1387  0.8303
   55MOL   H10620734   7.465   2.319   5.346  1.1937 -1.1299 -1.8598
   55MOL   H10720735   7.212   2.325   5.317 -2.2231  0.2420  1.4905
   55MOL   H10820736   7.045   2.432   5.242 -2.5157  1.5633 -1.2653
   55MOL   H10920737   7.042   2.738   5.256  1.1476  0.3236 -0.7371
   55MOL   H11020738   6.860   2.561   5.089  0.5128 -0.3763 -0.1173
   55MOL   H11120739   6.891   2.737   5.079 -1.9828 -0.5528  0.9017
   55MOL   H11220740   7.012   2.626   5.025  0.2299 -0.0097 -1.2553
   55MOL   H11320741   6.938   2.672   5.453 -0.5700  0.1353 -0.1133
   55MOL   H11420742   6.836   2.556   5.380  0.2214  0.7229  0.7601
   55MOL   H11520743   6.803   2.716   5.329  0.3470  2.3149  2.0714
   55MOL   C11620744   7.284   2.370   5.519 -0.1852 -0.8296  0.3895
   55MOL   C11720745   7.180   2.280   5.571  0.4077 -0.1477 -0.3286
   55MOL   C11820746   7.131   2.315   5.716 -0.3572  0.1185 -0.2463
   55MOL   O11920747   7.189   2.274   5.814 -0.2606  0.1325  0.4091
   55MOL   N12020748   7.031   2.404   5.712 -0.2579 -0.1774  0.1690
   55MOL   C12120749   6.971   2.482   5.814  0.1997  0.7907 -0.8253
   55MOL   C12220750   6.877   2.581   5.750  0.1365 -0.5133 -0.0275
   55MOL   C12320751   6.914   2.393   5.925 -1.2363 -0.1774  0.2679
   55MOL   H12420752   7.282   2.464   5.575  1.8382 -2.6751  3.6808
   55MOL   H12520753   7.378   2.324   5.548 -0.4274 -0.5401  1.6255
   55MOL   H12620754   7.101   2.307   5.501 -0.7591 -2.5270  0.0155
   55MOL   H12720755   6.986   2.417   5.623  1.8137  1.3838 -0.6934
   55MOL   H12820756   7.053   2.536   5.863 -0.6925  1.0893  0.3493
   55MOL   H12920757   6.800   2.531   5.693  0.9833 -1.6612 -0.1914
   55MOL   H13020758   6.942   2.645   5.690  1.2944 -0.6759  1.0169
   55MOL   H13120759   6.837   2.631   5.838 -0.5389 -1.4555  0.2086
   55MOL   H13220760   6.873   2.455   6.005  0.5317  1.1030  0.2124
   55MOL   H13320761   6.832   2.329   5.893 -0.6323 -1.0843  0.5263
   55MOL   H13420762   6.986   2.339   5.987  1.4518  1.2344 -1.5246
   55MOL   C13520763   7.217   2.130   5.558  0.0046  0.4347  0.0415
   55MOL   C13620764   7.111   2.024   5.584  0.1401 -0.8148  0.3699
   55MOL   C13720765   6.960   2.058   5.540 -0.1362 -0.0147  0.7093
   55MOL   O13820766   6.942   2.079   5.419 -0.1828 -0.1624 -0.0336
   55MOL   N13920767   6.857   2.082   5.624 -0.1042  0.5780 -0.5957
   55MOL   C14020768   6.720   2.113   5.586 -0.2924  0.0619 -0.1371
   55MOL   C14120769   6.706   2.262   5.567 -0.3198  0.2104 -0.0769
   55MOL   C14220770   6.629   2.062   5.697  0.1847  0.2243  0.8594
   55MOL   H14320771   7.305   2.101   5.615  0.3892 -1.1485 -1.2991
   55MOL   H14420772   7.252   2.120   5.455  1.6841  0.8470  0.5488
   55MOL   H14520773   7.101   2.019   5.693 -0.1222  2.8180  0.5858
   55MOL   H14620774   6.860   2.049   5.720 -0.2912  1.8558 -0.1375
   55MOL   H14720775   6.687   2.071   5.491 -1.8215  0.8567  0.0257
   55MOL   H14820776   6.723   2.316   5.661  0.7633 -0.5950  0.1988
   55MOL   H14920777   6.767   2.304   5.487  1.3090 -0.2818  0.8707
   55MOL   H15020778   6.602   2.280   5.539 -0.6123  1.2655  1.5905
   55MOL   H15120779   6.651   1.956   5.706 -0.7542  0.0332  0.9304
   55MOL   H15220780   6.525   2.066   5.664  0.1310  0.8666  1.0988
   55MOL   H15320781   6.657   2.104   5.794 -0.0588  3.7718 -0.5087
   55MOL   C15420782   7.153   1.885   5.536  0.2429 -0.1247 -0.3085
   55MOL   C15520783   7.070   1.761   5.585 -0.2051 -0.3965  0.0772
   55MOL   C15620784   7.047   1.765   5.736 -0.4832  0.0652  0.3098
   55MOL   O15720785   7.138   1.756   5.817  0.2273 -0.0256 -0.1051
   55MOL   N15820786   6.922   1.793   5.763  0.4461 -0.5788 -0.5053
   55MOL   C15920787   6.866   1.779   5.899 -0.4522 -0.4359  0.4380
   55MOL   C16020788   6.719   1.741   5.910  0.2563  0.2955 -0.0164
   55MOL   C16120789   6.885   1.910   5.967 -0.3663 -0.1747  0.2235
   55MOL   H16220790   7.255   1.888   5.573  0.3932 -1.3950 -0.6069
   55MOL   H16320791   7.175   1.886   5.429  1.0909  0.8324 -0.1289
   55MOL   H16420792   6.977   1.765   5.529  2.2345  0.0033 -4.1118
   55MOL   H16520793   6.856   1.810   5.688 -0.2451  0.4500  0.3343
   55MOL   H16620794   6.920   1.700   5.951  2.2092 -0.1284 -1.7028
   55MOL   H16720795   6.679   1.735   6.011 -1.8857 -3.2479 -1.0231
   55MOL   H16820796   6.648   1.812   5.867 -0.5325 -0.1741  0.4990
   55MOL   H16920797   6.705   1.647   5.858 -0.3629  0.6422 -0.4817
   55MOL   H17020798   6.858   1.907   6.073  1.3707 -0.8433  0.6750
   55MOL   H17120799   6.818   1.986   5.926  1.0912  0.3038 -1.3351
   55MOL   H17220800   6.989   1.942   5.969 -1.1702  2.4712  0.7007
   55MOL   C17320801   7.131   1.632   5.532 -0.5031 -0.5427  0.1248
   55MOL   C17420802   7.055   1.502   5.575 -0.2867 -0.2664  0.1273
   55MOL   C17520803   6.905   1.493   5.522 -0.5059 -0.1159  0.9470
   55MOL   O17620804   6.869   1.512   5.401  0.1246  0.0736 -0.0371
   55MOL   N17720805   6.817   1.459   5.618 -0.6336  0.7154 -0.3958
   55MOL   C17820806   6.686   1.405   5.586  0.1173  0.2305 -1.7324
   55MOL   C17920807   6.582   1.480   5.679 -0.5823 -0.9420 -0.0765
   55MOL   C18020808   6.672   1.252   5.618 -0.5829  0.4688 -0.7943
   55MOL   H18120809   7.233   1.623   5.568 -0.0749  1.6235 -0.4862
   55MOL   H18220810   7.142   1.628   5.423 -0.6983 -0.9061  0.1144
   55MOL   H18320811   7.051   1.505   5.684  2.6510 -2.6099  0.3444
   55MOL   H18420812   6.853   1.427   5.706 -1.1482  0.8411 -0.1382
   55MOL   H18520813   6.655   1.423   5.483  1.7321 -1.7800 -2.6068
   55MOL   H18620814   6.591   1.447   5.782  0.1749 -0.6683 -0.0485
   55MOL   H18720815   6.477   1.472   5.652 -0.3343 -2.3497 -0.6850
   55MOL   H18820816   6.606   1.586   5.686 -0.9765 -0.9867  1.9932
   55MOL   H18920817   6.580   1.205   5.585 -0.1676 -0.3032 -0.8672
   55MOL   H19020818   6.679   1.248   5.727  2.3681 -0.6580 -0.9688
   55MOL   H19120819   6.752   1.189   5.580  0.2474 -0.3958  2.2835
   55MOL   C19220820   7.138   1.376   5.549  0.0610 -0.0752 -0.4826
   55MOL   C19320821   7.154   1.281   5.673  0.0446  0.3707 -0.3606
   55MOL   C19420822   7.277   1.320   5.763  1.1516  0.1965 -0.7674
   55MOL   O19520823   7.362   1.237   5.792  0.0766  0.1259 -0.2624
   55MOL   N19620824   7.280   1.446   5.811  0.6250 -0.5826  0.0925
   55MOL   C19720825   7.353   1.503   5.919 -0.6428  0.0976  0.1905
   55MOL   C19820826   7.289   1.465   6.057 -0.0002  0.1064  0.3971
   55MOL   C19920827   7.501   1.473   5.904  0.4033  0.6361 -0.1962
   55MOL   H20020828   7.240   1.405   5.521  1.7565 -1.5809  3.6480
   55MOL   H20120829   7.097   1.328   5.460  0.7389  0.2838 -0.9958
   55MOL   H20220830   7.064   1.291   5.733  0.5514  1.8256  0.2028
   55MOL   H20320831   7.213   1.504   5.765  1.4389  0.7148  0.5230
   55MOL   H20420832   7.338   1.610   5.904 -1.4017  0.1720  1.4017
   55MOL   H20520833   7.338   1.382   6.109  0.5922  1.5657  2.2402
   55MOL   H20620834   7.182   1.446   6.045  0.2536 -1.3540  0.4125
   55MOL   H20720835   7.295   1.553   6.122  2.7228 -0.3366  0.7882
   55MOL   H20820836   7.522   1.371   5.935 -3.0567  0.5392  2.1057
   55MOL   H20920837   7.559   1.545   5.961  0.5189  0.1744  0.2669
   55MOL   H21020838   7.534   1.465   5.800  1.0143 -1.7081  0.1520
   55MOL   C21120839   7.160   1.137   5.629 -0.8768  0.7300 -0.7510
   55MOL   C21220840   7.117   1.029   5.741  0.0667 -0.1341 -0.0731
   55MOL   C21320841   6.974   1.048   5.789 -0.0034 -0.1161  0.2267
   55MOL   O21420842   6.875   1.034   5.722  0.1986 -0.3007  0.8576
   55MOL   N21520843   6.966   1.067   5.922  0.2897 -0.1520  0.6830
   55MOL   C21620844   6.853   1.081   6.011  0.6660  0.2988  0.0927
   55MOL   C21720845   6.814   1.224   6.039  0.0096  0.5048  0.1781
   55MOL   C21820846   6.889   1.010   6.143 -0.3562 -0.2049  0.3782
   55MOL   H21920847   7.255   1.113   5.582  0.0969  0.0386  1.4883
   55MOL   H22020848   7.078   1.135   5.557 -0.7479  0.3076 -0.8859
   55MOL   H22120849   7.182   1.048   5.826 -0.6498 -1.0044  0.6807
   55MOL   H22220850   7.059   1.071   5.961  0.1379 -1.8229  1.2298
   55MOL   H22320851   6.770   1.026   5.965  1.8646 -1.2507 -0.2549
   55MOL   H22420852   6.735   1.230   6.114 -2.1625 -1.2173 -1.9302
   55MOL   H22520853   6.904   1.278   6.070  0.5699  0.2445 -0.9674
   55MOL   H22620854   6.778   1.266   5.946  0.0190 -1.0898 -0.5489
   55MOL   H22720855   6.808   1.003   6.216 -0.1464 -1.2972  0.5111
   55MOL   H22820856   6.964   1.066   6.198  0.2694 -0.5058 -0.1718
   55MOL   H22920857   6.911   0.904   6.133 -0.3264 -0.2372  0.7831
   55MOL   C23020858   7.148   0.878   5.694 -0.0182  0.3659 -0.2861
   55MOL   C23120859   7.299   0.850   5.689 -0.4482  0.5264 -0.3224
   55MOL   C23220860   7.349   0.836   5.833 -0.4339 -0.1754  0.4045
   55MOL   O23320861   7.344   0.731   5.893  0.0595  0.4441 -0.0408
   55MOL   N23420862   7.389   0.944   5.900  0.0484  0.3385 -0.2855
   55MOL   C23520863   7.441   0.953   6.033 -0.2663  0.3248 -0.1801
   55MOL   C23620864   7.535   1.075   6.040  0.5210  0.3140  0.7498
   55MOL   C23720865   7.321   0.959   6.134  0.4580  0.2658 -0.7558
   55MOL   H23820866   7.105   0.850   5.598  0.4158 -2.4092  0.2755
   55MOL   H23920867   7.112   0.812   5.774  2.4506 -0.3830  0.2815
   55MOL   H24020868   7.351   0.938   5.649  1.7704  0.1680  1.6759
   55MOL   H24120869   7.394   1.022   5.837  2.3199 -1.3639 -2.3147
   55MOL   H24220870   7.509   0.868   6.043 -0.2145  0.3237 -0.5466
   55MOL   H24320871   7.604   1.074   5.956  1.3911 -2.5285  1.4352
   55MOL   H24420872   7.467   1.159   6.054  1.8930  1.5725  0.1018
   55MOL   H24520873   7.598   1.081   6.129  0.6365 -2.0213  0.8587
   55MOL   H24620874   7.272   1.055   6.121  1.7582  0.8850 -1.2156
   55MOL   H24720875   7.342   0.947   6.240 -2.9082  2.6167  0.2551
   55MOL   H24820876   7.251   0.876   6.125  0.7652 -0.1430  0.6066
   55MOL   C24920877   7.341   0.724   5.598 -0.3122 -0.3246 -0.0442
   55MOL   C25020878   7.482   0.678   5.593 -0.0133  0.3067 -0.3341
   55MOL   C25120879   7.573   0.799   5.561 -0.0393  0.0531  0.4530
   55MOL   O25220880   7.568   0.852   5.451 -0.9010 -0.8001 -0.1664
   55MOL   N25320881   7.653   0.838   5.659 -0.4817  0.5466  0.9130
   55MOL   C25420882   7.742   0.956   5.659  0.4088 -0.0317 -0.1705
   55MOL   C25520883   7.673   1.092   5.656 -0.2105 -0.1104  0.2760
   55MOL   C25620884   0.012   0.942   5.767  0.0971 -0.2412 -0.0995
   55MOL   H25720885   7.309   0.736   5.494 -1.2245  0.0556  0.2733
   55MOL   H25820886   7.288   0.634   5.629 -0.6724 -1.2148 -3.1101
   55MOL   H25920887   7.504   0.636   5.691  0.1458  1.1079 -0.0243
   55MOL   H26020888   7.648   0.788   5.746  1.0612 -1.5166 -0.1405
   55MOL   H26120889   7.808   0.936   5.574  0.2563  2.3369 -0.8671
   55MOL   H26220890   7.621   1.111   5.562 -0.3465  2.7000  0.8876
   55MOL   H26320891   7.603   1.124   5.733 -0.2997 -2.3302  1.1432
   55MOL   H26420892   7.759   1.157   5.671 -0.7701  0.7249 -0.0930
   55MOL   H26520893   0.058   0.843   5.770 -0.9850 -0.7144  3.1560
   55MOL   H26620894   0.086   1.020   5.749 -0.3496 -0.3348 -2.5198
   55MOL   H26720895   7.797   0.961   5.861 -0.0503  0.2274 -0.2723
   55MOL   C26820896   7.494   0.556   5.498  0.5378 -0.5407  0.3043
   55MOL   C26920897   7.606   0.459   5.537 -1.1462  0.6271  0.6685
   55MOL   C27020898   7.599   0.334   5.447 -0.1539  0.5195 -0.3448
   55MOL   O27120899   7.578   0.358   5.329  0.6556  0.3420  0.0390
   55MOL   N27220900   7.610   0.213   5.504 -0.0689  0.5379  0.5093
   55MOL   C27320901   7.591   0.089   5.435  0.0361 -0.1157 -0.1668
   55MOL   C27420902   7.726   0.017   5.415  0.1444  0.5366  0.8397
   55MOL   C27520903   7.482   0.013   5.511  0.6025  0.0807  0.0466
   55MOL   H27620904   7.400   0.502   5.497  0.0424  0.3132  0.4134
   55MOL   H27720905   7.526   0.596   5.402  0.4238  1.2969  1.0155
   55MOL   H27820906   7.584   0.423   5.637 -1.6232 -2.1156 -0.3775
   55MOL   H27920907   7.638   0.209   5.601  1.0972  0.8446  0.1978
   55MOL   H28020908   7.547   0.107   5.337  1.8358 -0.6856 -1.0945
   55MOL   H28120909   7.799   0.079   5.364 -0.3309  1.9255  1.8317
   55MOL   H28220910   7.765   7.824   5.512 -0.4110  1.1137  1.2362
   55MOL   H28320911   7.710   7.759   5.362  1.6972  0.3317  0.6904
   55MOL   H28420912   7.510   7.823   5.613  0.7125  0.7703  0.1991
   55MOL   H28520913   7.382   0.056   5.505  0.9822  0.9550 -0.0041
   55MOL   H28620914   7.465   7.749   5.472  0.5489  0.3381 -0.6093
   55MOL   C28720915   7.750   0.515   5.527  0.0948  0.1097  0.4735
   55MOL   C28820916   0.018   0.452   5.623  0.1528 -0.1647  0.3664
   55MOL   C28920917   0.011   0.503   5.767  0.4677  0.2692  0.4392
   55MOL   O29020918   7.759   0.580   5.804  0.0226  0.3632  0.6326
   55MOL   N29120919   0.109   0.471   5.852 -0.4589  0.0714 -0.1422
   55MOL   C29220920   0.117   0.496   5.997 -0.3287 -0.1007  0.8541
   55MOL   C29320921   0.158   0.361   6.058  0.6776 -0.0260  0.0297
   55MOL   C29420922   0.212   0.607   6.041  0.3164  0.4419 -0.7615
   55MOL   H29520923   7.785   0.506   5.424  0.4710  1.5869  0.4558
   55MOL   H29620924   7.761   0.621   5.550  1.6609  0.1782 -0.4649
   55MOL   H29720925   0.003   0.345   5.615 -2.6887  0.2917 -0.7918
   55MOL   H29820926   0.189   0.437   5.801  0.1446  1.6595 -0.3018
   55MOL   H29920927   0.016   0.516   6.032 -0.5459  0.6864 -0.2030
   55MOL   H30020928   0.087   0.281   6.038 -0.5585  1.4142 -1.3988
   55MOL   H30120929   0.260   0.334   6.027 -0.6519 -2.2069 -2.6605
   55MOL   H30220930   0.162   0.372   6.167  3.4987  2.3646 -0.2663
   55MOL   H30320931   0.214   0.635   6.146 -2.1617 -0.4059 -0.4410
   55MOL   H30420932   0.313   0.571   6.022  0.2460 -1.4658  2.0761
   55MOL   H30520933   0.202   0.696   5.979 -1.8066  0.7971  0.0355
   55MOL   C30620934   0.159   0.492   5.571  0.1484  0.7000  0.0284
   55MOL   C30720935   0.250   0.380   5.518  0.1781 -0.6422 -0.0777
   55MOL   C30820936   0.293   0.278   5.627  0.1759  0.5827  0.5521
   55MOL   O30920937   0.330   0.322   5.735 -0.0427 -0.5479  0.0442
   55MOL   N31020938   0.291   0.146   5.597  0.1626 -0.5257  0.6081
   55MOL   C31120939   0.304   0.037   5.692  0.4036 -0.4117 -0.1660
   55MOL   C31220940   0.171   0.010   5.765  0.0967  0.2615 -0.2440
   55MOL   C31320941   0.365   7.749   5.622  0.4417 -0.0865 -0.1903
   55MOL   H31420942   0.151   0.573   5.498 -0.8284  0.8546  0.3026
   55MOL   H31520943   0.214   0.546   5.648 -0.5312  0.3407  0.7600
   55MOL   H31620944   0.189   0.318   5.453 -0.3752 -1.2568  1.0067
   55MOL   H31720945   0.269   0.117   5.502  1.3602 -0.7063  0.3698
   55MOL   H31820946   0.382   0.064   5.763 -1.0523  1.8790  0.6286
   55MOL   H31920947   0.205   7.787   5.850  2.2971  0.2625 -1.0989
   55MOL   H32020948   0.105   7.781   5.707  1.3804 -1.9760  0.7693
   55MOL   H32120949   0.117   0.100   5.793  0.2432  0.4533 -0.5750
   55MOL   H32220950   0.289   7.704   5.558 -0.7457 -0.0075  1.1372
   55MOL   H32320951   0.393   7.677   5.699  0.5035 -0.0717 -0.1980
   55MOL   H32420952   0.456   7.774   5.568  1.0607 -3.3123 -0.7437
   55MOL   C32520953   0.375   0.439   5.448  0.4128 -0.4816 -0.8791
   55MOL   C32620954   0.351   0.470   5.299 -0.0356  0.2303 -0.2209
   55MOL   C32720955   0.336   0.617   5.290  0.2108  0.4397 -0.8118
   55MOL   O32820956   0.421   0.701   5.325  0.2188  0.7034  0.0648
   55MOL   N32920957   0.221   0.644   5.225  0.3827 -0.5053  0.7740
   55MOL   C33020958   0.153   0.769   5.201 -0.3661 -1.4747  0.2597
   55MOL   C33120959   0.050   0.806   5.307 -0.7573 -0.6480  0.5817
   55MOL   C33220960   0.075   0.756   5.076  0.3523  0.2385 -0.2139
   55MOL   H33320961   0.453   0.363   5.459 -1.0206 -1.6286  1.7950
   55MOL   H33420962   0.415   0.519   5.511  2.8193 -1.5136 -1.0327
   55MOL   H33520963   0.257   0.426   5.266 -1.1055  1.2232  1.4078
   55MOL   H33620964   0.174   0.559   5.199  0.5952 -0.4278  0.1179
   55MOL   H33720965   0.235   0.842   5.193 -0.9798 -1.0370 -2.6431
   55MOL   H33820966   0.100   0.826   5.401  0.2205 -2.8758  0.5803
   55MOL   H33920967   7.832   0.897   5.284 -1.1665 -0.9540  0.3266
   55MOL   H34020968   7.818   0.722   5.321 -0.5554 -0.6257  1.7579
   55MOL   H34120969   0.132   0.764   4.984  1.2006  1.4574  0.4091
   55MOL   H34220970   7.833   0.831   5.065 -0.0688 -0.3464 -1.2361
   55MOL   H34320971   0.025   0.660   5.061  0.2574  0.1051  0.8930
   55MOL   C34420972   0.459   0.419   5.200  0.3689  0.1809 -0.1266
   55MOL   C34520973   0.482   0.268   5.182 -0.5080  0.1714  0.2540
   55MOL   C34620974   0.584   0.208   5.290 -0.8903  0.4975 -0.8121
   55MOL   O34720975   0.541   0.135   5.377 -0.2227  0.1276  0.1081
   55MOL   N34820976   0.709   0.237   5.284 -0.7285 -0.0344 -0.0752
   55MOL   C34920977   0.816   0.196   5.378  0.5090  0.7571  0.2792
   55MOL   C35020978   0.932   0.131   5.307 -0.9206 -0.0459 -0.3996
   55MOL   C35120979   0.863   0.316   5.461 -0.4361 -1.5366 -0.5480
   55MOL   H35220980   0.552   0.471   5.226 -1.2855  3.8278 -1.2128
   55MOL   H35320981   0.441   0.462   5.102  0.4606 -1.0744 -0.7104
   55MOL   H35420982   0.549   0.266   5.096 -0.0193 -0.4078  0.6414
   55MOL   H35520983   0.741   0.284   5.201 -0.4940  0.1109  0.0969
   55MOL   H35620984   0.771   0.128   5.450 -1.1314  1.0818 -0.4097
   55MOL   H35720985   0.899   0.034   5.270  1.6023 -0.5654 -1.3600
   55MOL   H35820986   0.976   0.177   5.219  5.1011 -1.1198  1.8260
   55MOL   H35920987   1.007   0.107   5.382 -0.9161  1.1522 -0.0124
   55MOL   H36020988   0.915   0.392   5.403 -0.1530 -0.7432  0.7135
   55MOL   H36120989   0.777   0.369   5.503  1.0055 -0.0126  0.5566
   55MOL   H36220990   0.928   0.288   5.543  0.8096 -2.2051 -1.7478
   55MOL   C36320991   0.352   0.192   5.157 -0.3934 -0.0439  0.3555
   55MOL   C36420992   0.270   0.218   5.027  0.1088 -0.3826  0.0439
   55MOL   C36520993   0.131   0.276   5.047  0.2725 -0.3497  0.0867
   55MOL   O36620994   0.120   0.396   5.071  0.7171  0.2475  0.1907
   55MOL   N36720995   0.029   0.185   5.038  0.0168  0.5016 -0.0411
   55MOL   C36820996   7.734   0.203   5.088 -0.3906  0.0983 -0.2943
   55MOL   C36920997   7.661   0.334   5.038 -0.0727  0.2805  0.2314
   55MOL   C37020998   7.649   0.078   5.062 -0.4753 -0.1427 -0.0775
   55MOL   H37120999   0.282   0.198   5.240  2.3007 -0.1173  2.7148
   55MOL   H37221000   0.373   0.085   5.162  0.8322  0.1055 -1.2649
   55MOL   H37321001   0.263   0.128   4.965  2.4175 -0.3167 -0.3442
   55MOL   H37421002   0.047   0.087   5.020 -2.6144  0.0986 -0.7399
   55MOL   H37521003   7.758   0.205   5.194  2.3241 -0.7790 -0.8520
   55MOL   H37621004   7.696   0.413   5.104  0.8858 -0.1531  0.2498
   55MOL   H37721005   7.679   0.363   4.934 -0.3851 -1.1826 -0.2403
   55MOL   H37821006   7.552   0.338   5.046 -0.1623  2.4263 -1.4484
   55MOL   H37921007   7.698   7.830   5.111  0.6262  0.5817  0.0774
   55MOL   H38021008   7.547   0.085   5.100 -1.4117 -1.4829 -2.2039
   55MOL   H38121009   7.624   0.052   4.959 -0.4659 -1.2686  0.1979
   55MOL   H38221010   0.319   0.288   4.959 -0.7618  2.3552  2.1657
   56MOL     C121011   7.801   3.855   6.846 -0.2525  0.7767  0.7149
   56MOL     C221012   0.078   3.768   6.791 -0.0451 -0.8020  0.3146
   56MOL     C321013   0.198   3.860   6.755  0.3067  0.1138  0.4027
   56MOL     O421014   0.203   3.977   6.787  0.2122 -0.4412 -0.1250
   56MOL     N521015   0.292   3.798   6.681 -0.2636  0.1698  0.6595
   56MOL     C621016   0.423   3.843   6.640 -0.1549  0.3749  0.4315
   56MOL     C721017   0.509   3.717   6.601 -0.1494 -0.1650 -0.1949
   56MOL     C821018   0.404   3.936   6.519 -0.1009  0.3448 -0.3799
   56MOL     H921019   7.736   3.885   6.763  0.8056 -0.2705 -0.5224
   56MOL    H1021020   7.836   3.934   6.912  1.9263 -0.3205  0.9094
   56MOL    H1121021   0.039   3.719   6.701 -1.5905  1.1513 -0.1222
   56MOL    H1221022   0.254   3.715   6.638 -0.3056  0.3944  0.2499
   56MOL    H1321023   0.472   3.893   6.723  0.5268 -0.7684  0.7362
   56MOL    H1421024   0.554   3.666   6.686 -1.2839  1.9702  1.7153
   56MOL    H1521025   0.591   3.753   6.539  0.0023 -2.2918 -1.2904
   56MOL    H1621026   0.455   3.646   6.538 -2.1896  0.9001  0.3332
   56MOL    H1721027   0.403   3.882   6.425 -2.1766  0.2426 -0.3328
   56MOL    H1821028   0.321   4.007   6.527  0.6628  1.2625 -0.5601
   56MOL    H1921029   0.497   3.993   6.510  1.9591 -2.6310  1.4913
   56MOL    H2021030   7.745   3.796   6.918  1.1229 -0.3839  0.8345
   56MOL    C2121031   0.124   3.661   6.897 -0.0687  0.3582 -0.3498
   56MOL    C2221032   0.098   3.519   6.859  0.2433  0.1156  0.9572
   56MOL    C2321033   0.191   3.474   6.754 -0.4875  0.2070 -0.2535
   56MOL    O2421034   0.195   3.517   6.640 -0.3871 -0.3265  0.3750
   56MOL    N2521035   0.272   3.381   6.797  0.0601 -0.0643 -0.5728
   56MOL    C2621036   0.375   3.319   6.709  0.2596  0.4343 -0.3412
   56MOL    C2721037   0.301   3.221   6.619 -0.0129 -0.0619 -0.7883
   56MOL    C2821038   0.485   3.252   6.790 -0.5315 -0.1893  0.2161
   56MOL    H2921039   0.080   3.673   6.996  0.8721  0.1789  0.0975
   56MOL    H3021040   0.231   3.660   6.918  0.1752 -0.8825 -1.5745
   56MOL    H3121041   0.121   3.467   6.953 -0.1042 -1.3472  0.2476
   56MOL    H3221042   0.278   3.337   6.888 -0.1865  0.8350 -0.1137
   56MOL    H3321043   0.423   3.398   6.652  1.9685  1.2785  2.1703
   56MOL    H3421044   0.217   3.263   6.564 -0.9878  0.8353  1.3457
   56MOL    H3521045   0.259   3.144   6.683 -0.8041  1.4715  0.5904
   56MOL    H3621046   0.372   3.187   6.544 -0.2327 -2.0007 -0.1291
   56MOL    H3721047   0.556   3.212   6.718 -1.7821  1.1345 -1.8281
   56MOL    H3821048   0.520   3.333   6.854 -0.0879  0.2250 -0.5472
   56MOL    H3921049   0.452   3.163   6.844 -1.5556 -0.5161 -0.9210
   56MOL    C4021050   7.785   3.489   6.818  0.7825 -0.2646 -0.1287
   56MOL    C4121051   7.739   3.352   6.877  0.1293  0.0351  0.3448
   56MOL    C4221052   7.795   3.226   6.808  0.1769 -0.2185  0.4123
   56MOL    O4321053   7.814   3.214   6.686 -0.7857 -0.2608  0.6064
   56MOL    N4421054   7.823   3.125   6.891 -0.1916 -0.1106 -0.4478
   56MOL    C4521055   0.037   2.991   6.863 -0.0332 -1.2064 -0.1272
   56MOL    C4621056   0.096   2.933   6.986  0.9106  0.3123 -0.0028
   56MOL    C4721057   7.767   2.893   6.812 -0.2223  0.4738  0.0908
   56MOL    H4821058   7.782   3.494   6.709 -0.9620 -1.1136 -0.1389
   56MOL    H4921059   7.719   3.569   6.853 -0.7067 -1.8834  0.8101
   56MOL    H5021060   7.780   3.348   6.978 -0.1319 -1.3739  0.4021
   56MOL    H5121061   7.808   3.127   6.991  0.8073  0.3737 -0.2966
   56MOL    H5221062   0.110   2.998   6.783  1.4334 -0.3469  1.2612
   56MOL    H5321063   0.134   2.832   6.974  0.0622 -0.0692  0.5236
   56MOL    H5421064   0.018   2.915   7.061  0.6956  0.1649 -0.2611
   56MOL    H5521065   0.181   2.991   7.022  2.0650 -1.7140  0.6010
   56MOL    H5621066   7.695   2.871   6.890 -0.3633  2.2802  0.4769
   56MOL    H5721067   7.818   2.804   6.775  0.9470  1.1390  0.0870
   56MOL    H5821068   7.719   2.933   6.722  0.8933  0.6877 -0.4229
   56MOL    C5921069   7.587   3.342   6.890  0.0941  0.7510 -0.7290
   56MOL    C6021070   7.504   3.356   6.757 -0.3503 -0.2341  0.3097
   56MOL    C6121071   7.371   3.413   6.799  0.2450  0.3159 -0.4620
   56MOL    O6221072   7.313   3.366   6.898 -0.4764  0.0012 -0.5741
   56MOL    N6321073   7.332   3.524   6.745 -0.0628 -0.1568 -0.0039
   56MOL    C6421074   7.237   3.625   6.787  0.4064  0.1273 -0.6271
   56MOL    C6521075   7.268   3.768   6.735  0.7690 -0.0341 -0.5830
   56MOL    C6621076   7.101   3.574   6.733  1.0356  0.4085  0.4783
   56MOL    H6721077   7.559   3.252   6.944  1.0349  1.4042  0.8765
   56MOL    H6821078   7.554   3.417   6.962 -0.9037 -0.6796  0.3342
   56MOL    H6921079   7.558   3.431   6.699  1.4354 -2.7810 -1.4200
   56MOL    H7021080   7.389   3.552   6.667  3.9969  0.6444  3.0743
   56MOL    H7121081   7.236   3.632   6.896 -1.7634  1.4859 -0.7190
   56MOL    H7221082   7.357   3.805   6.785 -0.1736  1.0261  0.3502
   56MOL    H7321083   7.288   3.745   6.630  0.6191 -0.7368 -0.4539
   56MOL    H7421084   7.180   3.832   6.744  0.9454 -0.0115  1.0157
   56MOL    H7521085   7.016   3.640   6.754 -0.0475 -0.8008 -0.0112
   56MOL    H7621086   7.108   3.554   6.626  0.5089  0.0660  0.5037
   56MOL    H7721087   7.080   3.475   6.775  1.4921  0.6879  1.3497
   56MOL    C7821088   7.488   3.229   6.664  0.8345 -0.0808  0.2188
   56MOL    C7921089   7.441   3.260   6.520  0.1287 -0.4850  0.1987
   56MOL    C8021090   7.552   3.312   6.425 -0.8740 -0.1953 -0.3376
   56MOL    O8121091   7.516   3.351   6.311 -0.6695 -0.5246 -0.4421
   56MOL    N8221092   7.676   3.336   6.470  0.2116 -0.1597 -0.0829
   56MOL    C8321093   7.777   3.409   6.393 -1.0119 -0.1480 -0.2619
   56MOL    C8421094   7.809   3.365   6.251  0.2688 -0.4043 -0.5447
   56MOL    C8521095   7.761   3.565   6.397  0.4899 -0.2554 -0.3154
   56MOL    H8621096   7.416   3.162   6.710 -1.5166  2.8160  0.9135
   56MOL    H8721097   7.581   3.172   6.656  0.2479 -1.0374  0.2249
   56MOL    H8821098   7.370   3.341   6.534 -0.2673 -1.0243  1.3823
   56MOL    H8921099   7.701   3.292   6.558  2.4748 -0.0113 -0.6142
   56MOL    H9021100   0.035   3.382   6.439 -0.2100  0.8559 -1.2908
   56MOL    H9121101   7.823   3.257   6.249  0.9927 -0.3300  0.5272
   56MOL    H9221102   7.744   3.395   6.169 -0.8212 -2.1460 -0.3495
   56MOL    H9321103   0.074   3.386   6.217  0.5147  0.8641  0.8980
   56MOL    H9421104   7.686   3.598   6.326 -0.8940 -0.1746  1.1754
   56MOL    H9521105   0.022   3.605   6.367  0.3236  0.1813 -0.2700
   56MOL    H9621106   7.747   3.591   6.502 -1.0195  0.1939 -0.6251
   56MOL    C9721107   7.373   3.125   6.464  0.1737 -0.4692  1.0736
   56MOL    C9821108   7.292   3.126   6.327  0.4267 -0.2978 -0.4098
   56MOL    C9921109   7.189   3.241   6.324  0.1034  0.3822 -0.1364
   56MOL   O10021110   7.071   3.220   6.362 -0.4802 -0.2857 -0.1860
   56MOL   N10121111   7.235   3.350   6.262 -0.3423  0.0868  0.4739
   56MOL   C10221112   7.156   3.464   6.208 -0.4407  0.7334 -0.1696
   56MOL   C10321113   7.151   3.567   6.320 -0.0727  0.1113  0.0451
   56MOL   C10421114   7.208   3.532   6.081  0.2049  0.4678  0.0273
   56MOL   H10521115   7.296   3.095   6.535 -1.8134  0.8109 -0.4901
   56MOL   H10621116   7.451   3.048   6.460  1.0287  0.4227  0.2106
   56MOL   H10721117   7.355   3.152   6.242  0.4352 -2.0797 -0.9733
   56MOL   H10821118   7.331   3.343   6.233 -0.0131 -0.1579  1.5778
   56MOL   H10921119   7.059   3.420   6.184  0.3628 -1.1603  0.0066
   56MOL   H11021120   7.139   3.518   6.417 -0.4280  0.0929 -0.0046
   56MOL   H11121121   7.240   3.629   6.333 -1.3499  1.5462  2.5965
   56MOL   H11221122   7.073   3.642   6.301  0.4934  0.7402  0.1682
   56MOL   H11321123   7.165   3.625   6.045 -0.5562  0.4980  0.9823
   56MOL   H11421124   7.217   3.461   6.000 -2.6364 -0.5224  0.5174
   56MOL   H11521125   7.315   3.548   6.095  0.5438  0.8896 -2.8295
   56MOL   C11621126   7.237   2.989   6.263 -0.5510 -0.0093  0.0763
   56MOL   C11721127   7.104   2.930   6.314 -0.5425  0.3969  0.3337
   56MOL   C11821128   7.106   2.900   6.468  0.1946 -0.0959  0.2510
   56MOL   O11921129   7.169   2.801   6.508  0.6008 -0.3185 -0.5098
   56MOL   N12021130   7.055   2.995   6.545  0.4735 -0.6819 -0.2451
   56MOL   C12121131   7.061   3.005   6.691  0.4333  0.1865 -0.5305
   56MOL   C12221132   7.014   3.140   6.734 -0.0090 -1.5221  0.5677
   56MOL   C12321133   6.958   2.905   6.741  0.3266  0.5878 -0.1240
   56MOL   H12421134   7.321   2.920   6.278  1.2951  1.6586 -2.2082
   56MOL   H12521135   7.222   2.996   6.155  1.5021  4.0245 -0.0324
   56MOL   H12621136   7.018   2.988   6.280 -1.5391 -1.0482  0.3302
   56MOL   H12721137   7.016   3.074   6.496 -0.4070 -0.1670  1.2554
   56MOL   H12821138   7.165   2.985   6.716 -0.2000 -1.7465  0.7286
   56MOL   H12921139   6.928   3.168   6.674  0.1812  2.2314  1.9094
   56MOL   H13021140   7.083   3.224   6.739 -2.4785  0.7263 -1.9570
   56MOL   H13121141   6.974   3.137   6.835 -1.7463  2.1340  0.0528
   56MOL   H13221142   6.863   2.931   6.696  1.1908  0.7308 -1.9468
   56MOL   H13321143   6.971   2.805   6.698  0.0472  0.6558 -0.3667
   56MOL   H13421144   6.943   2.905   6.849 -1.7717 -0.1405 -0.3965
   56MOL   C13521145   7.065   2.798   6.236  0.2683  0.5705  0.6548
   56MOL   C13621146   7.178   2.685   6.240 -0.3728  0.0000  0.7644
   56MOL   C13721147   7.118   2.549   6.284 -0.1817  0.4017 -0.0218
   56MOL   O13821148   7.049   2.475   6.211 -0.1255  0.0250 -0.6553
   56MOL   N13921149   7.153   2.514   6.407 -0.0113  0.4013  0.1254
   56MOL   C14021150   7.091   2.415   6.491  0.4647  0.4095 -0.1898
   56MOL   C14121151   7.019   2.487   6.603  0.2794  0.3566  0.2497
   56MOL   C14221152   7.194   2.308   6.548  0.0858  0.1465  0.7027
   56MOL   H14321153   7.024   2.806   6.135 -1.3494 -1.2716  1.1261
   56MOL   H14421154   6.974   2.767   6.289 -1.1006  2.6828 -0.3822
   56MOL   H14521155   7.258   2.700   6.312  0.1006 -0.2966  0.3068
   56MOL   H14621156   7.206   2.580   6.462 -0.9792  0.7181  0.7097
   56MOL   H14721157   7.020   2.355   6.434  1.0839  1.6022 -2.2265
   56MOL   H14821158   6.972   2.414   6.669 -1.4797  0.0928 -1.2238
   56MOL   H14921159   7.092   2.542   6.662  0.8461 -0.0677 -0.0573
   56MOL   H15021160   6.955   2.565   6.561  0.3031  0.8380  1.1134
   56MOL   H15121161   7.269   2.347   6.618  0.5884 -2.6249  1.7514
   56MOL   H15221162   7.241   2.256   6.465 -0.4227 -0.4571  0.7891
   56MOL   H15321163   7.144   2.229   6.604 -0.3181 -0.1494 -0.0721
   56MOL   C15421164   7.247   2.666   6.098 -0.0523 -0.5715  0.3764
   56MOL   C15521165   7.382   2.584   6.122  0.3667 -0.4495  0.3514
   56MOL   C15621166   7.491   2.668   6.185 -0.1054 -0.0042 -0.7749
   56MOL   O15721167   7.509   2.782   6.150 -0.2619  0.1212 -0.0725
   56MOL   N15821168   7.563   2.613   6.283  0.3239 -0.1970  0.2553
   56MOL   C15921169   7.635   2.680   6.388  0.3517  0.2887 -0.0234
   56MOL   C16021170   7.766   2.602   6.418  1.1863 -0.3165  0.3451
   56MOL   C16121171   7.540   2.681   6.500 -0.0607  0.0660 -0.4203
   56MOL   H16221172   7.258   2.756   6.037 -0.7129 -1.4281 -1.0370
   56MOL   H16321173   7.187   2.601   6.034 -1.1236  0.2355  0.5427
   56MOL   H16421174   7.356   2.504   6.191 -0.1047 -0.6942 -0.1087
   56MOL   H16521175   7.556   2.513   6.289 -0.1672 -0.1424  0.6415
   56MOL   H16621176   7.653   2.784   6.360  1.9535  0.5283  1.8383
   56MOL   H16721177   7.820   2.651   6.499  1.2359  0.1515  0.0334
   56MOL   H16821178   7.755   2.494   6.419  0.6777 -0.2918 -0.9869
   56MOL   H16921179   7.819   2.619   6.324 -0.4333  4.0299  0.1226
   56MOL   H17021180   7.578   2.766   6.557  0.5642 -0.2413 -0.3782
   56MOL   H17121181   7.534   2.593   6.564  1.8883  0.2389  0.0316
   56MOL   H17221182   7.437   2.711   6.482  0.0590  0.5932 -0.2550
   56MOL   C17321183   7.443   2.533   5.992 -0.3825  0.6262 -0.5921
   56MOL   C17421184   7.559   2.425   6.005  0.1040 -0.3115 -0.4778
   56MOL   C17521185   7.500   2.300   6.077 -0.3539 -0.0829 -0.6633
   56MOL   O17621186   7.570   2.257   6.171  0.0317 -0.5411  0.2338
   56MOL   N17721187   7.386   2.248   6.032  0.1475  0.2318 -0.3928
   56MOL   C17821188   7.318   2.130   6.091 -0.0980  0.1855  0.4531
   56MOL   C17921189   7.303   2.016   5.989  0.1677 -0.9888  0.2079
   56MOL   C18021190   7.170   2.146   6.137 -0.3070  0.4348  0.7196
   56MOL   H18121191   7.482   2.609   5.924  1.6148 -0.8846 -1.1994
   56MOL   H18221192   7.358   2.495   5.935  0.1989 -0.2145 -0.9145
   56MOL   H18321193   7.638   2.467   6.067 -1.6138 -1.5186  2.6513
   56MOL   H18421194   7.350   2.289   5.948  0.4958  1.5117  0.0739
   56MOL   H18521195   7.376   2.096   6.177 -0.9345  0.1812  1.0269
   56MOL   H18621196   7.402   1.992   5.951  0.4708  0.9750 -0.3459
   56MOL   H18721197   7.245   2.060   5.907  3.0540  1.2427 -0.7557
   56MOL   H18821198   7.263   1.925   6.033  1.8943 -0.9746  1.8512
   56MOL   H18921199   7.159   2.240   6.190 -2.2266 -0.7099  2.4223
   56MOL   H19021200   7.139   2.062   6.199  0.4006  0.5825  1.2764
   56MOL   H19121201   7.102   2.158   6.052 -0.9984  2.3643  1.5343
   56MOL   C19221202   7.611   2.410   5.863 -0.0441  0.2617 -0.6058
   56MOL   C19321203   7.705   2.289   5.823 -0.4232 -0.0355 -0.0024
   56MOL   C19421204   0.002   2.275   5.898  0.0749  0.1072 -0.8884
   56MOL   O19521205   0.109   2.292   5.845 -0.2615 -0.3030  0.3014
   56MOL   N19621206   7.824   2.245   6.031 -0.4705 -0.1014  1.2179
   56MOL   C19721207   0.092   2.225   6.134  0.5394  0.6679  0.0984
   56MOL   C19821208   0.094   2.326   6.243 -0.5255 -0.9632  0.0669
   56MOL   C19921209   0.071   2.093   6.201  0.2553 -0.1985  0.2812
   56MOL   H20021210   7.676   2.494   5.838 -0.1810  0.4204 -0.4206
   56MOL   H20121211   7.525   2.407   5.796  1.1864  0.5521 -2.2452
   56MOL   H20221212   7.645   2.202   5.848  0.6947 -1.3090 -1.6476
   56MOL   H20321213   7.732   2.251   6.073 -1.2497 -0.3024 -0.4247
   56MOL   H20421214   0.191   2.226   6.087  1.1338  2.3363  1.3505
   56MOL   H20521215   7.834   2.331   6.292 -1.6812  1.8042 -2.3169
   56MOL   H20621216   0.118   2.428   6.213  0.3803 -1.6928 -1.7973
   56MOL   H20721217   0.169   2.297   6.316  0.7801 -0.9648 -1.2380
   56MOL   H20821218   0.147   2.063   6.273  0.2486  1.0474  0.8233
   56MOL   H20921219   0.052   2.014   6.129 -1.4104 -0.5759  1.1083
   56MOL   H21021220   7.814   2.091   6.258 -1.3140  0.4692 -2.1598
   56MOL   C21121221   7.725   2.284   5.662  0.6158  0.3641  1.1274
   56MOL   C21221222   7.771   2.151   5.600 -0.0790 -0.0602  0.0078
   56MOL   C21321223   7.661   2.044   5.585 -0.3592 -0.0438  0.2295
   56MOL   O21421224   7.550   2.067   5.530  0.6852 -0.2318 -0.4653
   56MOL   N21521225   7.697   1.922   5.629  0.4219  0.4798  0.0988
   56MOL   C21621226   7.614   1.801   5.639  0.0030  0.7742 -0.3271
   56MOL   C21721227   7.515   1.813   5.753  0.3281 -0.0223  0.7051
   56MOL   C21821228   7.706   1.674   5.655  0.5115 -0.5291  0.4258
   56MOL   H21921229   7.797   2.359   5.630  0.3550  0.6170  1.1281
   56MOL   H22021230   7.628   2.312   5.622  0.4365 -1.4488  0.2479
   56MOL   H22121231   7.833   2.101   5.674 -0.2606  0.1417  0.3005
   56MOL   H22221232   7.775   1.943   5.689 -0.5928  0.1448  1.5499
   56MOL   H22321233   7.552   1.793   5.549  0.6026  0.1837 -0.6943
   56MOL   H22421234   7.461   1.908   5.752 -1.0999 -0.8224  0.5089
   56MOL   H22521235   7.432   1.742   5.753  0.5248 -0.2695 -0.6288
   56MOL   H22621236   7.550   1.806   5.856  0.7263 -0.2737  0.5558
   56MOL   H22721237   7.643   1.586   5.649 -0.3611  0.1920 -1.3200
   56MOL   H22821238   7.763   1.671   5.749  1.0862 -0.9293  0.0653
   56MOL   H22921239   7.767   1.670   5.565  1.4272 -0.4658  1.0380
   56MOL   C23021240   0.010   2.177   5.464 -0.0730 -0.6784 -0.1395
   56MOL   C23121241   0.153   2.227   5.466  0.6371 -0.4971 -0.2778
   56MOL   C23221242   0.245   2.108   5.504 -0.2141 -0.0340  0.5638
   56MOL   O23321243   0.311   2.048   5.417 -0.4320 -0.4842 -0.1379
   56MOL   N23421244   0.255   2.081   5.632 -0.1062  0.7299  0.0265
   56MOL   C23521245   0.302   1.956   5.690 -0.7574  0.5047 -0.6751
   56MOL   C23621246   0.345   1.987   5.840  0.3482 -0.7296 -0.0585
   56MOL   C23721247   0.198   1.843   5.689  0.0285  0.3397 -0.5531
   56MOL   H23821248   7.793   2.258   5.414  1.4105  1.6736  1.9685
   56MOL   H23921249   0.008   2.085   5.405  2.5237  1.5827 -3.9636
   56MOL   H24021250   0.157   2.305   5.542 -1.0006  0.4240 -1.0987
   56MOL   H24121251   0.231   2.158   5.693 -1.0123  1.5017 -1.2819
   56MOL   H24221252   0.383   1.903   5.640 -1.1801 -0.6606 -0.1400
   56MOL   H24321253   0.373   1.897   5.895 -0.7022  0.6281  2.7869
   56MOL   H24421254   0.428   2.058   5.836  2.3239 -2.9548  0.1986
   56MOL   H24521255   0.255   2.029   5.884  0.5766  0.1162 -0.4042
   56MOL   H24621256   0.239   1.753   5.733 -0.8267  0.2775  0.1237
   56MOL   H24721257   0.163   1.843   5.585  0.4163  2.4967 -0.7201
   56MOL   H24821258   0.118   1.872   5.757 -0.2349 -0.8671 -0.3520
   56MOL   C24921259   0.186   2.293   5.334  0.3506  0.1870  0.2331
   56MOL   C25021260   0.322   2.359   5.324 -0.1696 -0.4793 -0.1101
   56MOL   C25121261   0.364   2.431   5.445  0.0681  0.1355  0.1187
   56MOL   O25221262   0.299   2.528   5.485 -0.0746  0.1432  0.3528
   56MOL   N25321263   0.478   2.383   5.507 -0.1102 -0.8769  0.1162
   56MOL   C25421264   0.530   2.425   5.635  0.3409  0.1447 -0.1142
   56MOL   C25521265   0.487   2.328   5.739  0.2247  0.3402 -0.2754
   56MOL   C25621266   0.681   2.431   5.639  0.3763  0.0257 -0.5228
   56MOL   H25721267   0.112   2.373   5.325  2.0689  2.0151  1.9713
   56MOL   H25821268   0.176   2.228   5.247  2.4009  0.2363 -0.0561
   56MOL   H25921269   0.399   2.283   5.307  1.2399  1.1993 -1.4957
   56MOL   H26021270   0.519   2.299   5.468 -0.6992 -0.6141 -1.0729
   56MOL   H26121271   0.481   2.516   5.668  1.8418  0.3288  1.7366
   56MOL   H26221272   0.502   2.367   5.840  1.4309 -0.1262 -0.2679
   56MOL   H26321273   0.380   2.308   5.736  0.0622  1.1298  0.1329
   56MOL   H26421274   0.541   2.234   5.733 -1.2528 -0.5824  0.6103
   56MOL   H26521275   0.739   2.498   5.575  0.3690  0.9623  0.4209
   56MOL   H26621276   0.712   2.477   5.733 -3.7782  1.4375  0.2455
   56MOL   H26721277   0.721   2.331   5.653  1.0771  0.5688  1.5230
   56MOL   C26821278   0.316   2.449   5.194  0.8960  0.1293 -0.9140
   56MOL   C26921279   0.445   2.527   5.143 -0.1213  0.7076 -0.7740
   56MOL   C27021280   0.564   2.436   5.118  0.2764 -0.1037 -0.0440
   56MOL   O27121281   0.560   2.351   5.031  0.3675 -0.3387  0.4114
   56MOL   N27221282   0.669   2.443   5.202  0.1378  0.0496  0.5500
   56MOL   C27321283   0.789   2.362   5.184 -0.0615 -0.3312  0.5425
   56MOL   C27421284   0.906   2.439   5.242  0.3528  0.1197  0.5035
   56MOL   C27521285   0.771   2.223   5.249  0.2654 -0.5873  0.1251
   56MOL   H27621286   0.286   2.382   5.113  1.5095  1.1055 -1.9648
   56MOL   H27721287   0.235   2.522   5.201  1.1440  0.4678 -1.5678
   56MOL   H27821288   0.471   2.594   5.225  1.8610 -1.6299  0.5920
   56MOL   H27921289   0.658   2.507   5.279 -1.2155 -0.4204  0.7453
   56MOL   H28021290   0.808   2.350   5.077  0.1366 -0.7030  0.6193
   56MOL   H28121291   0.883   2.545   5.232 -0.8093 -0.3615 -2.5083
   56MOL   H28221292   0.930   2.421   5.347  1.5780 -3.1175 -0.2532
   56MOL   H28321293   0.995   2.408   5.187  0.0551 -1.3710  0.8201
   56MOL   H28421294   0.724   2.141   5.194 -1.8407  0.0548  0.9191
   56MOL   H28521295   0.860   2.172   5.287 -0.2966  0.1891  2.5508
   56MOL   H28621296   0.708   2.238   5.337  0.3753 -0.8349  0.2461
   56MOL   C28721297   0.420   2.620   5.020 -0.5860  0.8237  0.0716
   56MOL   C28821298   0.326   2.738   5.035 -0.3181  0.3464  0.4835
   56MOL   C28921299   0.280   2.796   4.903 -0.6092  0.2690 -0.4544
   56MOL   O29021300   0.368   2.855   4.848  0.2108 -0.4773  1.0654
   56MOL   N29121301   0.157   2.797   4.858  0.3338  0.6934 -0.5537
   56MOL   C29221302   0.119   2.862   4.727  0.0237 -0.7584 -0.5331
   56MOL   C29321303   0.017   2.774   4.661 -0.1778  0.1868  0.5030
   56MOL   C29421304   0.082   3.009   4.747  0.2660 -0.2881 -0.5933
   56MOL   H29521305   0.516   2.662   4.992 -0.0313 -0.6443 -0.3056
   56MOL   H29621306   0.397   2.557   4.934  1.5673  0.3931 -0.2176
   56MOL   H29721307   0.231   2.700   5.074 -0.5718  0.0534 -0.3962
   56MOL   H29821308   0.087   2.745   4.908  2.3129 -1.3118  0.2230
   56MOL   H29921309   0.210   2.865   4.667  0.7083 -1.9339  0.4274
   56MOL   H30021310   0.013   2.796   4.554  1.4711  0.2507  0.4439
   56MOL   H30121311   0.029   2.666   4.670  0.8787  0.3200  0.7876
   56MOL   H30221312   7.753   2.793   4.698  0.4255 -0.3710  2.4901
   56MOL   H30321313   0.043   3.043   4.651  0.1143  0.7667 -0.1649
   56MOL   H30421314   0.013   3.028   4.829  0.2678  1.9318 -1.0747
   56MOL   H30521315   0.178   3.059   4.765  0.8793 -1.0599 -1.7123
   56MOL   C30621316   0.377   2.849   5.140 -0.0355  0.5435  0.5056
   56MOL   C30721317   0.333   2.831   5.290 -0.2822 -0.4540 -0.3641
   56MOL   C30821318   0.182   2.817   5.312  0.4988 -0.9461  0.3747
   56MOL   O30921319   0.102   2.877   5.243  0.1835 -0.0471  0.0161
   56MOL   N31021320   0.145   2.729   5.404 -0.0691 -0.1223  0.5218
   56MOL   C31121321   0.009   2.706   5.460 -0.4805 -0.4794 -0.0052
   56MOL   C31221322   7.757   2.621   5.372  0.0659  0.6274 -0.1196
   56MOL   C31321323   0.015   2.658   5.608  0.3292 -0.2746 -0.9517
   56MOL   H31421324   0.483   2.825   5.141  0.1261  1.1323 -1.0950
   56MOL   H31521325   0.371   2.951   5.102  1.6367  1.6653  3.1060
   56MOL   H31621326   0.382   2.742   5.329 -1.0856  0.0965  1.9625
   56MOL   H31721327   0.220   2.668   5.433  0.4984  0.7312  0.8673
   56MOL   H31821328   7.800   2.805   5.465  3.1013  1.1537  1.3887
   56MOL   H31921329   7.774   2.669   5.276  0.7687  1.5426  0.4400
   56MOL   H32021330   7.652   2.630   5.400  0.2225  1.4356  0.2343
   56MOL   H32121331   7.791   2.518   5.371 -2.3246 -0.2052 -2.5605
   56MOL   H32221332   0.064   2.735   5.668  0.7774 -1.7410  0.5804
   56MOL   H32321333   0.080   2.570   5.609  0.3309 -0.2803 -1.4644
   56MOL   H32421334   7.761   2.619   5.654  0.9234 -1.2752 -0.6206
   56MOL   C32521335   0.394   2.935   5.384  0.4847  1.0114 -0.4280
   56MOL   C32621336   0.482   2.871   5.502 -0.6075  0.2961  0.1571
   56MOL   C32721337   0.609   2.791   5.454 -0.0390  0.6474 -0.7347
   56MOL   O32821338   0.605   2.675   5.417  0.3004 -0.1629  0.1458
   56MOL   N32921339   0.724   2.859   5.457  0.4019  0.0191 -0.1637
   56MOL   C33021340   0.854   2.796   5.458  0.1032 -0.4111 -0.1079
   56MOL   C33121341   0.945   2.843   5.571  0.4411  1.6450  0.1015
   56MOL   C33221342   0.913   2.809   5.319 -0.1138 -0.4270  0.0127
   56MOL   H33321343   0.312   2.987   5.433  1.2462  1.7985  0.0177
   56MOL   H33421344   0.439   3.014   5.324  0.3631  1.7972  0.5050
   56MOL   H33521345   0.437   2.790   5.559  1.8554 -1.0304  0.2564
   56MOL   H33621346   0.724   2.955   5.489  0.8194 -0.3007  0.8131
   56MOL   H33721347   0.834   2.691   5.480  0.7453 -0.7724 -1.2194
   56MOL   H33821348   0.907   2.858   5.672 -0.6992  0.5918 -0.1568
   56MOL   H33921349   1.018   2.762   5.577 -0.8749  0.5360  1.6890
   56MOL   H34021350   0.985   2.941   5.542  0.7946  1.5648  0.3103
   56MOL   H34121351   0.980   2.723   5.309 -0.3584 -1.2561  4.5137
   56MOL   H34221352   0.971   2.900   5.306  0.9207 -0.8716  1.4126
   56MOL   H34321353   0.836   2.803   5.242 -1.5499  0.3958  1.3430
   56MOL   C34421354   0.508   2.984   5.601  0.2800  0.1861  0.0109
   56MOL   C34521355   0.384   3.005   5.692  0.0935 -0.0636  0.4776
   56MOL   C34621356   0.399   2.922   5.828  0.4890 -0.0149 -0.3673
   56MOL   O34721357   0.467   2.968   5.921 -0.1456 -0.7107 -0.0138
   56MOL   N34821358   0.318   2.818   5.835  0.2553  0.1455  0.8278
   56MOL   C34921359   0.306   2.727   5.946  0.8668  0.2467 -0.1594
   56MOL   C35021360   0.152   2.707   5.973 -1.2467 -0.2437 -0.0482
   56MOL   C35121361   0.383   2.604   5.910  0.1028  0.4512  0.8124
   56MOL   H35221362   0.551   3.066   5.545  1.2454  0.0768  0.5819
   56MOL   H35321363   0.592   2.959   5.666 -0.1834  1.9623  1.3392
   56MOL   H35421364   0.293   2.965   5.646 -1.0103  3.0962 -0.1983
   56MOL   H35521365   0.258   2.812   5.753  0.1101  1.8455  0.7870
   56MOL   H35621366   0.346   2.766   6.039  0.2491  1.5217 -0.4240
   56MOL   H35721367   0.129   2.631   6.048 -0.3665  0.2381  0.7169
   56MOL   H35821368   0.098   2.794   6.011  0.4170  1.7315 -2.0390
   56MOL   H35921369   0.096   2.687   5.882  0.3394  0.1097 -1.1186
   56MOL   H36021370   0.491   2.610   5.897 -0.0570 -2.2035 -2.6994
   56MOL   H36121371   0.357   2.524   5.980 -0.1327 -0.1751  0.0237
   56MOL   H36221372   0.352   2.560   5.815 -0.7381 -1.7993  2.0772
   56MOL   C36321373   0.352   3.155   5.720 -0.5832 -0.6820  0.1314
   56MOL   C36421374   0.306   3.235   5.603  0.1134  0.7120  0.2711
   56MOL   C36521375   0.258   3.368   5.653  0.2533  0.8661  0.0970
   56MOL   O36621376   0.332   3.465   5.647 -0.5815  0.0299 -0.0652
   56MOL   N36721377   0.137   3.364   5.710  0.3639  0.0540 -0.5605
   56MOL   C36821378   0.065   3.471   5.763  0.4739 -0.7915 -0.2467
   56MOL   C36921379   7.785   3.524   5.680 -0.0848 -0.5441 -0.0456
   56MOL   C37021380   0.013   3.428   5.905 -0.7709  0.2725  0.3727
   56MOL   H37121381   0.437   3.212   5.758 -2.0238  1.3709  0.3598
   56MOL   H37221382   0.278   3.157   5.800 -0.7741  0.7717 -0.0675
   56MOL   H37321383   0.217   3.182   5.570  1.1554 -0.3055 -0.9847
   56MOL   H37421384   0.093   3.273   5.710  1.7777 -0.6306  0.1046
   56MOL   H37521385   0.136   3.549   5.792 -2.6217  0.6258  4.0985
   56MOL   H37621386   7.832   3.571   5.593 -1.0216 -1.4314 -1.0364
   56MOL   H37721387   7.715   3.445   5.656 -0.3732 -0.0898 -0.7247
   56MOL   H37821388   7.724   3.608   5.712  2.1003  1.5835 -1.2767
   56MOL   H37921389   0.095   3.386   5.963  0.3812  1.0698 -0.6621
   56MOL   H38021390   7.812   3.514   5.960 -3.6945 -0.5936 -0.1691
   56MOL   H38121391   7.768   3.356   5.892  1.5200 -2.0518 -1.6732
   56MOL   H38221392   0.377   3.234   5.520  0.6204  0.4148  0.7072
   57MOL     C121393   4.715   1.518   5.712  0.5982 -0.1052  0.3029
   57MOL     C221394   4.658   1.578   5.582  0.5472 -0.1747  0.1625
   57MOL     C321395   4.533   1.502   5.533 -0.7427  0.1822 -0.3520
   57MOL     O421396   4.427   1.515   5.586  0.4554  0.1460 -0.1258
   57MOL     N521397   4.546   1.423   5.421  0.2280 -0.2070  0.4895
   57MOL     C621398   4.450   1.350   5.343  0.4380  0.0927  0.2948
   57MOL     C721399   4.465   1.386   5.200 -0.1740 -0.6024  0.1528
   57MOL     C821400   4.453   1.202   5.382  0.3903  0.2048 -0.3462
   57MOL     H921401   4.814   1.541   5.749  0.5406  3.4276 -1.5217
   57MOL    H1021402   4.713   1.409   5.706  0.7214 -0.0148 -2.1673
   57MOL    H1121403   4.739   1.559   5.511 -1.5731 -1.3832 -2.0396
   57MOL    H1221404   4.639   1.399   5.390  0.2747 -1.1059  1.2975
   57MOL    H1321405   4.352   1.386   5.374  0.9645  0.7695  1.1849
   57MOL    H1421406   4.561   1.355   5.159 -0.1773  1.0950 -1.1624
   57MOL    H1521407   4.453   1.493   5.183  3.1198 -0.2270 -0.1756
   57MOL    H1621408   4.377   1.345   5.151  1.1207  0.0829 -2.8592
   57MOL    H1721409   4.390   1.135   5.322 -0.7942 -0.7102  1.8757
   57MOL    H1821410   4.555   1.165   5.396 -0.4466 -1.9652  0.2840
   57MOL    H1921411   4.413   1.187   5.482  0.4103 -2.5452 -0.6939
   57MOL    H2021412   4.651   1.542   5.797  0.9326  0.1316  0.4901
   57MOL    C2121413   4.634   1.733   5.582 -0.3929  0.1875 -0.1199
   57MOL    C2221414   4.754   1.831   5.551 -0.2944  0.2518 -0.4107
   57MOL    C2321415   4.856   1.829   5.668  0.2459  0.0003 -0.3833
   57MOL    O2421416   4.807   1.835   5.781 -0.1012  0.0842  0.0743
   57MOL    N2521417   4.986   1.824   5.637  0.1235 -0.0801 -0.1980
   57MOL    C2621418   5.100   1.791   5.726 -0.0396  0.2786  0.3986
   57MOL    C2721419   5.213   1.891   5.716 -0.5414  0.2349 -0.0429
   57MOL    C2821420   5.156   1.637   5.712  0.4276 -0.2872 -0.1567
   57MOL    H2921421   4.588   1.750   5.679 -2.7203  0.3250 -1.2363
   57MOL    H3021422   4.561   1.749   5.503 -0.7476  0.2928  0.2333
   57MOL    H3121423   4.814   1.793   5.469  0.8902  0.5657  0.2907
   57MOL    H3221424   5.004   1.835   5.538 -1.8296  0.8061 -0.4807
   57MOL    H3321425   5.065   1.793   5.829 -0.9315 -0.2434  0.1150
   57MOL    H3421426   5.251   1.898   5.614  0.5357 -2.2910  0.1567
   57MOL    H3521427   5.303   1.856   5.767 -0.1145  2.3932  0.7361
   57MOL    H3621428   5.191   1.991   5.754 -0.5711  0.7881 -1.4901
   57MOL    H3721429   5.250   1.617   5.764 -0.8335 -0.6382  2.0437
   57MOL    H3821430   5.092   1.573   5.772  0.8585 -0.5722 -0.0010
   57MOL    H3921431   5.178   1.614   5.608 -0.7318  0.2784 -0.5379
   57MOL    C4021432   4.695   1.965   5.502  0.1135  0.0207  0.1519
   57MOL    C4121433   4.779   2.087   5.512  0.5691  0.4268 -0.0242
   57MOL    C4221434   4.731   2.173   5.630  0.0586  0.2008  0.3249
   57MOL    O4321435   4.644   2.255   5.622 -0.0880 -0.5505  0.4034
   57MOL    N4421436   4.794   2.146   5.743 -0.0032  0.1387 -0.6628
   57MOL    C4521437   4.773   2.208   5.873 -0.4084  0.0795 -0.3068
   57MOL    C4621438   4.857   2.134   5.979  0.0662 -0.0277  0.2248
   57MOL    C4721439   4.798   2.360   5.867 -0.1524 -0.7567  0.4896
   57MOL    H4821440   4.595   1.979   5.541  0.4210 -0.5874  1.1963
   57MOL    H4921441   4.659   1.953   5.400  0.8478  0.3125 -0.1413
   57MOL    H5021442   4.888   2.077   5.521  0.6125 -1.0806 -1.8470
   57MOL    H5121443   4.849   2.061   5.746 -2.0631 -1.2078 -0.6675
   57MOL    H5221444   4.666   2.198   5.895 -0.0161 -4.1248 -0.0259
   57MOL    H5321445   4.838   2.165   6.081 -0.4647  1.0271 -0.1897
   57MOL    H5421446   4.964   2.139   5.964  0.0801 -0.1179  0.2929
   57MOL    H5521447   4.840   2.026   5.970 -0.2752  0.0282  0.1787
   57MOL    H5621448   4.714   2.414   5.823 -2.3080 -2.1103  2.8655
   57MOL    H5721449   4.883   2.373   5.800 -0.1124 -0.3095  0.6265
   57MOL    H5821450   4.818   2.398   5.967  3.1135 -0.5669 -0.1623
   57MOL    C5921451   4.781   2.176   5.385 -0.8250  0.2075 -0.0761
   57MOL    C6021452   4.868   2.299   5.402 -0.0743 -0.0297  0.8213
   57MOL    C6121453   4.797   2.428   5.350 -0.8358 -0.9347 -0.4559
   57MOL    O6221454   4.856   2.499   5.263  0.1965  0.0333  0.0285
   57MOL    N6321455   4.697   2.477   5.424 -0.0754  0.2091 -0.2531
   57MOL    C6421456   4.651   2.611   5.424  0.7500  0.3006  0.9296
   57MOL    C6521457   4.548   2.633   5.307 -0.6799  0.5176  0.4455
   57MOL    C6621458   4.589   2.651   5.561  0.0187 -0.3025  0.3733
   57MOL    H6721459   4.810   2.119   5.296  2.0966 -1.4980  1.8954
   57MOL    H6821460   4.680   2.210   5.362 -0.8874 -0.5817 -1.0225
   57MOL    H6921461   4.898   2.318   5.505  1.4730 -0.6620  0.5068
   57MOL    H7021462   4.681   2.424   5.508 -0.3217  0.9228  0.1560
   57MOL    H7121463   4.736   2.677   5.408 -0.2843  1.4434  0.0591
   57MOL    H7221464   4.583   2.579   5.219 -1.6025 -1.1572  1.0910
   57MOL    H7321465   4.466   2.571   5.342 -0.0206 -0.0551  0.9793
   57MOL    H7421466   4.515   2.736   5.294  2.2647  1.3239 -1.0478
   57MOL    H7521467   4.561   2.756   5.561 -1.5930 -0.7085  0.7897
   57MOL    H7621468   4.490   2.607   5.579 -0.8089  0.8487 -1.2117
   57MOL    H7721469   4.660   2.631   5.641 -1.3586 -3.3395  0.9393
   57MOL    C7821470   5.011   2.274   5.340  0.2991  0.0116  0.7111
   57MOL    C7921471   5.133   2.326   5.403 -0.6934 -0.9311 -0.0781
   57MOL    C8021472   5.158   2.264   5.545  0.9583  0.3522 -0.4091
   57MOL    O8121473   5.134   2.148   5.555 -0.4153  0.6218 -0.5694
   57MOL    N8221474   5.204   2.339   5.643  0.0771  0.2845  0.5015
   57MOL    C8321475   5.242   2.294   5.778 -0.4083 -0.2639  0.3560
   57MOL    C8421476   5.394   2.266   5.788 -0.2655 -0.2180 -0.1180
   57MOL    C8521477   5.178   2.385   5.880  0.1483 -0.2408  0.2674
   57MOL    H8621478   5.004   2.313   5.238  1.1141 -0.5708  0.4270
   57MOL    H8721479   5.010   2.165   5.335 -2.2149  0.0344  0.2205
   57MOL    H8821480   5.126   2.435   5.403 -0.5408 -0.8902 -2.6940
   57MOL    H8921481   5.226   2.435   5.622  1.0175  0.2156  1.1634
   57MOL    H9021482   5.191   2.200   5.798  2.9975 -2.5750 -1.4442
   57MOL    H9121483   5.440   2.226   5.697 -0.0488 -1.1384  0.3950
   57MOL    H9221484   5.450   2.356   5.810 -0.1706 -0.7617  1.9367
   57MOL    H9321485   5.405   2.203   5.876  0.3906 -0.6447 -0.5000
   57MOL    H9421486   5.156   2.485   5.843  0.9672  0.0819  0.6449
   57MOL    H9521487   5.249   2.408   5.959 -0.6197  3.9412 -0.1162
   57MOL    H9621488   5.085   2.339   5.916  1.2499 -1.3935  1.6926
   57MOL    C9721489   5.260   2.307   5.306 -0.1385  0.4575 -0.0933
   57MOL    C9821490   5.262   2.396   5.175  0.1698 -0.2263  0.5481
   57MOL    C9921491   5.360   2.343   5.074 -0.5670  0.0693  0.2945
   57MOL   O10021492   5.445   2.259   5.103 -0.2497 -0.1909  0.1928
   57MOL   N10121493   5.347   2.396   4.951  0.0126  0.3655 -0.0150
   57MOL   C10221494   5.436   2.353   4.843  0.0891  0.4582  0.2869
   57MOL   C10321495   5.390   2.423   4.711 -0.2759  0.1967  0.1132
   57MOL   C10421496   5.584   2.373   4.878  0.4091 -0.1281 -0.2300
   57MOL   H10521497   5.264   2.201   5.282  1.6448  0.9751 -2.2270
   57MOL   H10621498   5.345   2.324   5.372 -0.9513 -1.1125  1.4083
   57MOL   H10721499   5.166   2.387   5.125 -0.2415 -1.8843  1.5555
   57MOL   H10821500   5.285   2.475   4.936 -1.6468 -1.0488 -0.8532
   57MOL   H10921501   5.421   2.246   4.831 -0.1176  0.6455 -1.1430
   57MOL   H11021502   5.419   2.528   4.719  2.1776 -0.4314 -0.3220
   57MOL   H11121503   5.435   2.369   4.629  1.5028  0.4966  0.8691
   57MOL   H11221504   5.281   2.426   4.703 -0.2835  1.3774  0.4490
   57MOL   H11321505   5.662   2.382   4.803 -0.6241 -0.9901 -1.4216
   57MOL   H11421506   5.620   2.294   4.945  0.7906 -0.0552 -0.3453
   57MOL   H11521507   5.593   2.469   4.929 -2.4030  0.3215 -0.5323
   57MOL   C11621508   5.291   2.548   5.193 -0.4347 -0.7101  0.1277
   57MOL   C11721509   5.159   2.635   5.192 -0.7330 -0.1934 -0.6590
   57MOL   C11821510   5.094   2.629   5.057  0.4466  0.2127  0.2691
   57MOL   O11921511   5.164   2.621   4.956 -0.5420  0.0902  0.0618
   57MOL   N12021512   4.961   2.629   5.053  0.2319  0.3476 -0.1465
   57MOL   C12121513   4.879   2.652   4.930  0.0955  0.8539 -0.2100
   57MOL   C12221514   4.731   2.651   4.960  0.0927 -0.9389 -0.0532
   57MOL   C12321515   4.919   2.790   4.862  0.2559  0.4293  0.2106
   57MOL   H12421516   5.361   2.587   5.119  0.5944 -1.4232  0.7136
   57MOL   H12521517   5.345   2.557   5.287  1.8796 -0.1211 -1.2340
   57MOL   H12621518   5.091   2.605   5.272  2.6175 -1.4796  1.8776
   57MOL   H12721519   4.916   2.611   5.142 -0.9581 -0.3293 -0.8716
   57MOL   H12821520   4.886   2.559   4.872 -2.5451  0.0379  0.7320
   57MOL   H12921521   4.694   2.728   5.026  1.6476 -2.8080  3.1154
   57MOL   H13021522   4.688   2.553   4.983 -3.4161  0.9917  1.9651
   57MOL   H13121523   4.673   2.670   4.870  2.3168 -0.1905 -1.3720
   57MOL   H13221524   5.019   2.772   4.823 -0.2879 -2.1857 -0.0501
   57MOL   H13321525   4.845   2.810   4.786 -1.3387 -0.1031  1.5943
   57MOL   H13421526   4.916   2.873   4.933 -2.1153 -0.6348  1.4077
   57MOL   C13521527   5.186   2.786   5.220 -0.1985  0.0246 -0.2412
   57MOL   C13621528   5.226   2.813   5.370 -0.1510  0.6613 -0.3972
   57MOL   C13721529   5.307   2.939   5.384  0.0036 -0.3580  0.4876
   57MOL   O13821530   5.259   3.049   5.386 -0.0455  0.0675  0.0623
   57MOL   N13921531   5.436   2.916   5.398 -0.4863 -0.3354 -0.7296
   57MOL   C14021532   5.537   3.017   5.412  0.6743  0.1717 -0.2765
   57MOL   C14121533   5.640   3.011   5.302 -0.7061  0.1232  0.2217
   57MOL   C14221534   5.605   3.016   5.552  0.7877  0.3201 -0.6627
   57MOL   H14321535   5.097   2.846   5.199 -0.0619 -0.7696 -3.4306
   57MOL   H14421536   5.264   2.816   5.150  0.3525 -2.9204 -0.9277
   57MOL   H14521537   5.282   2.727   5.408  0.6390  0.3367 -2.2125
   57MOL   H14621538   5.466   2.821   5.416  0.9957 -0.0078 -1.4136
   57MOL   H14721539   5.483   3.111   5.405  0.9259  0.3785  0.5035
   57MOL   H14821540   5.581   3.028   5.212 -0.0398  0.2134 -0.1989
   57MOL   H14921541   5.719   3.085   5.313 -0.2984 -0.4730  1.3508
   57MOL   H15021542   5.691   2.915   5.289 -0.0830  0.2710  1.5491
   57MOL   H15121543   5.534   3.010   5.634  1.9895 -3.0428  0.2209
   57MOL   H15221544   5.669   3.104   5.561  1.6039 -0.3597  0.3068
   57MOL   H15321545   5.671   2.929   5.554 -0.1243 -0.4350 -2.5123
   57MOL   C15421546   5.103   2.817   5.464  0.3936  0.0396 -0.0103
   57MOL   C15521547   5.112   2.832   5.618  0.5910  0.4658 -0.3484
   57MOL   C15621548   5.223   2.747   5.671  0.0437  0.7620  0.8386
   57MOL   O15721549   5.245   2.635   5.628 -0.2037 -0.3579 -0.1249
   57MOL   N15821550   5.309   2.804   5.758  0.7690  0.6180 -0.0239
   57MOL   C15921551   5.404   2.717   5.834 -0.0551  0.5489  0.2862
   57MOL   C16021552   5.428   2.767   5.981  0.4967 -0.4565 -0.8479
   57MOL   C16121553   5.534   2.701   5.751 -0.6512  0.6343  0.1765
   57MOL   H16221554   5.049   2.725   5.440 -0.9147  0.5769  0.8470
   57MOL   H16321555   5.042   2.899   5.427 -1.2244 -1.2274 -0.2091
   57MOL   H16421556   5.135   2.937   5.636  2.4761 -0.0512  0.3663
   57MOL   H16521557   5.290   2.897   5.790 -0.4025 -0.2005  1.7263
   57MOL   H16621558   5.349   2.624   5.840  1.6803 -0.5766 -0.9133
   57MOL   H16721559   5.339   2.769   6.044  0.3706  0.1368 -1.0391
   57MOL   H16821560   5.501   2.700   6.026 -1.3713 -1.6700  0.4381
   57MOL   H16921561   5.467   2.869   5.992  1.9886 -0.6619 -3.7052
   57MOL   H17021562   5.505   2.677   5.649 -0.6742 -0.1765  0.3698
   57MOL   H17121563   5.595   2.623   5.796 -0.3894  1.4800  1.3037
   57MOL   H17221564   5.584   2.797   5.739  0.5490  0.0219  0.1526
   57MOL   C17321565   4.981   2.779   5.682  0.0932 -0.5362 -0.1744
   57MOL   C17421566   4.955   2.825   5.824 -0.2350 -0.0721 -0.4366
   57MOL   C17521567   4.866   2.955   5.824  0.2474  0.2201  0.2547
   57MOL   O17621568   4.749   2.949   5.784 -0.0427  0.5805  0.0403
   57MOL   N17721569   4.933   3.060   5.872 -0.0231  0.4737  0.0436
   57MOL   C17821570   4.868   3.188   5.904  0.6640  0.2751  0.3157
   57MOL   C17921571   4.922   3.285   5.799  0.0929 -0.8876  0.0983
   57MOL   C18021572   4.905   3.230   6.046  0.0550 -1.2853 -0.4910
   57MOL   H18121573   4.980   2.670   5.676  0.3508 -0.4911 -1.1672
   57MOL   H18221574   4.904   2.816   5.615  1.5204  0.9191 -1.0648
   57MOL   H18321575   5.050   2.858   5.865  0.0101 -0.7827 -0.4286
   57MOL   H18421576   5.027   3.061   5.910 -0.3174  1.1183  0.7641
   57MOL   H18521577   4.764   3.201   5.872  1.4498  0.3050 -2.2690
   57MOL   H18621578   4.914   3.393   5.812  2.1049 -1.0640  3.2470
   57MOL   H18721579   4.870   3.273   5.704 -0.8245 -0.0206  0.4873
   57MOL   H18821580   5.029   3.273   5.783  0.1578 -0.5050  0.2405
   57MOL   H18921581   4.835   3.309   6.072  1.1275 -1.0288  1.7326
   57MOL   H19021582   5.007   3.270   6.050 -1.2055  2.0495 -0.9588
   57MOL   H19121583   4.882   3.146   6.112 -0.4748  0.2829  1.3424
   57MOL   C19221584   4.901   2.713   5.904  0.2100 -0.1518  0.1033
   57MOL   C19321585   4.880   2.746   6.053 -0.4018 -0.2801  0.3757
   57MOL   C19421586   5.004   2.766   6.133 -0.4618 -0.7400  0.5917
   57MOL   O19521587   5.104   2.690   6.120 -0.2142  0.3559  0.1568
   57MOL   N19621588   4.992   2.871   6.213 -0.5111 -0.2076 -0.0682
   57MOL   C19721589   5.081   2.916   6.314  0.0367  0.4736 -0.2102
   57MOL   C19821590   5.072   3.068   6.333  0.5679  0.3602 -0.0527
   57MOL   C19921591   5.057   2.837   6.444 -0.3032 -0.1405 -0.3562
   57MOL   H20021592   4.978   2.635   5.905  1.1194  0.7237 -0.6837
   57MOL   H20121593   4.820   2.657   5.856 -0.2889  1.7402 -1.3076
   57MOL   H20221594   4.817   2.835   6.050 -0.4144 -0.2951  0.1720
   57MOL   H20321595   4.901   2.913   6.215  0.1250  1.1285  1.7105
   57MOL   H20421596   5.183   2.891   6.284 -0.4471 -1.8284 -0.0152
   57MOL   H20521597   4.970   3.103   6.346  0.0279 -0.7485 -1.2460
   57MOL   H20621598   5.110   3.123   6.247  0.1774 -1.3332 -1.3265
   57MOL   H20721599   5.144   3.094   6.411  0.6268 -2.3376  0.8522
   57MOL   H20821600   5.140   2.858   6.510 -0.4600 -3.7659  1.0921
   57MOL   H20921601   5.061   2.728   6.443 -0.8409 -0.2424  2.9859
   57MOL   H21021602   4.964   2.852   6.498  0.5320 -0.2662  1.1306
   57MOL   C21121603   4.813   2.624   6.122 -0.0976  0.0223 -0.2888
   57MOL   C21221604   4.774   2.632   6.276  0.5073  0.0152 -0.3710
   57MOL   C21321605   4.690   2.757   6.321 -0.6276  0.2455  0.2751
   57MOL   O21421606   4.665   2.852   6.240 -0.3016  0.4055 -0.4156
   57MOL   N21521607   4.649   2.761   6.453 -0.1636 -0.0025  0.0530
   57MOL   C21621608   4.593   2.881   6.511  0.1814  0.1407  0.4139
   57MOL   C21721609   4.642   2.917   6.655 -0.0438  0.1447 -0.3310
   57MOL   C21821610   4.441   2.873   6.510 -0.3153 -0.5538 -0.4217
   57MOL   H21921611   4.884   2.542   6.116 -0.1960  0.0127 -1.5111
   57MOL   H22021612   4.726   2.593   6.064  0.6712  0.4789 -1.7138
   57MOL   H22121613   4.864   2.646   6.336 -0.5093  1.9334  0.7558
   57MOL   H22221614   4.660   2.684   6.517  0.8651  0.4016  0.3858
   57MOL   H22321615   4.624   2.964   6.447  0.1748  0.9331  1.4147
   57MOL   H22421616   4.749   2.931   6.669  0.2461 -2.7184  0.4870
   57MOL   H22521617   4.577   2.998   6.687  0.1723  0.3530 -0.4165
   57MOL   H22621618   4.614   2.831   6.716  1.6445 -1.1832 -1.4162
   57MOL   H22721619   4.397   2.851   6.414  1.6600 -2.0165 -1.0216
   57MOL   H22821620   4.399   2.961   6.560 -2.3320 -0.3514 -2.4068
   57MOL   H22921621   4.404   2.793   6.574  0.0565 -0.2405  0.1953
   57MOL   C23021622   4.735   2.491   6.328 -0.1505  0.1993 -0.1369
   57MOL   C23121623   4.585   2.457   6.331 -0.6472 -0.2351 -0.2253
   57MOL   C23221624   4.519   2.443   6.192  0.0061  0.7323 -1.3068
   57MOL   O23321625   4.560   2.357   6.116 -0.1460 -0.0130  0.3477
   57MOL   N23421626   4.418   2.523   6.163 -0.2894  0.1957  0.2112
   57MOL   C23521627   4.343   2.531   6.032  1.0540  0.0684 -0.8935
   57MOL   C23621628   4.431   2.572   5.911 -0.5171 -0.1121 -1.3706
   57MOL   C23721629   4.256   2.409   6.007  0.0754  0.4664 -0.6742
   57MOL   H23821630   4.778   2.471   6.426  1.6358 -0.3868 -1.0176
   57MOL   H23921631   4.778   2.422   6.256  0.6266  1.5817 -1.0367
   57MOL   H24021632   4.521   2.530   6.381 -2.3046 -1.1610 -0.9583
   57MOL   H24121633   4.386   2.581   6.239  3.5983  1.3292  1.0796
   57MOL   H24221634   4.285   2.623   6.039  2.0884  0.8693 -2.5363
   57MOL   H24321635   4.508   2.498   5.890 -0.2817  0.1153 -1.3179
   57MOL   H24421636   4.371   2.584   5.820 -1.0857 -2.7490 -1.3627
   57MOL   H24521637   4.484   2.666   5.930  0.9493 -0.5513 -3.1540
   57MOL   H24621638   4.205   2.387   6.101  1.4048  1.2899  0.2456
   57MOL   H24721639   4.310   2.318   5.981  1.9369  1.5873 -0.8201
   57MOL   H24821640   4.185   2.422   5.925  2.8944  0.6668 -3.1821
   57MOL   C24921641   4.576   2.330   6.411  0.0313  0.3186 -0.6621
   57MOL   C25021642   4.450   2.239   6.413 -0.3640 -0.4990 -0.7702
   57MOL   C25121643   4.335   2.317   6.482 -0.0601 -0.1458 -0.4635
   57MOL   O25221644   4.356   2.372   6.589  0.0203  0.5428 -0.1291
   57MOL   N25321645   4.210   2.297   6.432  1.1091 -0.0615 -0.1466
   57MOL   C25421646   4.084   2.366   6.471  0.5233  0.0216 -0.3249
   57MOL   C25521647   4.040   2.483   6.380  0.2968 -0.2164 -0.4840
   57MOL   C25621648   3.970   2.269   6.483 -0.0273  0.1322 -0.0474
   57MOL   H25721649   4.621   2.333   6.511  2.7005 -0.4712 -1.7798
   57MOL   H25821650   4.650   2.261   6.369  1.4227  1.3514  0.0265
   57MOL   H25921651   4.421   2.221   6.310  2.0154  0.1222 -1.5703
   57MOL   H26021652   4.204   2.225   6.361  0.9878 -0.7250  0.5253
   57MOL   H26121653   4.102   2.398   6.573  0.9442 -2.4270  0.4095
   57MOL   H26221654   3.960   2.545   6.421  0.3727 -1.0274  0.9310
   57MOL   H26321655   4.130   2.538   6.354  0.6187 -0.4972  0.0200
   57MOL   H26421656   4.012   2.454   6.279 -1.1269  0.4723 -0.3047
   57MOL   H26521657   3.937   2.226   6.388 -0.9647  3.0024 -1.0716
   57MOL   H26621658   3.993   2.190   6.555 -2.2530  0.5555  1.1717
   57MOL   H26721659   3.880   2.311   6.527 -0.9578 -2.7570  0.9183
   57MOL   C26821660   4.492   2.111   6.494 -0.1969  0.7857 -0.1001
   57MOL   C26921661   4.386   2.000   6.498  0.2219  0.0569 -0.3012
   57MOL   C27021662   4.340   1.974   6.355 -0.2102  0.3584  0.6434
   57MOL   O27121663   4.224   2.006   6.331  0.1294 -0.1516 -0.7843
   57MOL   N27221664   4.428   1.924   6.266 -0.3767  0.8276 -0.1475
   57MOL   C27321665   4.415   1.926   6.119 -0.3049 -0.0577 -0.1197
   57MOL   C27421666   4.538   1.993   6.066 -0.1424  0.9442  0.9266
   57MOL   C27521667   4.399   1.778   6.094 -0.4104 -0.4834  0.4471
   57MOL   H27621668   4.590   2.074   6.464  0.1659  1.6764 -0.0275
   57MOL   H27721669   4.518   2.144   6.595  0.6069  2.2955 -0.7861
   57MOL   H27821670   4.318   2.035   6.575  4.0112  1.1625  2.7203
   57MOL   H27921671   4.518   1.896   6.303  0.0718  1.4795 -0.7368
   57MOL   H28021672   4.328   1.979   6.081  0.4747  1.7311  0.5454
   57MOL   H28121673   4.627   1.972   6.124  0.8395  1.2270 -0.4683
   57MOL   H28221674   4.558   1.967   5.963  1.3173 -1.7254  1.8410
   57MOL   H28321675   4.525   2.100   6.087 -1.1781  0.8269  0.9135
   57MOL   H28421676   4.474   1.706   6.126 -2.1403 -1.6522  2.0147
   57MOL   H28521677   4.308   1.736   6.137  0.3080 -0.3932  2.0988
   57MOL   H28621678   4.369   1.758   5.992  0.7230 -0.8875  0.1828
   57MOL   C28721679   4.446   1.874   6.569 -0.2073 -0.3822  0.8064
   57MOL   C28821680   4.361   1.747   6.579  0.9949 -0.0745 -0.0335
   57MOL   C28921681   4.262   1.763   6.694 -0.6915 -0.0248  0.1949
   57MOL   O29021682   4.301   1.775   6.807 -0.0027 -0.3393 -0.2368
   57MOL   N29121683   4.135   1.778   6.662 -0.1891 -0.1221 -0.5748
   57MOL   C29221684   4.024   1.799   6.751 -0.1132 -0.2302 -0.3015
   57MOL   C29321685   4.040   1.949   6.791  0.7143 -0.8034 -0.4085
   57MOL   C29421686   3.884   1.766   6.690  0.1049 -0.2717  0.3734
   57MOL   H29521687   4.529   1.834   6.511 -0.3348  0.5558 -0.0225
   57MOL   H29621688   4.485   1.891   6.670  0.3949  1.7948  0.2303
   57MOL   H29721689   4.306   1.732   6.486 -2.7140  1.6365  1.7843
   57MOL   H29821690   4.108   1.792   6.566 -2.5009  0.2829  0.1056
   57MOL   H29921691   4.028   1.724   6.830 -1.4944  0.2421  0.2375
   57MOL   H30021692   4.141   1.977   6.821  0.3301 -0.6514  0.7362
   57MOL   H30121693   3.996   2.013   6.714 -0.4272  0.0576  0.9399
   57MOL   H30221694   3.983   1.984   6.877  0.2325  2.9807 -2.1307
   57MOL   H30321695   3.812   1.772   6.771  1.6831 -0.3911  1.8184
   57MOL   H30421696   3.856   1.843   6.618  1.2090  0.3934  0.6427
   57MOL   H30521697   3.891   1.673   6.633  1.0349  0.3416 -0.5145
   57MOL   C30621698   4.445   1.616   6.602  0.6947  0.2456 -0.1065
   57MOL   C30721699   4.451   1.529   6.472  0.0525  0.4906 -0.5726
   57MOL   C30821700   4.316   1.470   6.437  0.3460  0.1315 -0.2075
   57MOL   O30921701   4.262   1.503   6.332  0.2310 -0.2247  0.7136
   57MOL   N31021702   4.259   1.392   6.522  0.4943  0.1504  0.0027
   57MOL   C31121703   4.130   1.333   6.503  0.4965  0.1005 -0.4406
   57MOL   C31221704   4.144   1.185   6.501 -0.0375  0.1814  0.6881
   57MOL   C31321705   4.030   1.370   6.614  0.2430 -0.9269 -0.4718
   57MOL   H31421706   4.546   1.640   6.636  0.3070 -1.5454  2.4437
   57MOL   H31521707   4.397   1.558   6.680 -1.4660  1.1414 -0.7446
   57MOL   H31621708   4.481   1.593   6.389  0.2710 -1.9433 -2.4305
   57MOL   H31721709   4.316   1.372   6.603 -0.5862  2.2979  1.3192
   57MOL   H31821710   4.073   1.354   6.412 -0.9938 -2.9391 -0.2865
   57MOL   H31921711   4.184   1.146   6.407 -0.9563 -1.8050  1.0870
   57MOL   H32021712   4.046   1.141   6.517 -0.6066  0.7642 -1.1416
   57MOL   H32121713   4.206   1.137   6.577 -0.4335 -1.0330  0.2614
   57MOL   H32221714   4.089   1.363   6.705 -1.6999  3.7312  1.3188
   57MOL   H32321715   3.930   1.326   6.618 -0.7783  1.3268 -0.3395
   57MOL   H32421716   4.009   1.474   6.589 -1.7575 -1.1755  0.1094
   57MOL   C32521717   4.557   1.414   6.466 -0.3271  0.3122  0.4711
   57MOL   C32621718   4.643   1.409   6.340 -0.3566  0.8417 -0.6896
   57MOL   C32721719   4.745   1.528   6.335  0.5929 -0.2805 -0.2869
   57MOL   O32821720   4.748   1.609   6.427  0.3793  0.1910 -0.1863
   57MOL   N32921721   4.813   1.537   6.215  0.0831  0.2049 -0.2743
   57MOL   C33021722   4.918   1.633   6.186  0.3814  0.2022 -0.5900
   57MOL   C33121723   4.853   1.765   6.144 -0.4114 -0.0335  0.3646
   57MOL   C33221724   5.009   1.583   6.069 -0.1781 -0.5995 -0.5306
   57MOL   H33321725   4.507   1.319   6.478 -0.0348  0.2338  1.0869
   57MOL   H33421726   4.620   1.417   6.555  0.7055  1.1305 -0.2697
   57MOL   H33521727   4.566   1.416   6.263 -0.9213  0.3758 -0.1722
   57MOL   H33621728   4.802   1.461   6.150  1.4297 -2.2143  2.2447
   57MOL   H33721729   4.979   1.649   6.275  0.5522  0.4109 -0.7458
   57MOL   H33821730   4.787   1.818   6.213 -1.1970  0.4688 -0.7527
   57MOL   H33921731   4.935   1.834   6.127 -1.3298  0.8612 -0.5352
   57MOL   H34021732   4.799   1.748   6.050  0.9786 -1.0031 -0.2580
   57MOL   H34121733   5.094   1.650   6.059  1.5291 -1.4890  5.9028
   57MOL   H34221734   4.964   1.582   5.969 -1.1369 -0.4722 -0.1053
   57MOL   H34321735   5.055   1.484   6.078 -1.9524 -1.2641  1.5252
   57MOL   C34421736   4.725   1.278   6.326  0.2417  0.0445 -0.3007
   57MOL   C34521737   4.671   1.175   6.224 -0.5502 -0.9674 -0.2678
   57MOL   C34621738   4.641   1.244   6.087 -0.2544 -0.4667 -0.2056
   57MOL   O34721739   4.737   1.293   6.031 -1.1341  0.0197  0.1405
   57MOL   N34821740   4.517   1.238   6.037 -0.4859  0.6140 -0.3758
   57MOL   C34921741   4.473   1.311   5.919 -0.7117  0.1110  0.4580
   57MOL   C35021742   4.363   1.230   5.844 -0.1282 -0.6315 -0.6618
   57MOL   C35121743   4.435   1.462   5.943 -0.0914 -0.0303 -0.0550
   57MOL   H35221744   4.730   1.231   6.424  0.1269  1.1695  0.2402
   57MOL   H35321745   4.830   1.295   6.300 -0.0630  1.9870 -0.3149
   57MOL   H35421746   4.575   1.144   6.264 -0.4254  1.5964  2.2017
   57MOL   H35521747   4.447   1.182   6.082  0.4980 -0.9842 -0.8167
   57MOL   H35621748   4.557   1.311   5.851  0.3698  0.2813  1.7789
   57MOL   H35721749   4.384   1.123   5.834  2.3477 -0.0488 -2.1012
   57MOL   H35821750   4.269   1.248   5.896 -1.0798  2.3438 -3.3124
   57MOL   H35921751   4.344   1.268   5.744 -0.6755  0.3073 -0.2102
   57MOL   H36021752   4.515   1.507   6.002 -0.1995 -0.1054  0.1472
   57MOL   H36121753   4.430   1.522   5.852 -1.2356 -0.0036  0.0201
   57MOL   H36221754   4.341   1.458   5.998 -0.1736 -2.0607 -0.3127
   57MOL   C36321755   4.768   1.054   6.225  0.0376 -0.1255 -0.4885
   57MOL   C36421756   4.763   0.943   6.114  0.2539 -0.2927 -0.3775
   57MOL   C36521757   4.664   0.831   6.138  0.0890 -1.1798  0.2036
   57MOL   O36621758   4.566   0.844   6.213 -0.0283  0.6269 -0.2369
   57MOL   N36721759   4.699   0.718   6.074 -0.7256  0.2455 -0.6736
   57MOL   C36821760   4.624   0.593   6.075 -0.7207 -0.6139 -0.1687
   57MOL   C36921761   4.664   0.510   5.954 -0.7316  0.4735 -0.1223
   57MOL   C37021762   4.634   0.508   6.202 -0.1317 -0.4775 -0.5850
   57MOL   H37121763   4.770   0.993   6.315  0.9193  0.6898  0.0568
   57MOL   H37221764   4.873   1.082   6.217  0.2345 -0.8164 -0.2953
   57MOL   H37321765   4.862   0.898   6.104 -0.1283 -1.1097 -0.5515
   57MOL   H37421766   4.779   0.725   6.012  0.0926  2.6062  0.5486
   57MOL   H37521767   4.520   0.626   6.076 -0.2944  0.7475  0.0438
   57MOL   H37621768   4.607   0.421   5.927  0.7849 -0.5433 -0.0278
   57MOL   H37721769   4.680   0.574   5.868  1.6366 -2.8351 -2.3016
   57MOL   H37821770   4.758   0.460   5.978 -0.3162  1.3841  0.1368
   57MOL   H37921771   4.594   0.551   6.294 -1.1702  1.4323 -1.9155
   57MOL   H38021772   4.574   0.418   6.186  2.0546 -2.0239 -0.4538
   57MOL   H38121773   4.728   0.456   6.221  0.2098  0.0611 -0.8188
   57MOL   H38221774   4.736   0.993   6.021 -1.4518  0.3321  0.4378
   58MOL     C121775   2.755   7.648   5.119 -0.5787 -0.0533  0.3987
   58MOL     C221776   2.786   7.801   5.126 -0.4069 -0.3685  0.0942
   58MOL     C321777   2.680   0.050   5.192  0.7830 -0.2153 -0.2124
   58MOL     O421778   2.570   7.835   5.223  0.2526 -0.3350 -0.2334
   58MOL     N521779   2.694   0.183   5.194  0.1118 -0.4685  0.1302
   58MOL     C621780   2.610   0.287   5.262 -0.0864  0.3276  0.5265
   58MOL     C721781   2.688   0.380   5.352  0.3325  0.6682  0.1802
   58MOL     C821782   2.534   0.372   5.156  0.5300  0.2092 -1.1949
   58MOL     H921783   2.653   7.622   5.091  0.6506 -3.6885 -1.0892
   58MOL    H1021784   2.770   7.601   5.216  0.7445 -0.4014  0.0312
   58MOL    H1121785   2.773   0.003   5.024  2.5978  0.8805  0.1471
   58MOL    H1221786   2.777   0.219   5.148  1.0651 -1.0143  1.4001
   58MOL    H1321787   2.541   0.230   5.323 -0.0626  0.2493  0.4808
   58MOL    H1421788   2.626   0.432   5.425  0.0506 -0.2242  0.5853
   58MOL    H1521789   2.747   0.446   5.288  2.8066 -1.2151  0.4369
   58MOL    H1621790   2.765   0.330   5.410 -0.5284  0.1586  0.9011
   58MOL    H1721791   2.481   0.455   5.203  1.4646  0.3380 -0.3560
   58MOL    H1821792   2.587   0.400   5.065  2.5158  0.5504  0.0513
   58MOL    H1921793   2.445   0.322   5.117 -1.2768  1.4409  1.1941
   58MOL    H2021794   2.818   7.597   5.045 -2.9410  0.3353 -1.9547
   58MOL    C2121795   2.932   0.005   5.171 -0.0155 -0.3119 -0.0185
   58MOL    C2221796   3.033   0.021   5.059  0.7576 -0.5143  0.6002
   58MOL    C2321797   2.987   0.138   4.970 -0.3582 -0.3847  0.6749
   58MOL    O2421798   2.939   0.237   5.028 -0.1821 -0.4005  0.4610
   58MOL    N2521799   3.007   0.138   4.840  0.6929 -0.1781  0.2894
   58MOL    C2621800   2.975   0.238   4.743  0.1471  0.2543 -0.1236
   58MOL    C2721801   2.910   0.175   4.616 -0.2499  0.0056  0.9175
   58MOL    C2821802   3.103   0.311   4.708 -0.7907  0.4062  0.1117
   58MOL    H2921803   2.974   7.769   5.241 -3.5794 -0.6485  1.8824
   58MOL    H3021804   2.933   0.095   5.232 -1.4152 -0.8981  0.9040
   58MOL    H3121805   3.128   0.050   5.104  0.4733 -0.5342  1.2074
   58MOL    H3221806   3.061   0.062   4.801 -1.1769 -0.9439 -0.8582
   58MOL    H3321807   2.908   0.308   4.792  0.6083 -0.6191  1.7862
   58MOL    H3421808   2.806   0.155   4.642 -0.8553  0.1306 -1.2806
   58MOL    H3521809   2.961   0.088   4.574  0.4637  0.1798  1.4121
   58MOL    H3621810   2.925   0.245   4.534  0.4192 -0.2195  0.8427
   58MOL    H3721811   3.166   0.315   4.797 -2.4020  0.4812  1.2605
   58MOL    H3821812   3.156   0.258   4.629 -2.2974 -1.3160  0.2039
   58MOL    H3921813   3.081   0.414   4.682 -0.0381  0.2841 -1.0583
   58MOL    C4021814   3.061   7.722   4.981  0.3716 -0.4305 -0.2965
   58MOL    C4121815   3.209   7.699   4.929 -0.2397 -0.7372 -0.2244
   58MOL    C4221816   3.253   7.792   4.821 -0.6694  0.9726  0.2642
   58MOL    O4321817   3.202   7.787   4.716  0.5415 -0.3203  0.3632
   58MOL    N4421818   3.361   0.041   4.845  0.3407  0.8481 -0.6595
   58MOL    C4521819   3.403   0.134   4.751 -0.1354 -0.2300  1.1905
   58MOL    C4621820   3.461   0.262   4.817 -0.6200 -1.2960  0.4009
   58MOL    C4721821   3.509   0.062   4.671 -0.2600 -0.2893 -0.1201
   58MOL    H4821822   2.988   7.700   4.903 -0.3059  1.8173 -0.3151
   58MOL    H4921823   3.052   7.653   5.065 -1.8779  0.5172  0.2661
   58MOL    H5021824   3.276   7.713   5.014 -2.0197  0.9476  0.9497
   58MOL    H5121825   3.408   0.037   4.935 -3.3842 -0.7964  1.3609
   58MOL    H5221826   3.317   0.152   4.686  1.4815  0.4747 -0.7983
   58MOL    H5321827   3.380   0.307   4.874 -1.1957 -3.1682  1.0717
   58MOL    H5421828   3.497   0.338   4.747 -3.1129 -1.9630 -1.6609
   58MOL    H5521829   3.542   0.254   4.889 -1.0897  1.8329  1.3679
   58MOL    H5621830   3.556   0.129   4.599 -0.2148 -1.0045 -0.7600
   58MOL    H5721831   3.463   7.818   4.614 -0.4436 -1.4247  1.6026
   58MOL    H5821832   3.588   0.017   4.731 -0.8169 -1.7339 -0.4491
   58MOL    C5921833   3.229   7.550   4.897  0.1402  0.0132 -0.4547
   58MOL    C6021834   3.361   7.503   4.819 -0.1744 -0.3313  0.1895
   58MOL    C6121835   3.306   7.446   4.687 -0.3630 -0.3086  0.9879
   58MOL    O6221836   3.265   7.329   4.681 -0.6370 -0.6033 -0.3176
   58MOL    N6321837   3.293   7.539   4.586 -0.1764 -0.0174  0.0424
   58MOL    C6421838   3.231   7.506   4.456 -0.0399  0.0443 -0.0376
   58MOL    C6521839   3.094   7.573   4.446 -0.2548  0.0323  0.4941
   58MOL    C6621840   3.321   7.567   4.347 -0.3627  0.8109 -0.1443
   58MOL    H6721841   3.230   7.501   4.995 -0.0244  0.7873 -0.0631
   58MOL    H6821842   3.143   7.520   4.837 -0.1102 -1.5622  0.6722
   58MOL    H6921843   3.423   7.589   4.795  1.9445 -1.6885  0.6677
   58MOL    H7021844   3.324   7.633   4.606  0.8770 -0.4138  0.2922
   58MOL    H7121845   3.223   7.398   4.451  0.6723 -0.0857  1.3438
   58MOL    H7221846   3.035   7.574   4.538 -0.3494 -2.9599  0.5143
   58MOL    H7321847   3.092   7.674   4.407  0.2227 -0.0268  0.3123
   58MOL    H7421848   3.038   7.506   4.381 -1.2754  1.3282  0.0298
   58MOL    H7521849   3.275   7.553   4.249  0.0839 -1.1698 -0.0980
   58MOL    H7621850   3.324   7.673   4.370  0.0840  0.3980  1.8437
   58MOL    H7721851   3.422   7.527   4.331 -0.0164  2.3108 -1.8459
   58MOL    C7821852   3.456   7.408   4.896  0.0117  0.2877 -0.8270
   58MOL    C7921853   3.600   7.374   4.839 -0.0238  0.2720 -0.0702
   58MOL    C8021854   3.673   7.505   4.792 -0.3498  0.5497 -0.5172
   58MOL    O8121855   3.675   7.602   4.868 -0.1721  0.0826 -0.1084
   58MOL    N8221856   3.732   7.517   4.668  0.0615  0.0164 -0.2375
   58MOL    C8321857   3.794   7.643   4.617  0.1351  0.4550  0.6153
   58MOL    C8421858   3.951   7.626   4.618  0.5994 -0.5624 -0.1295
   58MOL    C8521859   3.737   7.680   4.475 -0.2674  0.0455 -0.1279
   58MOL    H8621860   3.400   7.320   4.925 -3.3545  1.8902 -2.2151
   58MOL    H8721861   3.469   7.465   4.988  2.1335  0.4282 -1.1925
   58MOL    H8821862   3.585   7.329   4.741 -0.0600 -0.7097  0.3813
   58MOL    H8921863   3.724   7.437   4.607 -1.2447  0.2841 -0.4418
   58MOL    H9021864   3.774   7.727   4.684 -2.9831  0.9694 -0.8910
   58MOL    H9121865   3.987   7.616   4.720 -0.2964 -0.6208  0.1841
   58MOL    H9221866   3.975   7.534   4.564 -1.7027 -1.9051  1.0859
   58MOL    H9321867   3.999   7.713   4.573 -5.1168  2.1450 -1.3400
   58MOL    H9421868   3.630   7.684   4.453 -0.4928 -0.4840  0.8274
   58MOL    H9521869   3.800   7.635   4.399 -0.7972  0.0325 -0.5634
   58MOL    H9621870   3.745   7.787   4.459  1.0151 -0.2781 -1.7453
   58MOL    C9721871   3.702   7.279   4.921  0.3070 -0.4834  0.2857
   58MOL    C9821872   3.842   7.235   4.857 -0.3095 -0.2516  0.6848
   58MOL    C9921873   3.818   7.177   4.718 -0.4890 -0.1037 -0.0939
   58MOL   O10021874   3.757   7.069   4.724 -0.2255  0.1771  0.5811
   58MOL   N10121875   3.854   7.238   4.604 -0.1596 -0.4184  0.1422
   58MOL   C10221876   3.844   7.177   4.475 -0.3623  0.0466  0.2612
   58MOL   C10321877   3.849   7.281   4.355 -0.2058  0.6467  0.3016
   58MOL   C10421878   3.947   7.064   4.457  0.2682  0.1702 -0.5610
   58MOL   H10521879   3.651   7.191   4.961 -1.4617  0.2965 -0.1889
   58MOL   H10621880   3.742   7.339   5.002 -0.0674 -1.2495  1.0482
   58MOL   H10721881   3.887   7.332   4.836 -0.7510 -0.4455 -1.2221
   58MOL   H10821882   3.913   7.319   4.617 -0.7492 -0.0275  0.4548
   58MOL   H10921883   3.742   7.140   4.464 -0.8699  1.0843  1.4159
   58MOL   H11021884   3.823   7.228   4.264  4.9265 -0.7236 -0.5089
   58MOL   H11121885   3.768   7.351   4.379 -1.0429 -0.3159  0.3132
   58MOL   H11221886   3.948   7.324   4.344  0.1173 -0.0696  0.4227
   58MOL   H11321887   3.942   7.012   4.361 -0.8442 -0.7750  0.0085
   58MOL   H11421888   3.951   6.988   4.535 -1.5910  0.4396 -0.1873
   58MOL   H11521889   4.049   7.104   4.451 -0.5143  2.6214  1.3148
   58MOL   C11621890   3.927   7.155   4.948  0.6362 -0.0633 -0.0729
   58MOL   C11721891   4.075   7.150   4.915 -0.8466  0.1412 -0.0009
   58MOL   C11821892   4.152   7.044   5.002  0.4066 -0.1317 -0.0755
   58MOL   O11921893   4.209   7.086   5.102 -0.0690 -0.3838 -0.0659
   58MOL   N12021894   4.157   6.918   4.961 -0.2083 -0.0508  0.4704
   58MOL   C12121895   4.212   6.812   5.044 -0.4488  0.0362  0.3762
   58MOL   C12221896   4.096   6.747   5.127  0.8144 -0.0235 -0.4038
   58MOL   C12321897   4.288   6.722   4.950  0.7266 -0.0643  0.2216
   58MOL   H12421898   3.890   7.053   4.947 -0.8506  0.4696 -1.9780
   58MOL   H12521899   3.916   7.187   5.052  1.2225  2.0944 -0.6500
   58MOL   H12621900   4.093   7.113   4.814 -3.4064  0.8818 -0.7625
   58MOL   H12721901   4.133   6.896   4.865  0.2952 -0.6565  0.4739
   58MOL   H12821902   4.279   6.853   5.119  0.4274 -0.4825 -0.1133
   58MOL   H12921903   4.040   6.824   5.180 -0.8214 -0.7180 -1.0708
   58MOL   H13021904   4.126   6.679   5.207 -0.4103 -2.1772 -1.7160
   58MOL   H13121905   4.018   6.703   5.064 -0.4478  0.4234  0.8254
   58MOL   H13221906   4.217   6.697   4.871  1.6868 -1.7413 -0.1325
   58MOL   H13321907   4.372   6.781   4.911  0.5251 -0.5810 -1.0305
   58MOL   H13421908   4.333   6.640   5.005  1.6271  0.2025 -0.0949
   58MOL   C13521909   4.136   7.295   4.924 -0.2105 -0.0257  0.7924
   58MOL   C13621910   4.263   7.323   4.843 -0.2175  0.2347  0.1870
   58MOL   C13721911   4.234   7.293   4.693  0.2208  0.8381  0.7382
   58MOL   O13821912   4.127   7.324   4.641  1.1420 -0.1309 -0.1007
   58MOL   N13921913   4.329   7.229   4.623 -0.5071  0.1282  0.1654
   58MOL   C14021914   4.339   7.205   4.481 -0.0166  0.7528  0.1347
   58MOL   C14121915   4.477   7.130   4.456 -1.0482  0.1852  0.3757
   58MOL   C14221916   4.333   7.330   4.390  0.2141 -0.5980 -0.4721
   58MOL   H14321917   4.162   7.326   5.025  2.4472  2.4487 -0.5951
   58MOL   H14421918   4.076   7.385   4.911  0.1132  0.1883  0.7797
   58MOL   H14521919   4.334   7.248   4.880  1.1489 -0.9596 -4.4984
   58MOL   H14621920   4.415   7.197   4.667  1.7808 -0.9094 -4.7246
   58MOL   H14721921   4.255   7.138   4.463 -0.1626  1.2596 -1.0884
   58MOL   H14821922   4.500   7.126   4.350 -0.2794  1.9258  0.4525
   58MOL   H14921923   4.557   7.180   4.509 -0.5275  0.1129 -0.3388
   58MOL   H15021924   4.475   7.024   4.479  1.3056  0.0705  0.1498
   58MOL   H15121925   4.340   7.313   4.283 -1.7347 -0.8713 -0.5771
   58MOL   H15221926   4.423   7.390   4.403  0.2385 -0.9154  0.9180
   58MOL   H15321927   4.250   7.399   4.407  1.7676  1.9219 -2.6347
   58MOL   C15421928   4.309   7.467   4.869  0.1319  0.0754  0.3813
   58MOL   C15521929   4.415   7.535   4.780  0.3476  0.1136  0.4060
   58MOL   C15621930   4.537   7.456   4.762 -0.0305 -0.4274 -0.1701
   58MOL   O15721931   4.580   7.382   4.853 -0.2741  0.1324  0.8274
   58MOL   N15821932   4.604   7.471   4.647 -0.3756  0.1835 -0.5158
   58MOL   C15921933   4.731   7.404   4.606  0.0214  0.2715  0.3123
   58MOL   C16021934   4.856   7.474   4.656  0.1086  0.3634 -0.3586
   58MOL   C16121935   4.732   7.395   4.456 -0.0677  0.2861 -0.6148
   58MOL   H16221936   4.352   7.451   4.969  0.1935 -4.7794 -0.2858
   58MOL   H16321937   4.219   7.528   4.872 -0.0335 -0.1731  0.4245
   58MOL   H16421938   4.371   7.553   4.683  1.4417  0.1775 -0.0874
   58MOL   H16521939   4.552   7.520   4.576 -0.8852 -2.0462 -1.7360
   58MOL   H16621940   4.743   7.304   4.648  1.6777 -0.5849 -2.1153
   58MOL   H16721941   4.848   7.576   4.621 -0.2944 -0.2258 -2.0232
   58MOL   H16821942   4.857   7.467   4.765 -0.8544 -0.4854 -0.4010
   58MOL   H16921943   4.946   7.422   4.623  0.2249  0.0502  0.4328
   58MOL   H17021944   4.770   7.488   4.413 -0.1201  0.7317  0.2923
   58MOL   H17121945   4.633   7.375   4.415 -0.9513 -1.4772  2.1982
   58MOL   H17221946   4.792   7.308   4.428 -1.9064 -1.4631  0.6905
   58MOL   C17321947   4.453   7.680   4.821 -0.4824 -0.6467  0.1065
   58MOL   C17421948   4.509   7.784   4.714 -0.4952  0.1299 -0.4005
   58MOL   C17521949   4.420   7.799   4.594  0.2744 -0.6906  0.0059
   58MOL   O17621950   4.300   7.796   4.607  0.5579  0.5735  0.1710
   58MOL   N17721951   4.484   7.803   4.474  0.5639 -0.0444 -0.3592
   58MOL   C17821952   4.418   7.821   4.349 -0.3023  0.2346  0.1323
   58MOL   C17921953   4.441   7.696   4.265 -0.2914  0.1262 -0.2319
   58MOL   C18021954   4.462   0.113   4.288 -0.0872 -0.4500 -0.3475
   58MOL   H18121955   4.526   7.675   4.903  0.2266 -1.4121 -0.5565
   58MOL   H18221956   4.365   7.724   4.866  0.1849 -1.0731  1.8920
   58MOL   H18321957   4.603   7.735   4.688 -0.3607  0.9131 -1.4139
   58MOL   H18421958   4.584   7.813   4.474  0.6052 -0.4273 -1.1624
   58MOL   H18521959   4.311   7.827   4.366  0.0532  4.1906  1.3908
   58MOL   H18621960   4.547   7.671   4.261 -0.6879 -1.5560 -0.5595
   58MOL   H18721961   4.399   7.703   4.165 -1.1499  2.3971  0.2590
   58MOL   H18821962   4.391   7.622   4.327 -0.0226 -0.0844 -0.2709
   58MOL   H18921963   4.445   0.198   4.354 -1.6790 -0.5220 -0.6410
   58MOL   H19021964   4.416   0.132   4.191  0.7192 -2.8876 -1.2601
   58MOL   H19121965   4.569   0.120   4.268 -0.8399 -0.7666 -5.0471
   58MOL   C19221966   4.538   0.085   4.784  0.1765  0.1400  0.0350
   58MOL   C19321967   4.660   0.161   4.739  0.3133 -0.2007  0.1045
   58MOL   C19421968   4.658   0.208   4.592 -0.2821 -0.2641 -0.4705
   58MOL   O19521969   4.728   0.151   4.509  0.1030  0.0288  0.4784
   58MOL   N19621970   4.583   0.315   4.556  0.7342  0.6947  0.0131
   58MOL   C19721971   4.491   0.388   4.633  0.2475  0.2467 -0.3586
   58MOL   C19821972   4.547   0.533   4.627  0.0670  0.1410  1.1193
   58MOL   C19921973   4.352   0.370   4.574  0.4383 -0.0768  0.2063
   58MOL   H20021974   4.543   0.081   4.893  4.1956 -0.1680 -0.0741
   58MOL   H20121975   4.453   0.152   4.775  0.1613 -0.0599 -1.4072
   58MOL   H20221976   4.650   0.253   4.797 -1.3805  0.3786 -1.0548
   58MOL   H20321977   4.575   0.343   4.459  0.0907 -2.1442 -0.8068
   58MOL   H20421978   4.479   0.353   4.735  1.3841  1.8709  0.3525
   58MOL   H20521979   4.650   0.553   4.656  1.0388 -2.0276 -0.7301
   58MOL   H20621980   4.478   0.596   4.683  0.3948  0.8346  0.7470
   58MOL   H20721981   4.560   0.558   4.522  1.4758 -1.6076  0.8453
   58MOL   H20821982   4.304   0.275   4.601 -0.1569  0.1497 -0.0370
   58MOL   H20921983   4.356   0.380   4.466 -1.0395 -0.2280  0.1163
   58MOL   H21021984   4.288   0.450   4.613 -0.6412 -0.5556 -0.5463
   58MOL   C21121985   4.790   0.088   4.775  0.6266 -0.6638  0.2261
   58MOL   C21221986   4.916   0.176   4.776 -0.0640 -0.5443  0.1798
   58MOL   C21321987   4.928   0.239   4.917  0.0517 -0.1329  0.5608
   58MOL   O21421988   4.922   0.169   5.018 -0.1559  0.6320 -0.0039
   58MOL   N21521989   4.942   0.374   4.920  0.3978  0.4477 -0.2088
   58MOL   C21621990   4.892   0.464   5.022 -0.3716  0.4456 -0.1371
   58MOL   C21721991   4.881   0.606   4.970  0.0676 -1.0297 -0.3432
   58MOL   C21821992   4.971   0.448   5.157 -0.4437  0.7153  0.0542
   58MOL   H21921993   4.800   7.836   4.711 -3.3277 -0.5882 -0.6320
   58MOL   H22021994   4.772   0.046   4.874 -1.5851  1.7103  0.8743
   58MOL   H22121995   4.897   0.252   4.700  1.9115 -1.2683 -1.0945
   58MOL   H22221996   4.953   0.418   4.830  1.7089  2.8244  1.0681
   58MOL   H22321997   4.790   0.435   5.045 -1.1133  3.4324  0.5909
   58MOL   H22421998   4.823   0.614   4.878 -0.5021  0.1505  0.1092
   58MOL   H22521999   4.821   0.664   5.040  2.1320  0.1614  0.4961
   58MOL   H22622000   4.978   0.655   4.972 -2.0315  3.3704  0.0220
   58MOL   H22722001   4.907   0.424   5.241  0.3038  0.3376  0.5283
   58MOL   H22822002   5.022   0.536   5.195  1.7616 -0.9750  1.1259
   58MOL   H22922003   5.028   0.356   5.170 -0.4211  1.2158  4.1189
   58MOL   C23022004   5.036   0.085   4.741 -0.5821 -0.4575 -0.2414
   58MOL   C23122005   5.056   0.059   4.589  0.1081 -0.1483 -0.1009
   58MOL   C23222006   5.114   0.189   4.519 -0.0442 -0.4324 -0.3069
   58MOL   O23322007   5.214   0.241   4.560  0.1356  0.0570  0.0544
   58MOL   N23422008   5.044   0.234   4.408  0.2306  0.3638 -0.2170
   58MOL   C23522009   5.084   0.358   4.341  0.2481  0.1059  0.3033
   58MOL   C23622010   5.141   0.316   4.206  0.3161 -0.4169 -0.3451
   58MOL   C23722011   4.956   0.442   4.324  0.3680  0.0311 -0.6866
   58MOL   H23822012   5.042   7.822   4.785  0.1336 -0.6167 -0.6941
   58MOL   H23922013   5.122   0.146   4.770 -0.9243 -0.0819 -0.0166
   58MOL   H24022014   4.960   0.036   4.544  0.5627  0.8010 -1.5936
   58MOL   H24122015   4.947   0.206   4.403  0.3724 -0.1361 -0.2251
   58MOL   H24222016   5.148   0.430   4.393  1.3463 -0.4664 -0.2485
   58MOL   H24322017   5.087   0.231   4.162 -1.0863 -0.0755  0.6679
   58MOL   H24422018   5.143   0.396   4.132 -1.5117  1.2184  1.3174
   58MOL   H24522019   5.241   0.286   4.235 -0.9801 -3.9319  0.7512
   58MOL   H24622020   4.871   0.380   4.293  1.5068 -1.7196 -0.3985
   58MOL   H24722021   4.972   0.522   4.252  0.5043  1.5656  1.0257
   58MOL   H24822022   4.935   0.486   4.421  3.4911 -0.4745  0.2434
   58MOL   C24922023   5.146   7.781   4.561 -0.3623 -0.6892  0.3984
   58MOL   C25022024   5.168   7.744   4.410  0.4205 -0.4898 -0.3213
   58MOL   C25122025   5.049   7.688   4.340 -0.4796 -0.3869 -0.7629
   58MOL   O25222026   4.986   7.598   4.388 -0.1816 -0.8554 -0.1210
   58MOL   N25322027   5.026   7.741   4.219 -0.4100 -0.1485  0.3987
   58MOL   C25422028   4.908   7.699   4.144  0.0440 -0.2148 -0.7407
   58MOL   C25522029   4.789   7.794   4.172  0.0774  0.1740 -0.6904
   58MOL   C25622030   4.938   7.694   3.992  0.0659  0.2593 -0.6026
   58MOL   H25722031   5.099   7.691   4.601  0.0138 -1.8560 -1.7081
   58MOL   H25822032   5.235   7.790   4.624 -1.4712  0.5478  1.8402
   58MOL   H25922033   5.180   0.001   4.354 -0.0960 -0.1279  0.1586
   58MOL   H26022034   5.091   7.812   4.190  1.0525 -2.0994 -1.2459
   58MOL   H26122035   4.891   7.597   4.177  0.2472  0.5218  1.7538
   58MOL   H26222036   4.707   7.774   4.102  0.3945 -0.3394 -0.9170
   58MOL   H26322037   4.737   7.781   4.267  0.2392  3.0003 -0.1802
   58MOL   H26422038   4.809   0.065   4.169  3.2309 -0.3014  1.1749
   58MOL   H26522039   4.981   7.788   3.956 -0.7288  0.7403 -0.3270
   58MOL   H26622040   5.004   7.617   3.954 -1.4347 -1.0994 -0.5171
   58MOL   H26722041   4.846   7.669   3.939  0.9291 -1.1512 -1.4642
   58MOL   C26822042   5.291   7.649   4.377  0.2580 -0.6747 -0.0162
   58MOL   C26922043   5.425   7.723   4.347  0.0582  0.5143  0.2641
   58MOL   C27022044   5.435   7.783   4.211  0.7372  0.1695  0.5519
   58MOL   O27122045   5.340   0.013   4.171 -0.0312 -0.0903 -0.3679
   58MOL   N27222046   5.536   7.747   4.129  0.0806 -0.3550 -0.0573
   58MOL   C27322047   5.569   7.818   4.002 -0.1987  0.2848 -0.6243
   58MOL   C27422048   5.697   0.059   4.028  0.3766  0.1865 -0.2050
   58MOL   C27522049   5.597   7.732   3.886 -0.2143 -0.1406  0.3561
   58MOL   H27622050   5.321   7.591   4.464  0.3989 -1.2823 -0.4706
   58MOL   H27722051   5.268   7.593   4.287 -0.9291  2.2709 -1.6316
   58MOL   H27822052   5.502   7.645   4.344 -0.7118 -0.2031 -3.9079
   58MOL   H27922053   5.605   7.685   4.167  2.7613  1.9520 -0.9675
   58MOL   H28022054   5.489   0.054   3.983 -0.1295  0.4484 -0.3008
   58MOL   H28122055   5.696   0.119   4.118 -0.3471 -0.4564  0.2158
   58MOL   H28222056   5.785   7.831   4.038  0.5219  0.4269  0.0624
   58MOL   H28322057   5.723   0.123   3.943  0.3701 -1.5186 -1.5412
   58MOL   H28422058   5.657   7.766   3.801  1.1721 -0.9217  1.0135
   58MOL   H28522059   5.646   7.639   3.916 -1.6193  0.2770  4.1415
   58MOL   H28622060   5.508   7.704   3.830 -0.9434 -0.5735  1.7167
   58MOL   C28722061   5.461   7.830   4.459  0.5403 -0.0966 -0.4333
   58MOL   C28822062   5.603   0.065   4.462  0.5094 -0.7831 -0.2961
   58MOL   C28922063   5.720   7.800   4.477  0.2011 -0.4397 -0.6437
   58MOL   O29022064   5.694   7.689   4.525 -0.5117 -0.5076  0.3518
   58MOL   N29122065   5.838   7.836   4.432 -0.2154 -0.1687  0.3355
   58MOL   C29222066   5.960   7.756   4.430  0.0773 -0.2557  0.1044
   58MOL   C29322067   6.051   7.818   4.330 -0.1921 -0.3875 -0.9791
   58MOL   C29422068   6.022   7.765   4.573 -0.2253  0.1108  0.5629
   58MOL   H29522069   5.381   0.066   4.441  0.3568  0.1621  1.3381
   58MOL   H29622070   5.446   7.781   4.555  1.8701 -1.0856 -0.7091
   58MOL   H29722071   5.617   0.119   4.368  0.1709 -0.7074 -0.3032
   58MOL   H29822072   5.858   0.088   4.388  1.0882 -1.8263 -2.5802
   58MOL   H29922073   5.938   7.651   4.408 -1.3107 -0.2086  1.2407
   58MOL   H30022074   5.999   7.823   4.234 -1.3862 -2.6114 -0.4886
   58MOL   H30122075   6.073   0.084   4.361  1.7709 -1.4879  1.4426
   58MOL   H30222076   6.147   7.773   4.304  0.8974  1.6821 -0.6371
   58MOL   H30322077   6.119   7.720   4.591 -0.4215 -0.4723  0.1576
   58MOL   H30422078   6.030   0.034   4.598 -0.0657  0.6795 -1.7212
   58MOL   H30522079   5.950   7.713   4.636  1.2841 -0.9192  1.4541
   58MOL   C30622080   5.607   0.171   4.574 -0.1906 -0.3225  0.8629
   58MOL   C30722081   5.543   0.128   4.713  1.0356  0.8080  0.0864
   58MOL   C30822082   5.521   0.257   4.795 -0.6263 -0.6876  0.2037
   58MOL   O30922083   5.613   0.299   4.865 -0.1817  0.5188  0.4598
   58MOL   N31022084   5.401   0.323   4.786  0.0859 -0.4926 -0.0086
   58MOL   C31122085   5.370   0.436   4.862  0.1772 -0.5516 -0.1259
   58MOL   C31222086   5.273   0.528   4.791  0.0067 -0.2040  0.0890
   58MOL   C31322087   5.298   0.384   4.992  0.1305 -0.4202  0.0544
   58MOL   H31422088   5.708   0.189   4.609 -0.9089 -0.9515  3.4079
   58MOL   H31522089   5.557   0.264   4.546 -0.0349  0.2362  2.3886
   58MOL   H31622090   5.441   0.089   4.700  0.9318  1.4425 -1.1084
   58MOL   H31722091   5.334   0.278   4.726  2.0900  0.3576 -2.9509
   58MOL   H31822092   5.455   0.498   4.890 -0.3759 -0.9280  2.5325
   58MOL   H31922093   5.329   0.573   4.709 -0.6513 -0.5809 -0.5711
   58MOL   H32022094   5.246   0.615   4.851 -0.4850 -0.3673  0.1030
   58MOL   H32122095   5.186   0.472   4.759 -1.3205  1.4142  0.7752
   58MOL   H32222096   5.272   0.462   5.064 -0.4525  0.4007 -1.0286
   58MOL   H32322097   5.377   0.322   5.034 -0.1014  1.1241  2.9091
   58MOL   H32422098   5.209   0.330   4.960 -0.2435  0.6924 -0.8094
   58MOL   C32522099   5.626   0.015   4.787  0.4405 -0.0609 -0.1455
   58MOL   C32622100   5.582   7.804   4.932  0.0072  1.0104 -0.2417
   58MOL   C32722101   5.433   7.772   4.936  0.3745  0.0099  0.1535
   58MOL   O32822102   5.365   7.723   4.842 -0.4207  0.3726 -0.0822
   58MOL   N32922103   5.379   7.815   5.051 -0.5214 -0.5615 -0.4111
   58MOL   C33022104   5.241   7.820   5.093 -0.0962  0.2981 -0.7194
   58MOL   C33122105   5.211   0.099   5.191  0.2005  0.7571 -0.1458
   58MOL   C33222106   5.204   7.679   5.145 -0.2700 -0.1172  0.8093
   58MOL   H33322107   5.732   0.038   4.792  0.4907 -0.5027  0.9618
   58MOL   H33422108   5.620   7.762   4.725 -0.0948 -0.7833  0.9273
   58MOL   H33522109   5.607   0.048   5.000 -0.6025  0.7422  0.3063
   58MOL   H33622110   5.448   0.017   5.114  2.5149 -2.5605 -2.3850
   58MOL   H33722111   5.185   0.007   5.003  2.0733 -0.0325 -2.1759
   58MOL   H33822112   5.207   0.192   5.134  0.5565  1.2515  0.6266
   58MOL   H33922113   5.128   0.072   5.255 -0.3294 -2.6888 -2.1589
   58MOL   H34022114   5.299   0.118   5.252 -0.0937 -0.1933  0.5856
   58MOL   H34122115   5.103   7.693   5.184  0.5237 -0.2179  2.9332
   58MOL   H34222116   5.267   7.640   5.224 -1.5930 -0.2681  1.7973
   58MOL   H34322117   5.192   7.615   5.057  0.0409  1.3193 -0.3136
   58MOL   C34422118   5.658   7.684   4.986  0.2124  0.3069  0.7350
   58MOL   C34522119   5.623   7.553   4.916 -0.5371  0.6560 -0.9934
   58MOL   C34622120   5.755   7.486   4.879  1.0425  0.8717  0.1519
   58MOL   O34722121   5.849   7.482   4.958  0.2668 -0.2315 -0.6394
   58MOL   N34822122   5.758   7.425   4.759  0.3599  0.5769  0.4352
   58MOL   C34922123   5.866   7.341   4.702 -0.3864  0.2425 -0.0927
   58MOL   C35022124   5.823   7.192   4.714  0.0033  0.0892  0.0712
   58MOL   C35122125   5.906   7.377   4.554  0.2799 -0.2177 -0.3549
   58MOL   H35222126   5.639   7.684   5.093  0.7969 -2.9819  0.8862
   58MOL   H35322127   5.763   7.713   4.993 -0.0794  1.2674  1.2964
   58MOL   H35422128   5.575   7.570   4.819 -0.8687  0.8843 -0.7914
   58MOL   H35522129   5.686   7.452   4.694  1.4060  1.6155 -0.3264
   58MOL   H35622130   5.947   7.363   4.772 -0.0061 -0.5386 -0.2774
   58MOL   H35722131   5.731   7.167   4.661 -0.2046  1.7882 -0.4184
   58MOL   H35822132   5.889   7.116   4.675  1.5318  2.3431 -1.8887
   58MOL   H35922133   5.789   7.166   4.814 -2.0546 -2.4290 -1.2289
   58MOL   H36022134   5.827   7.368   4.480 -1.1213  0.4401  1.0444
   58MOL   H36122135   5.943   7.479   4.545  2.8686 -0.8612  2.2669
   58MOL   H36222136   5.991   7.317   4.521  1.2120  1.5487 -1.2756
   58MOL   C36322137   5.539   7.451   5.007  0.3200  0.5630 -0.4910
   58MOL   C36422138   5.587   7.410   5.148  0.5120 -0.0549 -0.1281
   58MOL   C36522139   5.471   7.347   5.236 -0.5617 -0.1697 -0.5493
   58MOL   O36622140   5.401   7.256   5.188 -0.1028 -0.0836 -0.0234
   58MOL   N36722141   5.456   7.402   5.362 -0.3231 -0.3815  0.3157
   58MOL   C36822142   5.352   7.372   5.465 -0.6409  0.6476 -0.3188
   58MOL   C36922143   5.388   7.439   5.594 -0.6789 -0.0790  0.2014
   58MOL   C37022144   5.203   7.391   5.421 -0.3628  0.9722 -0.3696
   58MOL   H37122145   5.504   7.365   4.950  0.6271  0.5427 -0.6521
   58MOL   H37222146   5.447   7.507   5.024 -0.5648 -0.3211 -2.2615
   58MOL   H37322147   5.629   7.495   5.202  1.1363 -0.2216 -0.3516
   58MOL   H37422148   5.513   7.482   5.385 -1.2991  0.7352 -1.0890
   58MOL   H37522149   5.358   7.266   5.486  1.2973  0.3929 -2.0294
   58MOL   H37622150   5.321   7.411   5.676 -1.1139  0.2062 -0.0547
   58MOL   H37722151   5.490   7.412   5.621 -0.4764 -2.5776 -2.7846
   58MOL   H37822152   5.378   7.546   5.577  1.1543  0.0336 -0.2380
   58MOL   H37922153   5.191   7.327   5.334 -1.9076  0.6087  0.1020
   58MOL   H38022154   5.138   7.364   5.504  2.1091 -1.1118  0.9927
   58MOL   H38122155   5.179   7.491   5.385  2.2500  2.9471  3.0398
   58MOL   H38222156   5.670   7.340   5.147  0.5935  0.0363  0.2267
   59MOL     C122157   6.539   3.192   5.320 -0.2683 -0.1322  0.3439
   59MOL     C222158   6.529   3.245   5.471 -0.5203  0.0805 -0.5000
   59MOL     C322159   6.586   3.148   5.570  0.2850 -0.4468  0.0255
   59MOL     O422160   6.693   3.163   5.630 -0.3602 -0.3083 -0.6880
   59MOL     N522161   6.509   3.040   5.590  0.2819 -0.1198  0.0165
   59MOL     C622162   6.527   2.943   5.698  0.2778 -0.6787  0.3428
   59MOL     C722163   6.399   2.917   5.770  0.4870 -0.9743  0.7332
   59MOL     C822164   6.580   2.817   5.621  0.4653  0.8212  0.5108
   59MOL     H922165   6.511   3.086   5.316 -0.9025  0.1059 -1.7240
   59MOL    H1022166   6.637   3.215   5.279 -1.0563 -0.2990 -1.6779
   59MOL    H1122167   6.423   3.240   5.495 -0.8290  0.0290 -1.8323
   59MOL    H1222168   6.429   3.036   5.529 -0.4061  1.0967  0.7969
   59MOL    H1322169   6.590   2.976   5.780 -0.1793 -1.8815  1.1904
   59MOL    H1422170   6.411   2.856   5.859 -0.8931 -4.3034 -1.2476
   59MOL    H1522171   6.327   2.855   5.717  0.0491 -0.1528  0.3432
   59MOL    H1622172   6.342   3.007   5.794  0.2569 -1.1190  0.7297
   59MOL    H1722173   6.593   2.743   5.700 -1.2302 -0.9481 -0.8421
   59MOL    H1822174   6.515   2.773   5.546  3.1406 -0.6606 -1.0099
   59MOL    H1922175   6.680   2.829   5.579  0.3606 -0.8518 -0.2413
   59MOL    H2022176   6.457   3.232   5.260  1.0999  0.9706 -0.8300
   59MOL    C2122177   6.588   3.387   5.480 -0.5641 -0.5135 -0.1321
   59MOL    C2222178   6.567   3.454   5.624 -0.2161  0.0513  0.7198
   59MOL    C2322179   6.425   3.449   5.680 -0.8094 -0.1066 -0.9923
   59MOL    O2422180   6.335   3.523   5.647  0.3246 -0.5820 -0.1392
   59MOL    N2522181   6.403   3.361   5.774  0.3662 -0.0558  0.4188
   59MOL    C2622182   6.278   3.318   5.834  0.0705  0.0915  0.1069
   59MOL    C2722183   6.179   3.269   5.732  0.0977  0.5553 -0.3350
   59MOL    C2822184   6.219   3.427   5.919 -0.6932  0.1620 -0.0655
   59MOL    H2922185   6.521   3.451   5.421 -0.8911 -1.1214 -0.4268
   59MOL    H3022186   6.691   3.384   5.444 -0.1720 -0.1291  0.9602
   59MOL    H3122187   6.629   3.394   5.689  0.8953  0.7391  0.3187
   59MOL    H3222188   6.488   3.328   5.818  0.6568  1.0063  0.6754
   59MOL    H3322189   6.313   3.244   5.905 -2.1604  1.7088  2.9919
   59MOL    H3422190   6.223   3.196   5.663 -0.3503  0.1075 -0.1497
   59MOL    H3522191   6.129   3.338   5.665 -0.5029  1.9032  1.4835
   59MOL    H3622192   6.100   3.216   5.784  1.4260 -3.4897 -2.2292
   59MOL    H3722193   6.304   3.466   5.975  1.0165 -4.0089  0.4561
   59MOL    H3822194   6.155   3.492   5.859 -0.3681  0.8317  0.3180
   59MOL    H3922195   6.160   3.382   5.999  0.6566 -0.2031  0.7511
   59MOL    C4022196   6.613   3.598   5.611  0.1705 -0.7697 -0.0354
   59MOL    C4122197   6.695   3.638   5.739  0.1263  0.1152 -0.2820
   59MOL    C4222198   6.657   3.778   5.785 -0.1638  0.4197  0.1462
   59MOL    O4322199   6.680   3.879   5.721  0.1963 -0.3257  0.0516
   59MOL    N4422200   6.603   3.779   5.912  0.0631  0.6421  0.2437
   59MOL    C4522201   6.552   3.903   5.984  0.0739  0.0308  0.0073
   59MOL    C4622202   6.450   3.856   6.086 -0.4957  0.0070 -0.3709
   59MOL    C4722203   6.660   3.989   6.056 -0.4607 -0.1689 -0.2386
   59MOL    H4822204   6.535   3.672   5.598  0.8802  0.3194  1.6671
   59MOL    H4922205   6.675   3.614   5.523 -2.0205 -0.9955 -1.6573
   59MOL    H5022206   6.650   3.576   5.816 -1.4033 -0.2658 -1.4491
   59MOL    H5122207   6.591   3.694   5.964 -0.3951  0.2797 -0.4473
   59MOL    H5222208   6.486   3.955   5.914  1.1335 -0.9333 -1.7496
   59MOL    H5322209   6.493   3.780   6.151  3.0395  1.2599 -1.1204
   59MOL    H5422210   6.366   3.810   6.034  0.0751 -1.5461  0.0583
   59MOL    H5522211   6.415   3.940   6.147 -1.1981 -1.3854  1.1749
   59MOL    H5622212   6.729   3.936   6.122  0.3696 -1.3474 -2.0108
   59MOL    H5722213   6.605   4.069   6.107 -1.0594 -0.6323 -0.1533
   59MOL    H5822214   6.726   4.032   5.981  0.6646  1.1778  1.4796
   59MOL    C5922215   6.845   3.615   5.735 -0.4389 -0.7391  0.3685
   59MOL    C6022216   6.907   3.469   5.717  0.2190  0.0629 -0.1414
   59MOL    C6122217   6.879   3.399   5.853  0.7627  0.2578 -0.5664
   59MOL    O6222218   6.919   3.455   5.955 -0.1680 -0.3398 -0.7097
   59MOL    N6322219   6.797   3.290   5.861 -0.6046 -0.2430 -0.5709
   59MOL    C6422220   6.770   3.225   5.981 -0.0275 -0.3235  0.3677
   59MOL    C6522221   6.621   3.207   5.999  0.0188 -0.3517  0.2687
   59MOL    C6622222   6.843   3.090   5.983 -0.8693 -0.8798  0.0506
   59MOL    H6722223   6.863   3.654   5.635  0.5356 -0.2903  0.7131
   59MOL    H6822224   6.896   3.685   5.801 -2.0338 -0.5623  1.4497
   59MOL    H6922225   6.860   3.407   5.640  3.6343 -1.5963 -0.9700
   59MOL    H7022226   6.774   3.249   5.772 -0.6070  0.4150 -0.8814
   59MOL    H7122227   6.798   3.283   6.069 -0.7598  1.4885 -0.5684
   59MOL    H7222228   6.564   3.166   5.915 -1.0583  0.9019  0.3555
   59MOL    H7322229   6.615   3.126   6.072 -0.9593  0.1350  0.7469
   59MOL    H7422230   6.581   3.300   6.041  1.2681  0.8075 -1.0534
   59MOL    H7522231   6.797   3.024   5.909  0.7984 -0.3605 -1.4767
   59MOL    H7622232   6.948   3.106   5.961 -1.5355 -0.8734 -3.3714
   59MOL    H7722233   6.828   3.043   6.081 -1.6116 -1.7042 -0.4470
   59MOL    C7822234   7.048   3.475   5.684  1.0382 -0.4777 -0.5746
   59MOL    C7922235   7.112   3.343   5.636  0.5398  0.1138 -0.6677
   59MOL    C8022236   7.063   3.289   5.506  0.4355 -0.0954 -0.1545
   59MOL    O8122237   7.029   3.367   5.417  0.0990 -0.1364  0.3527
   59MOL    N8222238   7.057   3.156   5.484 -0.3142  0.1268  0.3306
   59MOL    C8322239   7.027   3.098   5.351  0.3651  0.1272 -0.8862
   59MOL    C8422240   7.149   3.006   5.304  0.4678  0.5928  0.3755
   59MOL    C8522241   6.891   3.024   5.359  0.5804  0.3659 -0.2823
   59MOL    H8622242   7.101   3.505   5.774 -0.8309  1.7651 -0.1917
   59MOL    H8722243   7.071   3.555   5.613  0.4188 -1.0532 -1.4347
   59MOL    H8822244   7.098   3.267   5.713  2.1034 -0.6366 -1.1016
   59MOL    H8922245   7.086   3.099   5.563  0.6663  1.0304  0.6378
   59MOL    H9022246   7.014   3.174   5.274  1.5691 -0.4318 -1.6589
   59MOL    H9122247   7.144   2.925   5.376 -0.8010  1.9106  1.8110
   59MOL    H9222248   7.134   2.965   5.204  1.6643 -0.5952  0.6779
   59MOL    H9322249   7.250   3.044   5.317  0.6683  0.3160 -0.3606
   59MOL    H9422250   6.802   3.087   5.348  1.8120  1.8673 -1.8640
   59MOL    H9522251   6.881   2.954   5.442  2.6188  3.0343  2.3205
   59MOL    H9622252   6.895   2.963   5.269 -0.8763  1.2013 -0.9351
   59MOL    C9722253   7.266   3.378   5.625 -0.0004  0.2991  0.1037
   59MOL    C9822254   7.367   3.254   5.602  0.2904 -0.5277 -0.0537
   59MOL    C9922255   7.340   3.134   5.692  0.4617  0.7625 -0.3016
   59MOL   O10022256   7.333   3.151   5.811  0.0680  0.4624 -0.4036
   59MOL   N10122257   7.308   3.017   5.629  0.9187  0.3594 -0.3552
   59MOL   C10222258   7.285   2.894   5.720  0.6064  0.5835 -0.1137
   59MOL   C10322259   7.140   2.845   5.709 -0.1242  0.8803  0.7424
   59MOL   C10422260   7.387   2.786   5.686  0.4940 -0.1203  0.3809
   59MOL   H10522261   7.303   3.423   5.717 -0.1843 -2.0636  1.3651
   59MOL   H10622262   7.282   3.448   5.543 -1.8716 -0.5104 -0.9961
   59MOL   H10722263   7.353   3.228   5.497  0.9663 -3.9614  0.6369
   59MOL   H10822264   7.320   2.994   5.531  1.3520  1.5350 -0.5920
   59MOL   H10922265   7.302   2.918   5.824 -0.4646 -3.0757  0.9769
   59MOL   H11022266   7.121   2.771   5.787  1.1733 -0.6003 -0.3088
   59MOL   H11122267   7.063   2.921   5.702 -2.1488 -1.1130  0.8040
   59MOL   H11222268   7.110   2.794   5.618 -1.9322  0.1698  1.7187
   59MOL   H11322269   7.381   2.768   5.578 -1.5223  1.9106  0.1352
   59MOL   H11422270   7.370   2.690   5.736  2.5353 -0.6721  0.0596
   59MOL   H11522271   7.490   2.810   5.711  1.1800 -2.3084 -0.2198
   59MOL   C11622272   7.515   3.302   5.605 -0.4309  0.0198 -0.2616
   59MOL   C11722273   7.620   3.191   5.570 -0.7277  0.4892 -0.5610
   59MOL   C11822274   7.694   3.139   5.700  0.3084  0.2894 -0.4661
   59MOL   O11922275   7.816   3.123   5.703  0.1575 -0.1278  0.0076
   59MOL   N12022276   7.622   3.121   5.812 -0.1706 -0.2038  0.1716
   59MOL   C12122277   7.665   3.075   5.944  0.5196  0.8376  0.0949
   59MOL   C12222278   7.554   3.122   6.041 -0.4802 -0.0647 -0.2733
   59MOL   C12322279   7.686   2.924   5.935 -0.4636 -0.4427  0.2005
   59MOL   H12422280   7.530   3.343   5.705 -1.1056 -1.0554  0.2864
   59MOL   H12522281   7.523   3.385   5.535 -1.6870  0.4269  0.0624
   59MOL   H12622282   7.569   3.097   5.547  0.3846 -0.0428 -0.8944
   59MOL   H12722283   7.523   3.141   5.810 -0.4059 -1.3193  0.3634
   59MOL   H12822284   7.760   3.126   5.962  1.4343 -0.2778 -1.4766
   59MOL   H12922285   7.457   3.074   6.027 -1.3433  1.0526  1.7057
   59MOL   H13022286   7.545   3.231   6.043 -2.4410 -0.2221  0.3753
   59MOL   H13122287   7.582   3.108   6.146  1.3708  1.7110 -0.5062
   59MOL   H13222288   7.742   2.908   5.843  0.1549  0.2832  0.4393
   59MOL   H13322289   7.730   2.888   6.028  0.7490  0.3178 -0.0601
   59MOL   H13422290   7.590   2.877   5.915 -0.1570 -0.7161 -0.6473
   59MOL   C13522291   7.724   3.248   5.462  0.1359 -0.8068  0.9943
   59MOL   C13622292   7.761   3.147   5.351  1.2261  0.2598 -0.2649
   59MOL   C13722293   7.643   3.117   5.261  0.5704 -0.1821  0.6594
   59MOL   O13822294   7.557   3.201   5.240 -0.7120 -0.7667 -0.3128
   59MOL   N13922295   7.640   2.991   5.209  0.3001  0.1670 -0.5346
   59MOL   C14022296   7.530   2.939   5.114  0.3459 -0.3530  0.3592
   59MOL   C14122297   7.438   2.834   5.180 -0.4928  0.0819 -0.3305
   59MOL   C14222298   7.605   2.885   4.996 -0.5015  0.2176 -0.1124
   59MOL   H14322299   7.823   3.279   5.497  0.0778 -1.9717  2.2591
   59MOL   H14422300   7.684   3.341   5.422 -1.1253 -1.2316  1.2426
   59MOL   H14522301   7.795   3.056   5.401  2.5048  0.2524 -1.1249
   59MOL   H14622302   7.728   2.942   5.213  0.7633  1.1570  4.0142
   59MOL   H14722303   7.474   3.019   5.066  0.1348 -0.5170  0.3327
   59MOL   H14822304   7.363   2.797   5.111 -2.0949  0.1583  1.3385
   59MOL   H14922305   7.493   2.746   5.215  0.1418  0.0923 -1.2766
   59MOL   H15022306   7.389   2.873   5.269  0.1556  2.5704 -1.0292
   59MOL   H15122307   7.640   2.784   5.019  1.5560  1.0618  0.6203
   59MOL   H15222308   7.696   2.945   4.985 -1.5314  2.2290  2.0440
   59MOL   H15322309   7.554   2.885   4.900  1.2895 -3.4209 -1.1769
   59MOL   C15422310   0.044   3.193   5.274 -0.2996  0.4064  0.0621
   59MOL   C15522311   0.043   3.330   5.204 -0.2171 -0.2364  0.3226
   59MOL   C15622312   0.084   3.325   5.054  0.1636  0.0760  0.4521
   59MOL   O15722313   0.199   3.295   5.029 -0.6408  0.5858  0.2713
   59MOL   N15822314   7.833   3.377   4.965 -0.5816  0.2598  0.3761
   59MOL   C15922315   0.021   3.385   4.821 -0.4412  0.0298 -0.6833
   59MOL   C16022316   0.067   3.527   4.779  0.4765 -0.0053  0.1279
   59MOL   C16122317   7.728   3.343   4.748 -0.6142  0.1797  0.4486
   59MOL   H16222318   0.071   3.121   5.196 -0.0827  0.8286 -0.2513
   59MOL   H16322319   0.123   3.189   5.349  0.1176 -2.2795 -0.4617
   59MOL   H16422320   7.780   3.374   5.207 -0.8744 -1.6817  0.1805
   59MOL   H16522321   7.742   3.403   5.001 -0.5555 -1.3897  1.6784
   59MOL   H16622322   0.101   3.314   4.797  0.8214  1.1453  0.1465
   59MOL   H16722323   0.005   3.610   4.812 -0.0001 -0.9151  1.5575
   59MOL   H16822324   0.165   3.542   4.825  0.3904  1.8626 -0.2432
   59MOL   H16922325   0.079   3.523   4.671  0.4742 -0.2756  0.1369
   59MOL   H17022326   7.698   3.247   4.790  2.1486 -0.9714 -0.0524
   59MOL   H17122327   7.756   3.334   4.643  0.1542  0.6845  0.6031
   59MOL   H17222328   7.651   3.420   4.747  1.9786  2.8539  1.0947
   59MOL   C17322329   0.125   3.433   5.286 -0.0128  0.7189  1.0914
   59MOL   C17422330   0.149   3.574   5.230  0.1657 -0.6224 -0.6250
   59MOL   C17522331   0.011   3.645   5.242  0.1302  0.0276 -0.7514
   59MOL   O17622332   7.807   3.681   5.353  0.1407  0.4104  0.0409
   59MOL   N17722333   7.780   3.659   5.126  0.2853  0.6170 -0.8145
   59MOL   C17822334   7.637   3.679   5.113  0.8839  1.3742 -0.6739
   59MOL   C17922335   7.577   3.598   5.003 -0.0095  0.2625  0.3269
   59MOL   C18022336   7.617   3.833   5.091  0.0947 -0.0895 -0.3031
   59MOL   H18122337   0.225   3.391   5.297  0.9955  2.6526 -0.2769
   59MOL   H18222338   0.078   3.447   5.383 -1.7025  1.0315  0.2368
   59MOL   H18322339   0.177   3.569   5.125 -1.0509 -1.9905 -0.9042
   59MOL   H18422340   7.831   3.617   5.050  0.2743 -0.6383 -0.1451
   59MOL   H18522341   7.581   3.649   5.201 -0.0433  0.9189 -1.4179
   59MOL   H18622342   7.473   3.624   4.983  0.9321  2.5947 -1.7802
   59MOL   H18722343   7.573   3.493   5.033  0.5821 -0.4026 -1.7731
   59MOL   H18822344   7.625   3.615   4.907  0.1788 -0.2925  0.3177
   59MOL   H18922345   7.683   3.899   5.148 -1.0753  0.8484  0.0060
   59MOL   H19022346   7.516   3.863   5.121  0.2662  0.6585 -0.4592
   59MOL   H19122347   7.631   3.857   4.986  0.1768 -0.5674 -0.4007
   59MOL   C19222348   0.261   3.648   5.310  0.7908  0.4381  0.2510
   59MOL   C19322349   0.285   3.801   5.290  0.1929  0.8246  0.2493
   59MOL   C19422350   0.271   3.834   5.141 -0.1417  0.8303  0.3312
   59MOL   O19522351   0.340   3.782   5.052  0.2424 -0.1767  0.5161
   59MOL   N19622352   0.176   3.926   5.100  0.2184  0.1018  0.2457
   59MOL   C19722353   0.135   3.984   4.970 -0.0450 -0.0178 -0.3520
   59MOL   C19822354   0.080   3.873   4.875 -0.3021  0.1876  0.2779
   59MOL   C19922355   0.037   4.099   4.987  1.2289 -0.4913  0.0296
   59MOL   H20022356   0.353   3.606   5.268  0.6375  0.2101  0.1392
   59MOL   H20122357   0.263   3.605   5.410 -1.6960 -1.4981 -0.4555
   59MOL   H20222358   0.198   3.856   5.326 -1.0051 -0.0517 -1.2243
   59MOL   H20322359   0.131   3.965   5.182 -0.2242 -1.5213  0.7898
   59MOL   H20422360   0.228   4.015   4.921  1.7476 -0.2092  2.8281
   59MOL   H20522361   0.017   3.916   4.797  0.6035  1.4045  0.2114
   59MOL   H20622362   0.023   3.796   4.927  0.0784 -1.8025 -2.0924
   59MOL   H20722363   0.162   3.825   4.821 -0.8715 -0.8252  0.3002
   59MOL   H20822364   7.784   4.059   5.035  1.4562 -1.7108 -0.5257
   59MOL   H20922365   0.011   4.135   4.887  0.0401  2.2775  1.2991
   59MOL   H21022366   0.077   4.194   5.022  2.1991 -0.5674 -0.8456
   59MOL   C21122367   0.420   3.841   5.352  0.1772  0.0545 -0.1197
   59MOL   C21222368   0.421   3.812   5.507 -0.2694  0.0264  0.7001
   59MOL   C21322369   0.559   3.760   5.558 -0.0711 -0.4762  0.1764
   59MOL   O21422370   0.659   3.833   5.546 -0.2980  0.5513  0.4094
   59MOL   N21522371   0.562   3.640   5.619  0.1989 -0.0573 -0.2972
   59MOL   C21622372   0.687   3.574   5.650 -0.0103  0.0353 -0.3542
   59MOL   C21722373   0.682   3.429   5.590  0.3766  0.5880 -0.4243
   59MOL   C21822374   0.695   3.558   5.800 -0.8572  0.0654 -0.0699
   59MOL   H21922375   0.444   3.946   5.333 -2.1682  0.3112 -1.8841
   59MOL   H22022376   0.490   3.777   5.298  1.0089  1.2533 -0.4961
   59MOL   H22122377   0.350   3.739   5.546 -1.4431 -0.3649 -2.0757
   59MOL   H22222378   0.478   3.586   5.632  1.5514 -2.6236 -1.9325
   59MOL   H22322379   0.775   3.628   5.615 -0.0050 -0.0813 -0.5233
   59MOL   H22422380   0.692   3.437   5.482  1.7232 -0.1978 -0.3693
   59MOL   H22522381   0.764   3.365   5.621 -0.3058  0.7451  1.7698
   59MOL   H22622382   0.586   3.382   5.608  1.6846 -2.1951 -0.4797
   59MOL   H22722383   0.612   3.500   5.840 -0.1857 -0.2922  0.8254
   59MOL   H22822384   0.696   3.657   5.846 -1.7126 -0.7768  1.8318
   59MOL   H22922385   0.790   3.515   5.832 -0.4006  1.4277  0.4446
   59MOL   C23022386   0.373   3.940   5.578  0.3393 -0.0940  0.4631
   59MOL   C23122387   0.364   3.931   5.736  0.1242  0.4929  0.3356
   59MOL   C23222388   0.472   4.009   5.813 -0.8846  0.2439  0.0803
   59MOL   O23322389   0.493   4.128   5.796 -0.3519  0.3165  0.5383
   59MOL   N23422390   0.537   3.934   5.902  0.1861 -0.2550 -0.0282
   59MOL   C23522391   0.630   3.990   5.999 -0.0754 -0.1997  0.2990
   59MOL   C23622392   0.628   3.904   6.125 -0.5351 -0.2959 -0.3501
   59MOL   C23722393   0.772   3.998   5.952 -0.0402  0.0072 -0.3320
   59MOL   H23822394   0.279   3.970   5.533  1.7284  2.3807 -0.8771
   59MOL   H23922395   0.432   4.024   5.543  0.3089 -0.7933 -1.2873
   59MOL   H24022396   0.379   3.827   5.764  1.0871  0.8191  1.0868
   59MOL   H24122397   0.509   3.840   5.928 -1.0664  0.2222  0.3905
   59MOL   H24222398   0.599   4.086   6.039  2.8271  1.2007 -0.6685
   59MOL   H24322399   0.698   3.941   6.200 -1.4224 -2.2222  1.5179
   59MOL   H24422400   0.531   3.900   6.174  0.3853  1.3500  1.6891
   59MOL   H24522401   0.653   3.799   6.110 -0.6705 -0.4562  0.4999
   59MOL   H24622402   0.852   4.035   6.017  0.6302  1.4127 -1.9282
   59MOL   H24722403   0.780   4.069   5.870 -2.0053 -0.2685 -0.7758
   59MOL   H24822404   0.797   3.900   5.910  0.9023  0.9515 -2.0343
   59MOL   C24922405   0.225   3.966   5.788  0.2605 -0.1567  0.3850
   59MOL   C25022406   0.189   3.938   5.934  0.5023 -0.3158 -0.0814
   59MOL   C25122407   0.174   3.793   5.979  0.1228 -0.7336 -0.2576
   59MOL   O25222408   0.078   3.735   5.927 -0.2465 -0.5303  0.7022
   59MOL   N25322409   0.251   3.754   6.082  0.4200 -0.1701  0.0002
   59MOL   C25422410   0.230   3.634   6.153  0.4291  0.2831 -0.2610
   59MOL   C25522411   0.310   3.518   6.082  0.1812  0.0105 -0.0883
   59MOL   C25622412   0.276   3.656   6.291 -0.0922 -0.3568 -0.0636
   59MOL   H25722413   0.150   3.911   5.731 -0.3838  1.4520 -0.3347
   59MOL   H25822414   0.211   4.070   5.757  0.0586 -0.0615  0.7982
   59MOL   H25922415   0.268   3.979   5.997  0.6632 -0.0403 -0.4584
   59MOL   H26022416   0.315   3.821   6.121  0.4990 -1.3853  2.0202
   59MOL   H26122417   0.125   3.605   6.150  0.8101 -1.0784 -0.9324
   59MOL   H26222418   0.418   3.525   6.100  0.3396 -3.0345  0.3309
   59MOL   H26322419   0.291   3.419   6.123 -0.5748 -0.9624 -2.7144
   59MOL   H26422420   0.282   3.512   5.977 -1.4429 -0.2911  0.3555
   59MOL   H26522421   0.376   3.699   6.291 -0.3797  0.3052 -0.1021
   59MOL   H26622422   0.213   3.733   6.335 -1.1641 -0.8284 -0.7700
   59MOL   H26722423   0.284   3.567   6.354  0.5071 -0.1898  0.0959
   59MOL   C26822424   0.064   4.026   5.979 -0.2911  0.4680  0.8883
   59MOL   C26922425   0.092   4.149   6.069  0.3106 -0.4821 -0.5414
   59MOL   C27022426   0.102   4.101   6.219 -0.2107 -0.0538 -0.5444
   59MOL   O27122427   0.188   4.021   6.255  0.0128  0.3286  0.1950
   59MOL   N27222428   7.835   4.135   6.300  0.3358  0.6294  0.0551
   59MOL   C27322429   7.815   4.075   6.432 -0.1067  0.2835  0.3460
   59MOL   C27422430   7.825   4.191   6.535 -0.3966  0.7256 -0.5003
   59MOL   C27522431   7.678   4.005   6.423 -0.1896 -0.6957 -0.1165
   59MOL   H27622432   0.023   4.058   5.882  0.3560 -0.8498  0.1729
   59MOL   H27722433   7.824   3.963   6.024 -0.3390  0.2327  0.4861
   59MOL   H27822434   0.007   4.217   6.061 -1.6881 -2.7716  0.5659
   59MOL   H27922435   7.766   4.203   6.272  1.8763  1.6893 -1.2828
   59MOL   H28022436   0.049   3.994   6.452 -1.5077 -1.3784 -1.3628
   59MOL   H28122437   7.787   4.151   6.629  2.7216  0.2444  0.6024
   59MOL   H28222438   0.085   4.238   6.552 -0.1835 -0.0643  0.5197
   59MOL   H28322439   7.761   4.272   6.501 -0.7569  0.7889  0.3188
   59MOL   H28422440   7.642   3.946   6.508 -0.1117  0.3102  0.6206
   59MOL   H28522441   7.605   4.080   6.393 -1.5009 -1.5992  0.7190
   59MOL   H28622442   7.685   3.927   6.346  1.4092 -0.7634  0.0864
   59MOL   C28722443   0.214   4.223   6.018  0.6117  0.1459 -0.3326
   59MOL   C28822444   0.236   4.378   6.060 -0.0991  0.0682  0.0226
   59MOL   C28922445   0.112   4.464   6.037 -0.1776  0.3964 -0.2209
   59MOL   O29022446   0.047   4.463   5.930 -0.4541  0.0082 -0.0859
   59MOL   N29122447   0.068   4.528   6.145 -0.2801  0.4138  0.2286
   59MOL   C29222448   7.784   4.613   6.152  0.0254  0.6048  0.1012
   59MOL   C29322449   7.655   4.533   6.182  0.5603  0.1178  0.4750
   59MOL   C29422450   7.803   4.722   6.259  0.0347  0.4916 -0.1617
   59MOL   H29522451   0.306   4.175   6.053 -1.4868 -2.5304  1.7101
   59MOL   H29622452   0.212   4.229   5.909 -3.0016  0.6116 -0.2747
   59MOL   H29722453   0.262   4.372   6.166  0.1225  3.4477  0.2218
   59MOL   H29822454   0.131   4.547   6.222 -0.4406  0.8320  0.2570
   59MOL   H29922455   7.778   4.672   6.061  1.3642  0.7791  0.1201
   59MOL   H30022456   7.626   4.477   6.093  0.0959 -1.6364  1.7136
   59MOL   H30122457   7.677   4.471   6.268  2.5315 -0.0233 -0.0964
   59MOL   H30222458   7.570   4.594   6.213 -0.2318 -0.0846 -1.1973
   59MOL   H30322459   7.711   4.778   6.277 -0.6415 -0.5452 -0.3831
   59MOL   H30422460   0.005   4.674   6.349 -2.2503 -2.0913 -0.5058
   59MOL   H30522461   0.040   4.798   6.231  0.0511  1.5590  2.6423
   59MOL   C30622462   0.354   4.441   5.982  0.5388 -0.7069  0.4781
   59MOL   C30722463   0.491   4.432   6.047  0.0633 -0.3532 -0.0764
   59MOL   C30822464   0.499   4.517   6.177  0.6194 -0.1877 -0.1019
   59MOL   O30922465   0.536   4.466   6.284  0.4124  0.6426  0.4443
   59MOL   N31022466   0.467   4.649   6.177  0.6177  0.5242 -0.3092
   59MOL   C31122467   0.458   4.737   6.297  0.3543 -0.0615  0.1810
   59MOL   C31222468   0.578   4.818   6.327  0.0864 -0.0039 -0.1745
   59MOL   C31322469   0.350   4.834   6.278 -0.4608  0.2317 -0.5803
   59MOL   H31422470   0.363   4.389   5.887  0.4183 -0.9394  0.5928
   59MOL   H31522471   0.338   4.548   5.971  0.1328 -0.5482  2.4206
   59MOL   H31622472   0.511   4.326   6.061 -0.0837 -1.0235 -4.4110
   59MOL   H31722473   0.466   4.696   6.087  1.7382  0.0795 -0.5665
   59MOL   H31822474   0.426   4.680   6.385 -0.9176  1.8774  1.0207
   59MOL   H31922475   0.559   4.901   6.396 -0.2250  1.0311 -1.4938
   59MOL   H32022476   0.621   4.863   6.238 -1.1541  0.2299 -0.6618
   59MOL   H32122477   0.666   4.765   6.363  0.1065  0.1062 -0.0613
   59MOL   H32222478   0.375   4.900   6.194  0.9993  1.6398  0.9403
   59MOL   H32322479   0.331   4.893   6.367  1.5135 -0.7130  0.4967
   59MOL   H32422480   0.249   4.794   6.274 -0.6007  0.4545  0.7693
   59MOL   C32522481   0.610   4.473   5.951 -0.0234  0.1301  0.2532
   59MOL   C32622482   0.756   4.508   6.017 -0.0291  0.3814 -0.5441
   59MOL   C32722483   0.831   4.390   6.081 -0.4129 -0.2179  0.5112
   59MOL   O32822484   0.857   4.291   6.013 -0.3630  0.1894 -0.2534
   59MOL   N32922485   0.844   4.395   6.216 -0.2454 -0.8355  0.2908
   59MOL   C33022486   0.880   4.287   6.302 -0.0937 -0.4917 -0.0232
   59MOL   C33122487   0.756   4.202   6.328  1.1548  0.3729  0.2012
   59MOL   C33222488   0.939   4.332   6.441  0.1916 -0.1348 -0.3036
   59MOL   H33322489   0.571   4.544   5.879 -3.0127 -1.0557  0.6580
   59MOL   H33422490   0.619   4.389   5.883  0.4531 -0.6920  1.3066
   59MOL   H33522491   0.729   4.575   6.098  0.7896  1.3263 -1.0361
   59MOL   H33622492   0.808   4.479   6.257  0.2936 -0.6494  0.3938
   59MOL   H33722493   0.943   4.217   6.248  0.0892  0.8768 -1.6182
   59MOL   H33822494   0.706   4.172   6.236  2.6443 -2.1003  0.1408
   59MOL   H33922495   0.786   4.114   6.384  0.7745 -0.7932 -1.3980
   59MOL   H34022496   0.682   4.247   6.394  0.8409  0.6565 -0.3434
   59MOL   H34122497   1.034   4.384   6.445  0.9841 -1.4015 -1.9948
   59MOL   H34222498   0.947   4.254   6.516  0.3481  0.6407  0.4894
   59MOL   H34322499   0.875   4.401   6.496  2.1915  1.1381  0.4555
   59MOL   C34422500   0.840   4.589   5.916  0.8613  0.0119  0.3843
   59MOL   C34522501   0.964   4.672   5.962 -0.5244 -0.4369  0.9106
   59MOL   C34622502   1.061   4.707   5.842  0.6252  0.9769 -0.7061
   59MOL   O34722503   1.015   4.722   5.728  0.2718  0.4175  0.1206
   59MOL   N34822504   1.194   4.709   5.867 -0.3122 -0.4303 -0.2130
   59MOL   C34922505   1.299   4.732   5.762  1.2981  0.2269 -0.0778
   59MOL   C35022506   1.333   4.877   5.744 -0.4031  0.5273 -0.2587
   59MOL   C35122507   1.423   4.651   5.792 -0.4736  0.1499 -0.1484
   59MOL   H35222508   0.769   4.664   5.879  0.1737 -0.0409  1.5708
   59MOL   H35322509   0.859   4.531   5.826  3.0387 -1.1507  1.5530
   59MOL   H35422510   1.026   4.605   6.022  1.8952 -0.5719 -1.6498
   59MOL   H35522511   1.220   4.695   5.963  0.2042  2.3167  0.0993
   59MOL   H35622512   1.269   4.700   5.662 -0.0148 -0.5047  0.5304
   59MOL   H35722513   1.420   4.888   5.679  1.4656  1.5016  2.3171
   59MOL   H35822514   1.252   4.939   5.706  0.1084  1.2229 -0.2188
   59MOL   H35922515   1.357   4.929   5.837 -1.1044 -0.6810  0.6152
   59MOL   H36022516   1.434   4.635   5.899  0.5230 -2.4785 -0.6118
   59MOL   H36122517   1.412   4.555   5.742 -0.4375  0.0046  0.1251
   59MOL   H36222518   1.510   4.700   5.748  0.3996 -1.7293 -0.5837
   59MOL   C36322519   0.907   4.797   6.025 -0.6772 -0.3465  0.3692
   59MOL   C36422520   1.006   4.860   6.132 -0.0789  0.3649  0.3224
   59MOL   C36522521   1.014   4.785   6.266 -0.1656  0.1810  0.6192
   59MOL   O36622522   0.940   4.692   6.295 -0.2262  0.8354  0.2922
   59MOL   N36722523   1.086   4.846   6.357 -0.5422 -0.0455  0.6933
   59MOL   C36822524   1.096   4.812   6.496  0.1864  0.3528  0.3030
   59MOL   C36922525   1.244   4.830   6.537  0.2808 -0.0264  0.5813
   59MOL   C37022526   1.002   4.894   6.580 -0.0503 -0.1769  0.4949
   59MOL   H37122527   0.810   4.772   6.069 -0.7691 -1.3547 -0.3671
   59MOL   H37222528   0.897   4.869   5.944 -1.3337  0.8579  1.5063
   59MOL   H37322529   0.964   4.958   6.152 -1.1990 -0.8568  4.5959
   59MOL   H37422530   1.157   4.911   6.325 -1.3636  0.8371  0.6425
   59MOL   H37522531   1.078   4.707   6.517  1.0492  0.1297 -0.0328
   59MOL   H37622532   1.296   4.924   6.521 -1.2649  1.4433  3.6766
   59MOL   H37722533   1.261   4.793   6.638 -1.5673  0.2658  1.0206
   59MOL   H37822534   1.300   4.757   6.478  2.3731  1.8277  0.2453
   59MOL   H37922535   1.035   4.997   6.592  1.1599 -0.7518  2.3184
   59MOL   H38022536   0.906   4.898   6.529  1.0462  0.1388 -1.5987
   59MOL   H38122537   0.999   4.851   6.680  2.1694 -0.1979  0.5761
   59MOL   H38222538   1.103   4.859   6.083  0.7693  0.7010  1.9520
   60MOL     C122539   6.267   7.096   1.864 -0.1409 -0.0098 -0.3395
   60MOL     C222540   6.181   7.113   1.734  0.7997 -0.1148  0.0395
   60MOL     C322541   6.263   7.156   1.609 -0.6296  0.0604  1.1267
   60MOL     O422542   6.302   7.068   1.531 -0.6493  0.4324 -0.0597
   60MOL     N522543   6.288   7.290   1.591  0.1919  0.4849  0.2842
   60MOL     C622544   6.374   7.342   1.478 -0.0843  0.2634 -0.5234
   60MOL     C722545   6.293   7.394   1.357  0.3297  0.1046 -0.5517
   60MOL     C822546   6.461   7.450   1.537 -0.2759 -0.2270 -0.3905
   60MOL     H922547   6.325   7.187   1.875  1.3683 -0.7891 -1.5660
   60MOL    H1022548   6.335   7.011   1.859 -0.3679 -0.3285  1.7449
   60MOL    H1122549   6.116   7.198   1.755 -0.9880 -1.8133  1.5895
   60MOL    H1222550   6.233   7.359   1.639 -1.5486 -1.0761  0.5777
   60MOL    H1322551   6.435   7.257   1.447  0.1945  0.4483 -0.4817
   60MOL    H1422552   6.208   7.331   1.330  0.1398  0.0409  0.1885
   60MOL    H1522553   6.367   7.401   1.277  1.6702 -0.1221  0.6423
   60MOL    H1622554   6.248   7.488   1.390 -0.1720  0.2841 -1.7437
   60MOL    H1722555   6.396   7.526   1.579 -1.3909 -1.5612  0.3259
   60MOL    H1822556   6.518   7.409   1.620  1.1802  1.3483 -0.5818
   60MOL    H1922557   6.531   7.503   1.472 -1.4602  1.1810 -0.5183
   60MOL    H2022558   6.214   7.090   1.959  1.0250 -1.3485  0.2493
   60MOL    C2122559   6.097   6.982   1.702  0.0118 -0.0741 -0.7937
   60MOL    C2222560   5.997   6.990   1.587 -0.1066 -0.4208 -0.7422
   60MOL    C2322561   5.898   7.103   1.608 -0.3659  0.0675  0.1823
   60MOL    O2422562   5.838   7.120   1.713 -0.1398 -0.4743  0.2694
   60MOL    N2522563   5.870   7.178   1.504  0.1912  0.5356  0.3444
   60MOL    C2622564   5.781   7.296   1.499 -0.4167 -0.1852 -0.3219
   60MOL    C2722565   5.714   7.322   1.359  0.3185 -0.5890 -0.3497
   60MOL    C2822566   5.883   7.416   1.530  0.1847  0.2112 -0.2431
   60MOL    H2922567   6.045   6.957   1.795  0.4463  0.8513 -0.2903
   60MOL    H3022568   6.163   6.895   1.701 -2.1632 -1.8123  1.1467
   60MOL    H3122569   6.047   7.004   1.491 -0.0484  1.8808 -0.3855
   60MOL    H3222570   5.889   7.152   1.408 -3.8271  0.0757 -0.4183
   60MOL    H3322571   5.696   7.282   1.565 -1.9314  0.1367 -2.1543
   60MOL    H3422572   5.704   7.250   1.278  0.1605 -1.0509  0.0732
   60MOL    H3522573   5.736   7.419   1.314  1.7332 -1.0913 -0.7712
   60MOL    H3622574   5.610   7.341   1.387  0.2368  0.1831 -1.1637
   60MOL    H3722575   5.975   7.407   1.472  1.3264  0.8842  1.4434
   60MOL    H3822576   5.827   7.503   1.496 -0.6873 -0.2305  0.0529
   60MOL    H3922577   5.911   7.420   1.635  3.1318 -0.4670 -0.9630
   60MOL    C4022578   5.911   6.861   1.566  0.3692  0.0304 -0.0969
   60MOL    C4122579   5.814   6.851   1.447  0.9246  0.0413  0.2321
   60MOL    C4222580   5.664   6.883   1.482  0.0788 -0.1179  0.0562
   60MOL    O4322581   5.604   6.819   1.571  0.0486 -0.2181 -0.2828
   60MOL    N4422582   5.598   6.964   1.395  0.3690  0.8681  0.0587
   60MOL    C4522583   5.456   6.996   1.406  0.5935  0.6533  0.4988
   60MOL    C4622584   5.433   7.097   1.511 -0.3406 -0.2880 -1.2907
   60MOL    C4722585   5.407   7.042   1.266  0.0834 -0.1273 -0.4314
   60MOL    H4822586   5.847   6.838   1.651  0.1232  0.6396 -0.1193
   60MOL    H4922587   5.984   6.779   1.562 -3.0425 -3.0612 -1.2479
   60MOL    H5022588   5.856   6.912   1.366 -0.4288 -1.4428 -1.6526
   60MOL    H5122589   5.657   6.996   1.320  2.3278  0.3716  1.3579
   60MOL    H5222590   5.403   6.903   1.427  0.7863  0.1565 -1.1912
   60MOL    H5322591   5.434   7.063   1.614 -3.4270  0.0319 -1.1052
   60MOL    H5422592   5.331   7.136   1.511 -0.3510 -0.3164 -0.8945
   60MOL    H5522593   5.504   7.177   1.492 -2.2803  1.4293 -1.4499
   60MOL    H5622594   5.451   7.136   1.231 -0.3011  0.2456  0.0693
   60MOL    H5722595   5.299   7.052   1.273  0.0896 -1.5088  2.0970
   60MOL    H5822596   5.426   6.956   1.202  1.1319 -0.8769  0.8758
   60MOL    C5922597   5.827   6.709   1.369  0.3643  0.2145 -0.3091
   60MOL    C6022598   5.755   6.597   1.442  0.6564  0.8167 -0.0091
   60MOL    C6122599   5.830   6.543   1.564  0.5222  0.0017  0.4586
   60MOL    O6222600   5.939   6.486   1.559 -0.2997 -0.2084  0.3366
   60MOL    N6322601   5.758   6.561   1.678 -0.1486  0.8008  0.2014
   60MOL    C6422602   5.799   6.521   1.815  0.1649  0.2252 -0.7506
   60MOL    C6522603   5.749   6.626   1.917 -0.4245  0.5129 -0.4409
   60MOL    C6622604   5.752   6.374   1.839  0.5169 -0.6473 -0.1012
   60MOL    H6722605   5.788   6.720   1.268  0.4052 -1.2205 -0.4983
   60MOL    H6822606   5.931   6.679   1.362  0.0977 -0.3888 -1.8327
   60MOL    H6922607   5.649   6.601   1.466  0.7832 -0.9088  0.9705
   60MOL    H7022608   5.668   6.606   1.665 -1.1865 -1.2788 -0.0559
   60MOL    H7122609   5.907   6.515   1.823 -0.0915 -1.8406  1.8206
   60MOL    H7222610   5.762   6.725   1.873 -0.3630  0.2670 -0.9807
   60MOL    H7322611   5.643   6.612   1.941  0.0182 -2.9365 -0.2962
   60MOL    H7422612   5.804   6.632   2.010  1.2026 -2.2466 -1.2003
   60MOL    H7522613   5.683   6.342   1.761  2.1107 -0.9346 -1.4240
   60MOL    H7622614   5.833   6.302   1.827 -0.2352 -1.6523  0.6876
   60MOL    H7722615   5.707   6.345   1.934 -0.9514  0.4083 -0.4533
   60MOL    C7822616   5.744   6.479   1.338  0.1202  0.1052  0.4265
   60MOL    C7922617   5.700   6.336   1.390  0.0708 -0.0116  0.0378
   60MOL    C8022618   5.555   6.332   1.426 -0.0957  0.3178 -0.4803
   60MOL    O8122619   5.465   6.313   1.338 -0.2300  0.4143 -0.0845
   60MOL    N8222620   5.522   6.358   1.552 -0.3575 -0.4103 -0.3145
   60MOL    C8322621   5.390   6.388   1.599 -0.1069  0.3153 -0.1731
   60MOL    C8422622   5.371   6.350   1.742 -0.4776  0.2755 -0.8161
   60MOL    C8522623   5.373   6.540   1.585 -0.5712  0.1674 -1.0332
   60MOL    H8622624   5.845   6.450   1.309 -0.7000 -2.1459 -0.3392
   60MOL    H8722625   5.687   6.510   1.251  2.2793  0.3464 -0.9334
   60MOL    H8822626   5.751   6.319   1.485  1.7897  0.8475 -0.6901
   60MOL    H8922627   5.597   6.366   1.620 -1.3934 -3.1080  1.2155
   60MOL    H9022628   5.316   6.342   1.534  1.7767 -2.0971 -0.7000
   60MOL    H9122629   5.265   6.360   1.766 -0.2362  0.9559  0.0003
   60MOL    H9222630   5.400   6.247   1.762 -1.0788  0.1299 -0.6883
   60MOL    H9322631   5.434   6.407   1.810  0.5911  0.3699 -1.8726
   60MOL    H9422632   5.300   6.569   1.660  1.0939 -3.2620  2.1179
   60MOL    H9522633   5.353   6.563   1.481  0.9999 -1.6002 -1.7519
   60MOL    H9622634   5.458   6.596   1.625  0.9594 -3.6482  1.3531
   60MOL    C9722635   5.752   6.220   1.294  0.8246 -0.5555  0.3273
   60MOL    C9822636   5.692   6.215   1.141  0.1733  0.0084 -0.8840
   60MOL    C9922637   5.613   6.087   1.117  0.1052 -0.8927  0.8351
   60MOL   O10022638   5.663   5.983   1.074 -0.9382  0.4728  0.4755
   60MOL   N10122639   5.485   6.091   1.156  0.0449  0.2355 -0.2304
   60MOL   C10222640   5.411   5.974   1.187  0.3713 -0.5212 -0.1287
   60MOL   C10322641   5.350   6.004   1.322 -0.1309  0.5366 -0.4361
   60MOL   C10422642   5.316   5.945   1.068 -0.2816  0.2005  0.4937
   60MOL   H10522643   5.729   6.117   1.324  0.0129 -0.2450  0.7874
   60MOL   H10622644   5.860   6.213   1.287  0.8907  0.0465  0.7427
   60MOL   H10722645   5.622   6.295   1.121  1.7275  1.8170  0.7181
   60MOL   H10822646   5.450   6.177   1.196  1.0749  1.4589 -1.8430
   60MOL   H10922647   5.471   5.886   1.210  0.4777 -0.2614  0.6288
   60MOL   H11022648   5.277   5.931   1.358  1.2647 -0.5409  0.2398
   60MOL   H11122649   5.421   6.002   1.405 -1.6644 -0.3088  0.8874
   60MOL   H11222650   5.288   6.094   1.313 -1.5694 -0.4634 -0.6626
   60MOL   H11322651   5.228   6.009   1.056 -0.1437 -0.0809 -2.3230
   60MOL   H11422652   5.279   5.844   1.084 -0.0963  0.0264 -0.1596
   60MOL   H11522653   5.378   5.951   0.979 -0.7006  0.6281  0.2290
   60MOL   C11622654   5.808   6.225   1.042  0.5279  0.7763  0.2918
   60MOL   C11722655   5.783   6.221   0.887  0.8073  0.9251 -0.6322
   60MOL   C11822656   5.882   6.111   0.834 -0.1204 -0.9316  0.2061
   60MOL   O11922657   5.966   6.146   0.752  0.3454  0.7554  0.5771
   60MOL   N12022658   5.868   5.986   0.882 -0.3370  0.4531 -0.3462
   60MOL   C12122659   5.959   5.874   0.878 -0.0165 -0.3223 -0.4616
   60MOL   C12222660   6.019   5.862   1.015 -0.4392  0.3341  0.0387
   60MOL   C12322661   5.887   5.749   0.837  0.3550 -0.2228  0.0745
   60MOL   H12422662   5.886   6.161   1.081  0.5298  1.9758  2.3100
   60MOL   H12522663   5.863   6.318   1.055  0.1913  1.1213 -0.6416
   60MOL   H12622664   5.682   6.179   0.888  0.8368  0.8125  2.3477
   60MOL   H12722665   5.790   5.957   0.939  0.8205  0.1331  1.0902
   60MOL   H12822666   6.038   5.902   0.807  2.2094  1.0280  2.4217
   60MOL   H12922667   6.046   5.758   1.032  1.0765  1.0868  2.5337
   60MOL   H13022668   5.957   5.889   1.101 -1.4931  0.2251 -0.6745
   60MOL   H13122669   6.116   5.911   1.017 -0.6091  0.6674  0.1219
   60MOL   H13222670   5.794   5.732   0.893  1.7259 -0.2160  2.4462
   60MOL   H13322671   5.851   5.757   0.735  2.1576  1.3131 -0.4459
   60MOL   H13422672   5.958   5.666   0.839  0.2498 -0.3619 -1.7267
   60MOL   C13522673   5.773   6.365   0.818 -0.1704 -0.6269 -0.1940
   60MOL   C13622674   5.707   6.373   0.673  0.5944 -0.2258  0.2003
   60MOL   C13722675   5.805   6.418   0.559 -0.4076  0.5650  0.8264
   60MOL   O13822676   5.778   6.511   0.478  0.3336 -0.5263 -0.3167
   60MOL   N13922677   5.916   6.354   0.551 -0.0267 -0.1073 -0.2165
   60MOL   C14022678   6.039   6.405   0.480  0.1737  0.3541 -0.2060
   60MOL   C14122679   6.084   6.310   0.365  0.4730  0.9316 -0.1197
   60MOL   C14222680   6.147   6.434   0.585  1.3047  0.2489  0.0105
   60MOL   H14322681   5.875   6.403   0.815 -0.2367 -0.4655 -0.3804
   60MOL   H14422682   5.708   6.429   0.876 -2.9675 -1.8798 -1.8512
   60MOL   H14522683   5.647   6.463   0.684 -1.4163 -1.1742 -2.5072
   60MOL   H14622684   5.929   6.281   0.619 -2.6614 -0.6292 -0.2150
   60MOL   H14722685   6.018   6.497   0.425  1.0670 -0.5370 -2.0994
   60MOL   H14822686   6.171   6.343   0.307 -1.1507  2.4454 -1.7589
   60MOL   H14922687   6.136   6.228   0.414 -1.5803 -0.8197 -0.7881
   60MOL   H15022688   5.998   6.288   0.301  0.8387  2.0558 -1.0115
   60MOL   H15122689   6.124   6.520   0.649 -0.1310  0.6960 -1.0670
   60MOL   H15222690   6.231   6.463   0.523 -0.7460  0.8593 -2.5747
   60MOL   H15322691   6.167   6.347   0.648  1.0107  0.5413  0.5131
   60MOL   C15422692   5.627   6.250   0.632  0.6082 -0.1244  0.3210
   60MOL   C15522693   5.553   6.262   0.500 -0.7573 -0.1566 -0.5999
   60MOL   C15622694   5.459   6.385   0.492  0.3760 -0.5235 -0.3944
   60MOL   O15722695   5.346   6.384   0.544  0.2500  0.5374 -0.0563
   60MOL   N15822696   5.499   6.494   0.415 -0.3597 -0.4241 -0.5513
   60MOL   C15922697   5.417   6.601   0.365 -0.1096  0.4319  0.1284
   60MOL   C16022698   5.357   6.682   0.489 -0.0748 -0.4880 -0.3530
   60MOL   C16122699   5.310   6.553   0.272  0.4705 -0.0386  0.2423
   60MOL   H16222700   5.560   6.215   0.710 -2.5105  2.1962 -1.1842
   60MOL   H16322701   5.693   6.167   0.610  1.6215  0.5633  0.7409
   60MOL   H16422702   5.632   6.268   0.425 -2.2880 -2.7339 -2.5222
   60MOL   H16522703   5.598   6.509   0.421 -0.3807 -0.2148 -0.7090
   60MOL   H16622704   5.488   6.666   0.314 -0.6116 -0.2423 -1.4778
   60MOL   H16722705   5.281   6.629   0.545  1.1116  0.9066  2.7075
   60MOL   H16822706   5.424   6.707   0.571  0.0514 -2.0016  0.0164
   60MOL   H16922707   5.320   6.782   0.466  0.6961  0.2606  1.5566
   60MOL   H17022708   5.238   6.633   0.257  3.1705  2.1574 -1.6238
   60MOL   H17122709   5.251   6.475   0.319 -0.4922  1.0293  0.8328
   60MOL   H17222710   5.340   6.520   0.173  0.8366  0.8498  0.0515
   60MOL   C17322711   5.485   6.131   0.455 -0.2990 -1.0010  0.2345
   60MOL   C17422712   5.445   6.139   0.308  0.1847 -0.0690  0.0975
   60MOL   C17522713   5.566   6.126   0.218 -0.1813 -0.0417  0.6764
   60MOL   O17622714   5.636   6.030   0.229 -0.3143  0.5285 -0.3032
   60MOL   N17722715   5.589   6.225   0.132  0.5342 -0.6446  0.3691
   60MOL   C17822716   5.700   6.231   0.049 -0.3588  0.3944  0.4796
   60MOL   C17922717   5.760   6.368   0.030  0.5717 -0.5642  0.0812
   60MOL   C18022718   5.673   6.157   7.755  0.3825  0.3512  0.1718
   60MOL   H18122719   5.397   6.119   0.518 -1.5545  1.9546 -0.8903
   60MOL   H18222720   5.554   6.049   0.477 -0.0941 -0.3407  2.1246
   60MOL   H18322721   5.398   6.233   0.277  0.4708 -0.4113 -1.4396
   60MOL   H18422722   5.534   6.310   0.122 -1.0432 -1.8411 -1.3457
   60MOL   H18522723   5.787   6.183   0.094 -1.4764 -4.8874 -2.5800
   60MOL   H18622724   5.868   6.375   0.037  0.3727  1.3156  1.5963
   60MOL   H18722725   5.732   6.438   0.109 -0.2768  0.0725 -0.7613
   60MOL   H18822726   5.727   6.425   7.779 -1.0786  0.2827  1.2170
   60MOL   H18922727   5.598   6.207   7.694  0.5217 -1.4515 -1.5269
   60MOL   H19022728   5.627   6.059   7.772  0.3831  0.0893 -1.2552
   60MOL   H19122729   5.761   6.149   7.691 -0.8290  0.4261 -1.5246
   60MOL   C19222730   5.345   6.036   0.267 -0.0764  0.3343  0.2786
   60MOL   C19322731   5.202   6.087   0.243  0.1840  0.2650 -0.3085
   60MOL   C19422732   5.193   6.168   0.113 -0.3310  0.4740  0.4590
   60MOL   O19522733   5.229   6.288   0.103 -0.4259  0.2952  0.2446
   60MOL   N19622734   5.166   6.097   0.000 -0.3964 -0.5531  0.2137
   60MOL   C19722735   5.169   6.155   7.699 -0.4819  0.2487 -0.3642
   60MOL   C19822736   5.193   6.042   7.601  0.4556  0.2602  0.1296
   60MOL   C19922737   5.034   6.215   7.673 -0.3352 -0.4173  0.4237
   60MOL   H20022738   5.331   5.967   0.350  2.5132  0.5255  0.9018
   60MOL   H20122739   5.361   5.983   0.173 -2.5710  2.0461 -1.1815
   60MOL   H20222740   5.139   6.000   0.224  0.3274  0.4315 -1.5722
   60MOL   H20322741   5.148   5.998   0.007  0.7733 -0.6003  3.5254
   60MOL   H20422742   5.247   6.228   7.676 -0.5502  0.9254  1.4425
   60MOL   H20522743   5.120   5.961   7.613 -0.2762  0.5686 -2.0667
   60MOL   H20622744   5.292   5.998   7.615  0.4199 -0.0869 -0.6751
   60MOL   H20722745   5.190   6.081   7.500 -2.1305 -0.7516 -0.2152
   60MOL   H20822746   5.040   6.319   7.705  1.4288 -0.8091  1.4282
   60MOL   H20922747   4.956   6.170   7.733  0.2604 -1.0358  0.7451
   60MOL   H21022748   5.008   6.209   7.567  1.7378 -3.6103  0.0089
   60MOL   C21122749   5.135   6.155   0.369  0.1913 -0.3677  0.1846
   60MOL   C21222750   4.996   6.217   0.346 -0.4740 -0.4691 -0.2592
   60MOL   C21322751   4.886   6.119   0.309 -0.2909 -0.2367 -0.2860
   60MOL   O21422752   4.901   6.000   0.323  0.1832  0.4882  0.0251
   60MOL   N21522753   4.772   6.176   0.267  0.2079  0.5961  0.3194
   60MOL   C21622754   4.666   6.107   0.200  0.2048 -0.5359  0.4126
   60MOL   C21722755   4.599   6.213   0.113  0.1888  0.3627  0.3906
   60MOL   C21822756   4.565   6.044   0.300  1.3468  0.1280 -0.8832
   60MOL   H21922757   5.199   6.233   0.410  0.2961  0.5841 -1.7537
   60MOL   H22022758   5.138   6.083   0.452  0.5206 -1.4344 -0.7353
   60MOL   H22122759   4.998   6.289   0.264  1.1820  1.3097  1.2985
   60MOL   H22222760   4.775   6.277   0.270  1.5682  0.6059 -0.8412
   60MOL   H22322761   4.710   6.026   0.142  0.8023  1.4388 -1.9359
   60MOL   H22422762   4.507   6.181   0.063 -0.3801  0.7679  1.1498
   60MOL   H22522763   4.569   6.302   0.169 -1.1712 -1.4312  2.5935
   60MOL   H22622764   4.664   6.247   0.033 -0.8679  1.2314 -0.1285
   60MOL   H22722765   4.527   6.127   0.360 -0.6803  0.1177 -2.1245
   60MOL   H22822766   4.603   5.974   0.375 -1.9348 -1.0201 -0.2057
   60MOL   H22922767   4.483   5.995   0.248 -1.1856  0.6577  2.4466
   60MOL   C23022768   4.951   6.297   0.474  0.1954  0.0483 -0.6700
   60MOL   C23122769   4.950   6.451   0.471 -0.2658  0.1973  0.3063
   60MOL   C23222770   4.886   6.505   0.342 -0.1165 -0.3784  0.0336
   60MOL   O23322771   4.780   6.460   0.304 -0.2866  0.6507 -0.0473
   60MOL   N23422772   4.953   6.598   0.274  0.2483  0.0071  0.3178
   60MOL   C23522773   4.921   6.640   0.137  0.1840  0.0918  0.4919
   60MOL   C23622774   5.006   6.752   0.090 -0.2727  0.0216 -0.4249
   60MOL   C23722775   4.941   6.521   0.037  0.0118 -0.0035 -0.6845
   60MOL   H23822776   5.015   6.273   0.559 -2.5668 -1.8276  0.9446
   60MOL   H23922777   4.858   6.255   0.512  1.0260 -0.1839  1.1685
   60MOL   H24022778   5.055   6.479   0.470 -0.5121  1.1469  0.3392
   60MOL   H24122779   5.043   6.629   0.309 -0.0263  1.7820 -0.5286
   60MOL   H24222780   4.818   6.674   0.129  1.1448  2.6542 -1.4128
   60MOL   H24322781   4.980   6.784   7.826  0.3037 -0.6331 -0.7934
   60MOL   H24422782   5.003   6.836   0.159  3.8713  1.3508 -1.6835
   60MOL   H24522783   5.113   6.729   0.098 -0.8932 -2.5126  1.3702
   60MOL   H24622784   4.861   6.447   0.038  1.3473 -1.4543 -0.5564
   60MOL   H24722785   5.030   6.466   0.065  0.6493  0.1440 -2.3546
   60MOL   H24822786   4.967   6.557   7.774  2.9664 -0.9290 -0.2960
   60MOL   C24922787   4.878   6.514   0.592 -0.2058 -0.0029  0.7504
   60MOL   C25022788   4.966   6.559   0.707  0.1581 -0.9612  0.3451
   60MOL   C25122789   4.995   6.437   0.803  0.7002  0.5427  0.5036
   60MOL   O25222790   4.906   6.382   0.875 -0.0287 -0.0173  0.0600
   60MOL   N25322791   5.127   6.398   0.811  0.1281 -0.0517  0.2027
   60MOL   C25422792   5.190   6.295   0.898 -0.5463  0.5568  0.3105
   60MOL   C25522793   5.309   6.246   0.827  0.2671  0.0006  0.4265
   60MOL   C25622794   5.224   6.363   1.036  0.0965 -0.4787  0.0635
   60MOL   H25722795   4.802   6.440   0.618 -0.9514 -0.1794 -1.7871
   60MOL   H25822796   4.817   6.599   0.562 -2.1082 -1.1226  1.3577
   60MOL   H25922797   5.063   6.589   0.667 -0.6257  0.4894 -0.5116
   60MOL   H26022798   5.191   6.461   0.764  0.5676  0.0025  0.8704
   60MOL   H26122799   5.115   6.215   0.897  1.3449 -1.2374 -0.9593
   60MOL   H26222800   5.366   6.175   0.887  1.8525 -1.3696 -2.5465
   60MOL   H26322801   5.290   6.194   0.733 -1.6339  1.9125 -0.2985
   60MOL   H26422802   5.370   6.332   0.798  0.8326 -0.9146 -1.1884
   60MOL   H26522803   5.258   6.291   1.110 -1.3826  2.3352  3.6293
   60MOL   H26622804   5.301   6.441   1.029  0.2676 -0.7639 -1.3932
   60MOL   H26722805   5.135   6.411   1.077  0.2862  0.4908 -0.6458
   60MOL   C26822806   4.903   6.672   0.789 -0.3838  0.2246 -0.3552
   60MOL   C26922807   4.761   6.650   0.857  0.4075  0.1096 -0.0526
   60MOL   C27022808   4.784   6.651   1.013 -0.6105  0.2712 -0.6980
   60MOL   O27122809   4.773   6.754   1.076  0.1643  0.2506 -0.3347
   60MOL   N27222810   4.808   6.538   1.077  0.8374 -0.4250  0.4963
   60MOL   C27322811   4.821   6.529   1.221 -0.1114 -0.5432  0.0140
   60MOL   C27422812   4.684   6.496   1.276 -0.0280  0.0801  0.1225
   60MOL   C27522813   4.913   6.418   1.267  0.3556 -0.2730 -0.3426
   60MOL   H27622814   4.969   6.703   0.870 -0.1285 -2.8920  0.7073
   60MOL   H27722815   4.902   6.757   0.721  1.0337  0.0319 -0.6213
   60MOL   H27822816   4.724   6.552   0.828  2.7843 -1.3915  1.7676
   60MOL   H27922817   4.814   6.448   1.032 -0.4676  0.2897 -1.1703
   60MOL   H28022818   4.862   6.624   1.253  1.2144 -1.0414 -0.1594
   60MOL   H28122819   4.647   6.400   1.242  0.1154  0.0653  0.0043
   60MOL   H28222820   4.686   6.494   1.385 -1.2193 -1.2949  0.1355
   60MOL   H28322821   4.609   6.569   1.244 -0.4005  0.6543  2.2484
   60MOL   H28422822   4.896   6.328   1.209  0.0213 -1.1066  1.0210
   60MOL   H28522823   5.016   6.453   1.260  1.1135 -2.1993  0.9411
   60MOL   H28622824   4.893   6.401   1.373 -3.7154  1.1162 -0.8232
   60MOL   C28722825   4.672   6.769   0.811 -0.0869  0.1024  0.2409
   60MOL   C28822826   4.531   6.744   0.862 -0.1499  0.3070 -0.7732
   60MOL   C28922827   4.433   6.705   0.756 -0.6304  0.4747  0.6621
   60MOL   O29022828   4.465   6.724   0.639  0.2646 -0.0411  0.1986
   60MOL   N29122829   4.325   6.642   0.789  1.1168 -0.3523 -0.1044
   60MOL   C29222830   4.226   6.574   0.704  0.6233  0.5918 -0.0832
   60MOL   C29322831   4.133   6.494   0.797  0.1429 -0.4245 -0.6299
   60MOL   C29422832   4.160   6.667   0.605  0.6684  0.1175  0.4951
   60MOL   H29522833   4.711   6.862   0.852 -2.6683  0.8313  1.1438
   60MOL   H29622834   4.677   6.785   0.703 -0.5325 -0.6319  0.1110
   60MOL   H29722835   4.520   6.661   0.931  2.2429  1.1382  0.6560
   60MOL   H29822836   4.315   6.638   0.889 -1.2412  0.6831 -0.2613
   60MOL   H29922837   4.275   6.498   0.643 -3.4972 -1.7262 -0.7432
   60MOL   H30022838   4.094   6.560   0.875 -1.0770  0.1242 -1.6978
   60MOL   H30122839   4.058   6.459   0.726  0.6941 -0.2993 -1.2723
   60MOL   H30222840   4.174   6.403   0.842  0.1605  0.7680  1.8598
   60MOL   H30322841   4.228   6.697   0.525 -1.0613  0.6718 -0.8015
   60MOL   H30422842   4.075   6.618   0.559  0.4294  1.3783 -0.4267
   60MOL   H30522843   4.116   6.755   0.652  0.2840  0.3328 -0.2662
   60MOL   C30622844   4.472   6.874   0.934 -0.1988  0.1271 -0.0395
   60MOL   C30722845   4.356   6.841   1.037  0.1214  0.1321  0.0473
   60MOL   C30822846   4.255   6.966   1.043  0.5205  0.4733  0.0277
   60MOL   O30922847   4.284   7.065   1.111 -0.3376 -0.0723  0.3724
   60MOL   N31022848   4.142   6.960   0.975  0.7380  0.4328  0.1801
   60MOL   C31122849   4.030   7.050   0.963 -0.6936  0.1954  0.1902
   60MOL   C31222850   3.938   7.010   0.837 -0.9331 -0.1283  0.2139
   60MOL   C31322851   3.941   7.048   1.086 -0.6145  0.0879  0.4526
   60MOL   H31422852   4.552   6.926   0.987  0.2955 -1.0931  0.4159
   60MOL   H31522853   4.441   6.951   0.862 -0.8460 -1.9182 -2.0226
   60MOL   H31622854   4.288   6.770   0.990  0.5648  0.2473 -0.8015
   60MOL   H31722855   4.140   6.872   0.924 -1.8472 -0.2886  1.4549
   60MOL   H31822856   4.072   7.150   0.948 -1.3231  0.2934 -0.9721
   60MOL   H31922857   4.002   6.989   0.752  0.4369  0.5617  1.0586
   60MOL   H32022858   3.862   7.086   0.816 -1.8441 -0.8756  0.7307
   60MOL   H32122859   3.891   6.916   0.865  0.4654 -0.7022  0.6850
   60MOL   H32222860   3.908   7.149   1.112  0.6730  1.0224 -1.4641
   60MOL   H32322861   4.002   7.002   1.164  0.1312 -0.6116 -0.5239
   60MOL   H32422862   3.855   6.981   1.083 -0.1428 -0.4502 -1.2236
   60MOL   C32522863   4.403   6.784   1.170 -0.9144 -0.6365 -0.4870
   60MOL   C32622864   4.297   6.764   1.284 -0.6713 -0.6603 -0.3412
   60MOL   C32722865   4.184   6.675   1.246  0.7453 -0.0198 -0.2962
   60MOL   O32822866   4.209   6.589   1.163  0.2145  0.8962  0.3977
   60MOL   N32922867   4.072   6.683   1.319 -0.9144 -0.2697  0.2831
   60MOL   C33022868   3.951   6.598   1.307  0.0187 -0.2557 -0.2176
   60MOL   C33122869   3.831   6.668   1.241 -0.4681  0.0561  0.3980
   60MOL   C33222870   3.907   6.539   1.439  0.5894  0.0963 -0.5946
   60MOL   H33322871   4.489   6.843   1.203 -0.9219 -0.1307 -1.3382
   60MOL   H33422872   4.434   6.682   1.148 -0.4747 -0.1798 -2.0915
   60MOL   H33522873   4.254   6.859   1.316  1.7240  0.1770  0.4827
   60MOL   H33622874   4.056   6.761   1.381  0.2347 -0.4192  0.7784
   60MOL   H33722875   3.974   6.519   1.235 -0.2707 -0.8596  0.3522
   60MOL   H33822876   3.748   6.601   1.222 -0.0824  0.0267 -1.2645
   60MOL   H33922877   3.784   6.740   1.308  0.6012  0.8056  0.3588
   60MOL   H34022878   3.851   6.723   1.149 -0.5054  0.3302  0.5541
   60MOL   H34122879   3.907   6.620   1.512  1.0732  0.1284 -0.6292
   60MOL   H34222880   3.980   6.466   1.474  0.4955  0.8985  1.2897
   60MOL   H34322881   3.809   6.491   1.446  1.3803 -1.4575 -0.0218
   60MOL   C34422882   4.363   6.719   1.424  0.0463  0.2497 -0.3146
   60MOL   C34522883   4.496   6.761   1.482 -0.3464 -0.4515 -0.2826
   60MOL   C34622884   4.477   6.917   1.501 -0.0651  0.2474 -0.7128
   60MOL   O34722885   4.391   6.961   1.578  0.5975  0.0878 -0.3435
   60MOL   N34822886   4.544   6.993   1.416  0.8443 -0.6941  0.6272
   60MOL   C34922887   4.545   7.138   1.389  0.1092 -0.4934 -0.1894
   60MOL   C35022888   4.628   7.224   1.491  0.1986 -0.3441  0.2893
   60MOL   C35122889   4.594   7.156   1.245 -0.7454  0.3300 -0.2763
   60MOL   H35222890   4.377   6.611   1.418 -0.1842  0.0712  1.9607
   60MOL   H35322891   4.296   6.715   1.509 -0.7041 -1.8732 -0.9719
   60MOL   H35422892   4.580   6.742   1.415  0.4548 -0.2627  0.6535
   60MOL   H35522893   4.599   6.949   1.343  2.0365 -1.6506  2.0614
   60MOL   H35622894   4.445   7.179   1.376  0.8694  2.3170  2.2886
   60MOL   H35722895   4.595   7.198   1.592  0.1268 -0.7920  0.1514
   60MOL   H35822896   4.732   7.193   1.483 -0.3454 -1.9793 -0.6141
   60MOL   H35922897   4.598   7.328   1.476  0.8825 -0.3214 -0.9353
   60MOL   H36022898   4.599   7.262   1.217  0.0802 -0.5997 -3.9710
   60MOL   H36122899   4.689   7.107   1.230 -0.7120 -0.7146  3.0143
   60MOL   H36222900   4.524   7.112   1.173  0.9658 -1.9181 -0.6093
   60MOL   C36322901   4.538   6.699   1.619  0.3210  0.2508  0.7324
   60MOL   C36422902   4.672   6.739   1.675  0.6898 -0.1146 -0.6211
   60MOL   C36522903   4.782   6.648   1.622 -0.5914  0.3160 -0.1841
   60MOL   O36622904   4.768   6.527   1.618  0.2041  0.4002 -0.6213
   60MOL   N36722905   4.898   6.703   1.578 -0.6153 -0.2216 -0.7085
   60MOL   C36822906   4.945   6.840   1.574 -0.2098 -0.4324 -0.3949
   60MOL   C36922907   5.092   6.856   1.613  0.5470  0.6094  0.1002
   60MOL   C37022908   4.921   6.890   1.430  0.2447  0.4485 -0.1820
   60MOL   H37122909   4.529   6.592   1.603  2.3510  0.3317 -1.1671
   60MOL   H37222910   4.461   6.732   1.689 -0.5134  1.1337 -0.5594
   60MOL   H37322911   4.679   6.744   1.784  2.9206 -2.4723 -0.6179
   60MOL   H37422912   4.948   6.632   1.527  1.5330  0.8364 -0.1314
   60MOL   H37522913   4.884   6.897   1.644  0.2096 -1.6749  1.0212
   60MOL   H37622914   5.144   6.789   1.544 -1.6821 -2.3017  1.1705
   60MOL   H37722915   5.124   6.960   1.605  1.2683  0.6098  2.6218
   60MOL   H37822916   5.099   6.812   1.712 -0.4715 -1.7266 -0.8416
   60MOL   H37922917   4.816   6.914   1.415  0.2936  0.6612 -0.1888
   60MOL   H38022918   4.983   6.979   1.413  2.5377 -0.7528  1.5157
   60MOL   H38122919   4.954   6.818   1.355 -3.4057 -1.0418 -0.4147
   60MOL   H38222920   4.692   6.843   1.651  0.6153 -0.3646 -1.8076
   61MOL     C122921   3.636   6.696   5.299  0.7162  0.2125 -0.1108
   61MOL     C222922   3.632   6.598   5.169  0.2129 -0.2791 -0.0707
   61MOL     C322923   3.487   6.568   5.132  0.1820 -0.3913 -0.0844
   61MOL     O422924   3.443   6.628   5.033  0.2647 -0.1586 -0.1038
   61MOL     N522925   3.420   6.479   5.206 -0.0599 -0.4636 -0.0132
   61MOL     C622926   3.280   6.451   5.208 -0.0474 -0.3106  0.4715
   61MOL     C722927   3.255   6.315   5.153 -0.2337  0.8963  0.1578
   61MOL     C822928   3.231   6.446   5.358  0.1684 -0.7586  0.1944
   61MOL     H922929   3.618   6.802   5.280 -1.8393 -0.2390 -0.3002
   61MOL    H1022930   3.728   6.683   5.356  0.3276 -0.6247  0.3177
   61MOL    H1122931   3.674   6.504   5.203 -0.7789 -0.0297  1.9210
   61MOL    H1222932   3.479   6.433   5.274  1.8684  1.3536 -0.3756
   61MOL    H1322933   3.232   6.528   5.148  1.1265 -0.5068 -0.7466
   61MOL    H1422934   3.326   6.251   5.204  1.1022  1.3588 -1.0860
   61MOL    H1522935   3.277   6.318   5.046  1.3606 -1.1512  0.3922
   61MOL    H1622936   3.152   6.288   5.176 -0.2811  0.5470 -0.4594
   61MOL    H1722937   3.225   6.539   5.414  1.9735 -0.4430 -0.1274
   61MOL    H1822938   3.127   6.411   5.355 -0.8423  2.2554 -1.5733
   61MOL    H1922939   3.286   6.372   5.417  1.9320 -0.2116 -0.7294
   61MOL    H2022940   3.564   6.655   5.368  0.7540  0.2004 -0.0790
   61MOL    C2122941   3.721   6.654   5.052 -0.0023 -0.4039 -0.6106
   61MOL    C2222942   3.790   6.561   4.950 -0.8002 -0.0815 -0.2370
   61MOL    C2322943   3.897   6.458   5.009  0.3452 -0.0746  0.5495
   61MOL    O2422944   3.913   6.460   5.129 -0.0154  0.3958  0.2226
   61MOL    N2522945   3.963   6.382   4.920 -0.0459 -0.3326  0.2145
   61MOL    C2622946   4.051   6.270   4.950  0.1379  0.6595 -0.3258
   61MOL    C2722947   4.193   6.327   4.973  0.4278  0.3681 -0.5156
   61MOL    C2822948   4.058   6.163   4.845  0.4317  0.5437  0.2053
   61MOL    H2922949   3.803   6.719   5.082  0.2122 -1.0143  0.1361
   61MOL    H3022950   3.653   6.720   4.997  0.0078 -0.1230 -0.2918
   61MOL    H3122951   3.698   6.508   4.926 -0.8092 -0.1368 -0.0808
   61MOL    H3222952   3.926   6.381   4.826  3.5491  4.2585 -1.4130
   61MOL    H3322953   4.010   6.228   5.042  0.9320 -0.4866 -0.4863
   61MOL    H3422954   4.211   6.388   4.885 -1.7444  0.6826 -0.7612
   61MOL    H3522955   4.274   6.259   5.001  1.0663  1.6833  0.9508
   61MOL    H3622956   4.194   6.402   5.053  0.8113  0.3814 -0.5321
   61MOL    H3722957   4.110   6.072   4.874  0.5887  0.6697  0.3159
   61MOL    H3822958   3.956   6.131   4.823  0.6410 -1.1130  1.5782
   61MOL    H3922959   4.101   6.206   4.755 -2.4185 -0.5488 -1.7342
   61MOL    C4022960   3.844   6.636   4.832  0.3624 -0.5294  0.8443
   61MOL    C4122961   3.743   6.626   4.710 -0.6990  0.3402  0.6046
   61MOL    C4222962   3.719   6.477   4.674 -0.2888 -0.2910 -0.0577
   61MOL    O4322963   3.810   6.394   4.655  0.0362  0.0207  0.0296
   61MOL    N4422964   3.588   6.446   4.678 -0.1266 -0.1161  0.0057
   61MOL    C4522965   3.533   6.304   4.676 -0.1265  0.2412  0.7748
   61MOL    C4622966   3.416   6.296   4.778 -0.3227  0.6075  0.3554
   61MOL    C4722967   3.500   6.270   4.527 -0.8487 -0.0660  0.2121
   61MOL    H4822968   3.945   6.617   4.797 -0.0491 -1.0898 -0.0852
   61MOL    H4922969   3.851   6.742   4.853  0.4317  0.0464 -1.8603
   61MOL    H5022970   3.648   6.668   4.742 -1.1340  0.3585 -0.6665
   61MOL    H5122971   3.523   6.520   4.656  0.8866  0.2178 -2.0084
   61MOL    H5222972   3.608   6.231   4.706  0.4215  0.4370 -0.0959
   61MOL    H5322973   3.351   6.382   4.787  0.5618  1.4123 -0.8184
   61MOL    H5422974   3.465   6.287   4.875 -0.4922  0.2948  0.4140
   61MOL    H5522975   3.357   6.205   4.762 -2.2363  2.0871 -1.2155
   61MOL    H5622976   3.420   6.335   4.490 -0.1844 -0.3742 -1.8312
   61MOL    H5722977   3.460   6.169   4.526 -0.1901 -0.3259 -0.2712
   61MOL    H5822978   3.583   6.290   4.459  0.9823 -1.1557  2.0777
   61MOL    C5922979   3.803   6.703   4.592  0.1787 -0.0337 -0.2725
   61MOL    C6022980   3.737   6.701   4.453  0.2770 -0.6760 -0.2948
   61MOL    C6122981   3.592   6.744   4.468  0.3448 -0.0436  0.3255
   61MOL    O6222982   3.498   6.666   4.456 -0.1323 -0.0687 -0.1039
   61MOL    N6322983   3.576   6.873   4.508  0.7547  0.3068  0.4249
   61MOL    C6422984   3.455   6.947   4.532  0.5310  0.3227 -0.3147
   61MOL    C6522985   3.419   6.962   4.676 -0.7211  0.3953 -0.2672
   61MOL    C6622986   3.468   7.088   4.472 -0.0444 -0.6428  0.1035
   61MOL    H6722987   3.807   6.808   4.620 -1.1197 -0.4725  1.6555
   61MOL    H6822988   3.905   6.671   4.574  0.6960  0.4708  1.6403
   61MOL    H6922989   3.779   6.785   4.397 -0.2155  0.1116  0.5049
   61MOL    H7022990   3.660   6.926   4.528  0.7233  0.6284 -0.2839
   61MOL    H7122991   3.377   6.892   4.479  0.3450 -0.1086  0.4015
   61MOL    H7222992   3.319   7.001   4.692 -0.3449  0.7419  1.3521
   61MOL    H7322993   3.440   6.866   4.725  2.7850  0.8343 -0.7999
   61MOL    H7422994   3.485   7.021   4.739 -1.0656  0.8133 -0.2997
   61MOL    H7522995   3.376   7.148   4.476  1.4522  1.7409 -0.1152
   61MOL    H7622996   3.542   7.152   4.520  0.2272 -0.4246 -0.5918
   61MOL    H7722997   3.490   7.090   4.365 -3.6647 -2.3097 -0.7520
   61MOL    C7822998   3.763   6.573   4.365 -0.9129  0.7456 -0.2965
   61MOL    C7922999   3.759   6.576   4.210 -0.6893  0.5632  0.0735
   61MOL    C8023000   3.867   6.664   4.146  0.5450  0.4067  0.4353
   61MOL    O8123001   3.983   6.647   4.186  0.2132  0.5457 -0.2648
   61MOL    N8223002   3.837   6.751   4.047  0.2082 -0.1732  0.5510
   61MOL    C8323003   3.939   6.830   3.976 -0.6029 -0.3004 -0.0764
   61MOL    C8423004   3.993   6.741   3.865  0.1010  0.0205  0.0515
   61MOL    C8523005   3.877   6.960   3.931 -0.1293 -0.4827 -0.6475
   61MOL    H8623006   3.682   6.505   4.394  0.2861  0.1721  1.8766
   61MOL    H8723007   3.859   6.531   4.395  0.2448  0.1003 -4.5651
   61MOL    H8823008   3.656   6.607   4.189 -0.5032  0.4838 -0.9458
   61MOL    H8923009   3.738   6.754   4.028  0.4322 -0.6194 -0.7499
   61MOL    H9023010   4.022   6.862   4.039 -0.4344  0.1187 -0.5067
   61MOL    H9123011   3.908   6.694   3.814  0.4130 -2.0536  1.3761
   61MOL    H9223012   4.069   6.778   3.797 -0.3449  0.3643 -0.2702
   61MOL    H9323013   4.034   6.647   3.902  0.1689  0.1226  0.2341
   61MOL    H9423014   3.783   6.944   3.877  0.5337 -2.6690 -1.1985
   61MOL    H9523015   3.947   7.015   3.868 -0.3333  1.3410  0.6623
   61MOL    H9623016   3.848   7.023   4.016 -0.8870 -1.8086  0.1037
   61MOL    C9723017   3.777   6.431   4.158  0.1184  0.4764 -0.4431
   61MOL    C9823018   3.647   6.344   4.134 -0.1423 -0.4991 -0.1112
   61MOL    C9923019   3.677   6.192   4.113  0.4229 -0.2750  1.7375
   61MOL   O10023020   3.747   6.154   4.016  0.0564 -0.0573  0.4886
   61MOL   N10123021   3.618   6.106   4.197  0.1155 -0.0489 -0.0245
   61MOL   C10223022   3.626   5.959   4.196  1.0774  0.2030  0.3140
   61MOL   C10323023   3.684   5.908   4.325 -0.1125 -0.4501 -0.4848
   61MOL   C10423024   3.483   5.904   4.189 -0.2605  0.2773 -0.8783
   61MOL   H10523025   3.857   6.377   4.210  0.1368  0.6478 -0.2895
   61MOL   H10623026   3.813   6.435   4.056 -1.2473  1.9328 -0.8926
   61MOL   H10723027   3.594   6.340   4.229  1.0553  0.4087  0.6143
   61MOL   H10823028   3.557   6.143   4.269 -1.0777 -3.1384  0.6394
   61MOL   H10923029   3.678   5.927   4.106 -1.7401 -0.7375 -1.0289
   61MOL   H11023030   3.637   5.942   4.417  0.6947  1.1022 -0.6234
   61MOL   H11123031   3.678   5.800   4.330  0.3330 -0.4781 -0.5423
   61MOL   H11223032   3.791   5.930   4.324 -0.4300  1.1467 -1.5592
   61MOL   H11323033   3.419   5.951   4.264  0.1434 -2.6129  1.3326
   61MOL   H11423034   3.474   5.796   4.187  1.7306  0.0678  0.1740
   61MOL   H11523035   3.458   5.934   4.087  2.5918 -1.6452 -2.1779
   61MOL   C11623036   3.552   6.402   4.025  0.1756  0.6847  0.0507
   61MOL   C11723037   3.416   6.339   3.999  0.8723  0.2680  0.5194
   61MOL   C11823038   3.329   6.313   4.129 -0.8186 -0.2681  0.5319
   61MOL   O11923039   3.334   6.204   4.180 -0.1533 -0.1590 -0.0145
   61MOL   N12023040   3.244   6.405   4.165 -0.2121  0.2841 -0.2838
   61MOL   C12123041   3.149   6.385   4.276  0.1236 -0.3441  0.1873
   61MOL   C12223042   3.163   6.504   4.366 -0.3081  0.1131 -0.2959
   61MOL   C12323043   3.003   6.360   4.227 -0.0874 -0.6526 -0.3684
   61MOL   H12423044   3.614   6.386   3.937 -0.0482 -0.3561  0.0771
   61MOL   H12523045   3.545   6.510   4.038  2.3179  0.8717 -0.1597
   61MOL   H12623046   3.360   6.407   3.935  0.5059  0.6774  1.2689
   61MOL   H12723047   3.232   6.493   4.117 -0.7512  0.6072  0.4418
   61MOL   H12823048   3.177   6.301   4.339  1.8721  1.1712  1.4735
   61MOL   H12923049   3.264   6.532   4.396 -1.0310 -1.0304  3.4130
   61MOL   H13023050   3.099   6.486   4.452 -0.1319 -3.1055 -0.8126
   61MOL   H13123051   3.118   6.594   4.323  2.2846  0.1491 -3.1181
   61MOL   H13223052   2.991   6.269   4.168  0.6842  0.4653 -2.3146
   61MOL   H13323053   2.942   6.347   4.316  1.7717  0.6806  1.1384
   61MOL   H13423054   2.949   6.440   4.175 -1.4639 -1.6455 -0.5010
   61MOL   C13523055   3.423   6.217   3.904 -0.5227 -0.4509  0.5155
   61MOL   C13623056   3.294   6.151   3.857  0.3858  0.2449 -0.0441
   61MOL   C13723057   3.215   6.244   3.761 -0.2187  0.5518 -0.0144
   61MOL   O13823058   3.233   6.250   3.642 -0.2540  0.1021  0.4102
   61MOL   N13923059   3.108   6.302   3.808  0.2327 -0.6113  0.3644
   61MOL   C14023060   3.021   6.402   3.739  0.3362 -0.1761 -0.1821
   61MOL   C14123061   3.082   6.546   3.744 -0.3963 -0.1463  0.6980
   61MOL   C14223062   2.879   6.395   3.808 -0.8689  0.2838 -0.5510
   61MOL   H14323063   3.492   6.152   3.958 -0.5084 -0.5926  0.3284
   61MOL   H14423064   3.470   6.259   3.814 -0.8906  0.0525  0.5566
   61MOL   H14523065   3.225   6.125   3.937 -0.2765  0.8186 -0.4225
   61MOL   H14623066   3.086   6.290   3.906  4.2535 -0.0333  1.4291
   61MOL   H14723067   2.997   6.379   3.635  0.0914  2.0855 -0.6498
   61MOL   H14823068   3.109   6.581   3.844  1.2168  0.0372  0.2036
   61MOL   H14923069   3.174   6.557   3.687 -0.5153  1.8421  0.8401
   61MOL   H15023070   3.007   6.619   3.711  0.3441 -0.0355 -0.7723
   61MOL   H15123071   2.805   6.457   3.757  1.6236  2.3440 -1.8295
   61MOL   H15223072   2.881   6.436   3.909  1.7298 -0.0325 -0.4516
   61MOL   H15323073   2.852   6.290   3.810  1.0750 -0.2254  3.8850
   61MOL   C15423074   3.331   6.018   3.790  0.2143 -0.3512 -0.0006
   61MOL   C15523075   3.442   6.019   3.680  0.2039 -0.7821  0.4095
   61MOL   C15623076   3.383   5.961   3.547  0.3452 -0.4414  0.3726
   61MOL   O15723077   3.322   5.853   3.547  0.2718 -0.0393 -0.1169
   61MOL   N15823078   3.412   6.030   3.439 -0.0736  0.4790  0.2224
   61MOL   C15923079   3.399   6.000   3.297  0.0078  0.6371 -0.4487
   61MOL   C16023080   3.534   5.941   3.248 -0.4875 -0.8267 -0.7141
   61MOL   C16123081   3.356   6.126   3.214 -0.1343  0.3928  0.2077
   61MOL   H16223082   3.233   5.979   3.762  0.7389 -1.6957 -0.0249
   61MOL   H16323083   3.353   5.952   3.875  2.4524  0.9759  0.5003
   61MOL   H16423084   3.467   6.122   3.652  0.5290 -1.6878 -2.8259
   61MOL   H16523085   3.457   6.119   3.455  1.9227 -0.4921  0.1761
   61MOL   H16623086   3.324   5.921   3.285 -0.5934  1.0569  0.5307
   61MOL   H16723087   3.519   5.930   3.140  1.7204 -2.1792 -0.9215
   61MOL   H16823088   3.616   6.011   3.267  0.2205 -2.0264  0.7048
   61MOL   H16923089   3.563   5.843   3.286  1.4436 -0.5754 -1.4688
   61MOL   H17023090   3.438   6.198   3.219  1.0969 -0.7946 -2.0240
   61MOL   H17123091   3.270   6.176   3.260  1.0268  2.7346 -0.0715
   61MOL   H17223092   3.334   6.092   3.113 -2.1034 -0.7997  1.0301
   61MOL   C17323093   3.565   5.941   3.719 -0.2486 -0.2884  0.0742
   61MOL   C17423094   3.704   6.019   3.714  0.4039 -0.0585  0.0744
   61MOL   C17523095   3.810   5.922   3.764  0.1256 -0.5582  0.2753
   61MOL   O17623096   3.828   5.815   3.715 -0.1013  0.3600  0.0930
   61MOL   N17723097   3.880   5.972   3.866 -0.1728 -0.2478  0.4498
   61MOL   C17823098   3.998   5.913   3.923 -0.0064 -0.2424  0.2588
   61MOL   C17923099   4.043   5.972   4.063 -0.1131  0.6268 -0.4124
   61MOL   C18023100   4.118   5.935   3.821 -0.4384  0.5475  0.5991
   61MOL   H18123101   3.584   5.852   3.658 -1.1803 -0.5966  0.2302
   61MOL   H18223102   3.552   5.891   3.815  0.4431  1.4853  1.1169
   61MOL   H18323103   3.694   6.111   3.771 -1.5977  0.6703 -1.3968
   61MOL   H18423104   3.842   6.055   3.910 -0.9565 -1.2043  1.6035
   61MOL   H18523105   3.975   5.808   3.945  2.0279 -0.9289 -0.6905
   61MOL   H18623106   3.971   5.945   4.140  1.3669  0.6316  1.0049
   61MOL   H18723107   4.057   6.079   4.054 -2.4478  0.9848  0.0785
   61MOL   H18823108   4.144   5.940   4.091 -0.5604  0.2052  0.7496
   61MOL   H18923109   4.206   5.874   3.842 -1.3215 -0.0350  2.6905
   61MOL   H19023110   4.153   6.039   3.818  0.5340  0.1616 -3.2371
   61MOL   H19123111   4.093   5.912   3.718  0.9105 -0.0429  0.3930
   61MOL   C19223112   3.731   6.068   3.574 -0.3891 -0.1588 -0.0199
   61MOL   C19323113   3.864   6.140   3.557  0.3647 -0.3302  0.9526
   61MOL   C19423114   3.860   6.276   3.627 -0.8338  0.0340  0.1221
   61MOL   O19523115   3.758   6.341   3.637  0.1935  0.4336  0.2617
   61MOL   N19623116   3.981   6.304   3.682  0.6242  0.9521 -0.2126
   61MOL   C19723117   4.022   6.414   3.768  0.0497  0.2603  0.1472
   61MOL   C19823118   4.062   6.351   3.911 -0.6969  0.3455  0.2006
   61MOL   C19923119   4.135   6.483   3.695  1.2819 -0.0434 -0.8209
   61MOL   H20023120   3.651   6.136   3.543 -2.5081 -0.4488  4.3375
   61MOL   H20123121   3.711   5.988   3.503  0.4670 -2.1723  1.9247
   61MOL   H20223122   3.940   6.080   3.607  1.8276  1.1084  0.5062
   61MOL   H20323123   4.053   6.236   3.662  0.3181  0.3192  0.8140
   61MOL   H20423124   3.938   6.482   3.783  0.7955  1.1558  0.2275
   61MOL   H20523125   4.150   6.288   3.899 -1.2627 -0.0138 -2.4296
   61MOL   H20623126   3.982   6.293   3.958  0.0575  0.1011  1.2120
   61MOL   H20723127   4.084   6.441   3.969 -0.3257 -1.1185  2.4096
   61MOL   H20823128   4.209   6.417   3.651 -0.9566 -0.8751 -3.4154
   61MOL   H20923129   4.187   6.555   3.759  2.6278 -1.4738 -0.2632
   61MOL   H21023130   4.100   6.545   3.613 -0.8673  0.4415  0.4299
   61MOL   C21123131   3.912   6.157   3.412  0.3888 -0.1959  0.1712
   61MOL   C21223132   4.033   6.073   3.369 -0.2144  0.6066 -0.5266
   61MOL   C21323133   4.171   6.107   3.437 -0.0527  0.1598  0.3484
   61MOL   O21423134   4.172   6.168   3.543  0.5843 -0.1265  0.2292
   61MOL   N21523135   4.286   6.063   3.383  0.0292 -0.0068  0.4561
   61MOL   C21623136   4.426   6.072   3.427 -0.0768 -0.0438 -0.1843
   61MOL   C21723137   4.514   6.006   3.321 -0.2980  0.1220 -0.6493
   61MOL   C21823138   4.445   6.010   3.560  0.6658 -0.0855 -0.2533
   61MOL   H21923139   3.925   6.262   3.385 -0.5540  0.4852  2.2724
   61MOL   H22023140   3.836   6.131   3.338  1.9517 -2.0201 -0.8404
   61MOL   H22123141   4.030   6.086   3.261  0.5203 -0.7909 -0.7254
   61MOL   H22223142   4.273   6.013   3.297  1.1899  0.9727 -0.3108
   61MOL   H22323143   4.444   6.179   3.438  2.0067 -0.1270 -2.2582
   61MOL   H22423144   4.500   5.900   3.303  2.9720 -0.3257 -0.8106
   61MOL   H22523145   4.495   6.046   3.221  0.6942  1.2042 -0.4216
   61MOL   H22623146   4.620   6.017   3.343 -0.8125  0.8270  1.6464
   61MOL   H22723147   4.377   6.048   3.636  1.9346 -0.6370  1.1873
   61MOL   H22823148   4.547   6.030   3.593  0.6813 -0.8475  0.1737
   61MOL   H22923149   4.435   5.902   3.548 -1.5892  0.2765 -2.0202
   61MOL   C23023150   4.015   5.914   3.387  0.1889 -0.1819 -0.3300
   61MOL   C23123151   4.018   5.815   3.265 -0.3199 -0.5751  0.3292
   61MOL   C23223152   4.087   5.866   3.140 -0.0708  0.0543 -0.5951
   61MOL   O23323153   4.193   5.938   3.149  0.7885 -0.2849 -0.7774
   61MOL   N23423154   4.031   5.845   3.024  0.3465 -0.4405  0.2122
   61MOL   C23523155   4.078   5.908   2.899  0.3737  0.3092 -0.6076
   61MOL   C23623156   4.200   5.829   2.839  0.7122  0.2975  0.3910
   61MOL   C23723157   3.964   5.901   2.797 -0.3535 -0.0517 -0.1587
   61MOL   H23823158   3.919   5.908   3.438 -0.1896 -0.5100 -1.0639
   61MOL   H23923159   4.083   5.877   3.464 -0.3598 -0.0217  0.2312
   61MOL   H24023160   3.913   5.816   3.234 -0.4359 -0.3324  0.7267
   61MOL   H24123161   3.953   5.780   3.026 -2.7847  3.1872  0.2772
   61MOL   H24223162   4.110   6.009   2.926  1.3687 -0.4754  1.2152
   61MOL   H24323163   4.196   5.721   2.830 -1.3727  0.3954 -0.2708
   61MOL   H24423164   4.224   5.869   2.740  2.7926 -0.6178  0.5136
   61MOL   H24523165   4.290   5.856   2.893 -1.0727  1.0156  3.1195
   61MOL   H24623166   3.962   5.973   2.715 -0.6140 -0.7997 -0.8141
   61MOL   H24723167   3.878   5.937   2.854 -1.0700 -0.5921 -0.8724
   61MOL   H24823168   3.953   5.805   2.747 -0.8995  0.1826 -0.4974
   61MOL   C24923169   4.065   5.669   3.302 -0.1545  0.3314  0.8317
   61MOL   C25023170   3.963   5.555   3.297  0.0801 -0.4146 -0.5843
   61MOL   C25123171   3.925   5.530   3.152  0.2617 -0.1889 -0.2844
   61MOL   O25223172   3.856   5.616   3.095  0.0085 -0.3517  0.1097
   61MOL   N25323173   3.963   5.413   3.095  0.0407 -0.4327 -0.4079
   61MOL   C25423174   3.913   5.373   2.965  0.3146  0.3408  0.0298
   61MOL   C25523175   4.002   5.426   2.847 -0.3428  0.3275 -0.3205
   61MOL   C25623176   3.870   5.223   2.959  0.1175 -0.0700  0.3775
   61MOL   H25723177   4.098   5.678   3.405  1.2776  0.6173  0.3562
   61MOL   H25823178   4.143   5.631   3.236 -0.9528 -1.0100  0.6192
   61MOL   H25923179   4.014   5.463   3.322  0.5873 -0.2255 -0.9159
   61MOL   H26023180   4.041   5.358   3.129  2.0472  2.0742 -0.7460
   61MOL   H26123181   3.822   5.429   2.944  0.5569  0.2647 -1.2739
   61MOL   H26223182   4.082   5.358   2.818 -2.3575 -2.4346  0.3397
   61MOL   H26323183   3.938   5.414   2.760  0.7101 -1.2767 -0.9036
   61MOL   H26423184   4.030   5.531   2.847 -2.5814  0.9656 -2.6871
   61MOL   H26523185   3.807   5.192   2.877  0.7348 -1.4340  0.4001
   61MOL   H26623186   3.957   5.157   2.961  1.8038  1.9900 -1.9449
   61MOL   H26723187   3.819   5.192   3.050 -1.6102  1.2808 -0.1070
   61MOL   C26823188   3.835   5.586   3.380  0.0826 -0.5516 -0.0271
   61MOL   C26923189   3.733   5.474   3.402  0.4665  0.5073 -0.1203
   61MOL   C27023190   3.797   5.342   3.462  0.2509  0.1395 -1.0828
   61MOL   O27123191   3.797   5.327   3.586  0.6136 -0.4802 -0.0174
   61MOL   N27223192   3.838   5.247   3.382 -0.0471  0.7011  0.0382
   61MOL   C27323193   3.907   5.119   3.411  1.5172  0.3611  1.0624
   61MOL   C27423194   3.875   5.020   3.296  0.2807  0.5363 -0.0209
   61MOL   C27523195   4.061   5.145   3.416  0.3923 -0.2564 -0.4397
   61MOL   H27623196   3.852   5.637   3.475 -0.8240 -0.7373  0.2422
   61MOL   H27723197   3.788   5.670   3.329  1.4366 -0.6269 -1.4470
   61MOL   H27823198   3.697   5.454   3.301  2.0842  0.8249 -0.7856
   61MOL   H27923199   3.838   5.274   3.285  3.9969 -1.1240 -0.6067
   61MOL   H28023200   3.873   5.073   3.504 -3.1521 -1.6062 -1.4907
   61MOL   H28123201   3.866   5.063   3.196 -0.9360  2.1909  0.7667
   61MOL   H28223202   3.954   4.945   3.297  0.6807  0.9534  1.7573
   61MOL   H28323203   3.778   4.978   3.323  0.0074  0.7683 -0.6206
   61MOL   H28423204   4.073   5.220   3.494 -1.2224  1.7744 -2.0962
   61MOL   H28523205   4.107   5.050   3.447 -1.0817 -0.3019  1.7178
   61MOL   H28623206   4.087   5.193   3.322  0.2049  1.4928  0.3962
   61MOL   C28723207   3.614   5.529   3.481  0.3525  0.4006  0.0738
   61MOL   C28823208   3.496   5.432   3.497 -0.2117  0.1246 -0.2228
   61MOL   C28923209   3.409   5.423   3.374 -0.1422  0.8044  0.3394
   61MOL   O29023210   3.430   5.340   3.287  0.2012 -0.2057 -0.4487
   61MOL   N29123211   3.316   5.514   3.362 -0.2256 -0.3047 -0.1203
   61MOL   C29223212   3.236   5.549   3.244  0.0569  0.1591 -0.0431
   61MOL   C29323213   3.115   5.641   3.279 -1.1162 -0.3081 -0.7231
   61MOL   C29423214   3.320   5.626   3.142  0.4251  0.5551 -0.0021
   61MOL   H29523215   3.647   5.557   3.581 -0.0592  2.1359 -0.2539
   61MOL   H29623216   3.581   5.616   3.424  2.5998  0.9823 -0.3722
   61MOL   H29723217   3.528   5.328   3.500 -0.7951 -0.0615 -0.3009
   61MOL   H29823218   3.302   5.579   3.438  3.2579  0.6409 -0.2010
   61MOL   H29923219   3.195   5.455   3.206  0.0337 -0.1812  0.8049
   61MOL   H30023220   3.046   5.664   3.197  0.0321 -0.4706 -1.7463
   61MOL   H30123221   3.067   5.598   3.366  0.9906 -1.5979 -0.1750
   61MOL   H30223222   3.161   5.733   3.315  1.4461 -1.8241 -0.0707
   61MOL   H30323223   3.344   5.726   3.177 -1.4273  0.6256  1.1249
   61MOL   H30423224   3.407   5.562   3.129  1.2507  1.4117  1.1678
   61MOL   H30523225   3.270   5.632   3.045 -0.5008  1.2292  0.5120
   61MOL   C30623226   3.416   5.473   3.632 -0.4342  0.4736 -0.1796
   61MOL   C30723227   3.486   5.423   3.761  0.7622  0.2605  0.5630
   61MOL   C30823228   3.479   5.271   3.769  0.1452 -0.4265  0.1725
   61MOL   O30923229   3.375   5.212   3.802 -0.0309  0.2064 -0.7257
   61MOL   N31023230   3.591   5.203   3.737  0.3411  0.7649 -1.2122
   61MOL   C31123231   3.611   5.051   3.740 -0.4114  0.0667  0.3241
   61MOL   C31223232   3.598   4.986   3.602 -0.1570 -0.7494 -0.2807
   61MOL   C31323233   3.747   5.027   3.807 -0.2729 -0.8147  0.4523
   61MOL   H31423234   3.408   5.582   3.636 -0.2625  0.4650  0.6780
   61MOL   H31523235   3.317   5.428   3.627 -0.1225 -0.2221 -0.1031
   61MOL   H31623236   3.589   5.460   3.756  0.8440 -0.1420 -0.7429
   61MOL   H31723237   3.668   5.266   3.720  0.0830  1.8326  1.3614
   61MOL   H31823238   3.539   4.999   3.803 -1.5030 -2.1409 -2.6492
   61MOL   H31923239   3.633   4.883   3.605 -0.1508 -0.7653 -0.8458
   61MOL   H32023240   3.646   5.056   3.534  0.7866 -2.4157 -1.3520
   61MOL   H32123241   3.494   4.981   3.569 -0.1351  0.1228 -0.4896
   61MOL   H32223242   3.820   5.091   3.757  1.7392 -2.2689  1.4329
   61MOL   H32323243   3.775   4.922   3.815 -1.3966 -1.1396  0.2471
   61MOL   H32423244   3.737   5.061   3.910 -2.6819  0.5051 -0.1780
   61MOL   C32523245   3.425   5.487   3.894 -0.1525 -0.4178  0.6962
   61MOL   C32623246   3.477   5.432   4.029  0.4738  0.3393 -0.2396
   61MOL   C32723247   3.626   5.479   4.058 -0.0442  0.4947  0.3902
   61MOL   O32823248   3.643   5.588   4.113  0.3417 -0.4218 -0.5126
   61MOL   N32923249   3.728   5.401   4.022 -0.1275 -0.9390  0.8213
   61MOL   C33023250   3.869   5.449   4.005  0.2155  0.2204 -0.6061
   61MOL   C33123251   3.887   5.517   3.875 -0.2784  0.1980  0.8414
   61MOL   C33223252   3.957   5.317   4.011  0.0592  0.3687  0.6261
   61MOL   H33323253   3.316   5.477   3.890 -0.0615 -1.2162 -0.0119
   61MOL   H33423254   3.441   5.594   3.883  0.1291 -0.6356 -1.1222
   61MOL   H33523255   3.485   5.324   4.022 -0.3431  0.2774 -0.3311
   61MOL   H33623256   3.710   5.310   3.983 -0.0287 -1.0802  1.1074
   61MOL   H33723257   3.893   5.520   4.084  2.3879 -0.2222 -0.8503
   61MOL   H33823258   3.844   5.617   3.878 -0.8394  0.0591 -1.3246
   61MOL   H33923259   3.992   5.529   3.849 -0.7245 -0.6328 -1.4516
   61MOL   H34023260   3.840   5.479   3.784  1.5386 -2.0554  0.8032
   61MOL   H34123261   3.903   5.235   3.963 -0.9220  0.8522  0.8951
   61MOL   H34223262   3.966   5.285   4.115 -1.9849 -0.2226  0.6388
   61MOL   H34323263   4.059   5.330   3.974  0.1178 -0.4989  0.4849
   61MOL   C34423264   3.382   5.460   4.152 -0.0275 -0.2102 -0.3816
   61MOL   C34523265   3.252   5.378   4.174 -0.6823  0.3096 -0.2827
   61MOL   C34623266   3.287   5.233   4.195 -0.3704 -0.0904 -0.6469
   61MOL   O34723267   3.350   5.197   4.289  0.0248 -0.4998  0.6250
   61MOL   N34823268   3.239   5.155   4.098  0.0346 -0.1974 -0.4487
   61MOL   C34923269   3.253   5.009   4.082 -0.4674 -0.3267  0.0452
   61MOL   C35023270   3.392   4.971   4.034 -0.4829 -0.0749  0.0345
   61MOL   C35123271   3.199   4.919   4.189  0.1541  1.4419 -0.9212
   61MOL   H35223272   3.352   5.563   4.132  2.0218  0.6631  0.8478
   61MOL   H35323273   3.438   5.465   4.245 -1.4486  0.2757  0.4601
   61MOL   H35423274   3.201   5.394   4.079 -3.1904 -2.2145  0.5816
   61MOL   H35523275   3.186   5.206   4.028  0.5486 -1.3644 -1.7275
   61MOL   H35623276   3.191   4.985   3.996  1.2838  0.2996 -1.4176
   61MOL   H35723277   3.395   4.881   3.973 -0.8763  0.4010 -0.6824
   61MOL   H35823278   3.448   5.053   3.989  0.1933  1.2062  3.0406
   61MOL   H35923279   3.463   4.944   4.113 -0.9213  1.2501  0.9011
   61MOL   H36023280   3.259   4.943   4.276 -1.6690  2.3896  0.1149
   61MOL   H36123281   3.104   4.953   4.232  1.2693  1.1402  1.8447
   61MOL   H36223282   3.192   4.814   4.161 -0.0318  1.1796  0.0723
   61MOL   C36323283   3.156   5.434   4.288 -0.4413 -0.1993 -0.6409
   61MOL   C36423284   3.014   5.375   4.292  0.5656 -0.5114 -0.4983
   61MOL   C36523285   2.922   5.400   4.175 -0.8579 -0.0490 -0.7986
   61MOL   O36623286   2.971   5.418   4.061  0.6934 -0.7689  0.1407
   61MOL   N36723287   2.792   5.414   4.208  0.0648  0.3233  0.4065
   61MOL   C36823288   2.688   5.420   4.103  0.4809  0.7869  0.1735
   61MOL   C36923289   2.551   5.389   4.168 -0.4022 -0.4385 -0.1329
   61MOL   C37023290   2.706   5.550   4.022 -0.0992  0.5265  0.2274
   61MOL   H37123291   3.128   5.538   4.273  0.2379  0.2087  0.8297
   61MOL   H37223292   3.209   5.439   4.383 -1.4804 -0.1839 -0.0509
   61MOL   H37323293   2.968   5.398   4.388 -1.0047  3.3449 -2.0760
   61MOL   H37423294   2.776   5.426   4.307 -1.6782  2.7644 -0.1239
   61MOL   H37523295   2.707   5.349   4.022 -0.4215  2.0954 -1.2250
   61MOL   H37623296   2.542   5.448   4.259 -0.0115  2.8666 -2.1730
   61MOL   H37723297   2.466   5.419   4.107 -0.8083  1.0719  1.1474
   61MOL   H37823298   2.538   5.283   4.193 -1.3550 -0.3938 -0.4055
   61MOL   H37923299   2.675   5.632   4.087  0.3651  1.9021 -1.2712
   61MOL   H38023300   2.807   5.574   3.989  0.2163 -0.6778  0.2929
   61MOL   H38123301   2.636   5.564   3.940  0.5631 -0.5500 -0.5383
   61MOL   H38223302   3.016   5.267   4.303  0.6116 -0.2680  2.1930
   62MOL     C123303   0.726   5.297   4.044 -0.2512 -0.0037  0.2172
   62MOL     C223304   0.614   5.397   4.015 -0.3846  0.1926  0.6890
   62MOL     C323305   0.663   5.540   4.036 -0.0042  0.3998 -0.8148
   62MOL     O423306   0.609   5.617   4.116 -0.1956  0.2116  0.3670
   62MOL     N523307   0.783   5.572   3.981  0.2339 -0.3207 -0.1337
   62MOL     C623308   0.845   5.699   3.994 -0.1052 -0.8276 -0.8671
   62MOL     C723309   0.946   5.686   4.114  0.0309  0.5359 -0.5126
   62MOL     C823310   0.912   5.745   3.865 -0.2768 -0.4009 -0.7782
   62MOL     H923311   0.790   5.278   3.958 -0.6435 -0.0116 -0.0729
   62MOL    H1023312   0.672   5.205   4.061 -1.1510  0.6050  0.6767
   62MOL    H1123313   0.529   5.381   4.082 -0.7833 -3.1609 -0.5378
   62MOL    H1223314   0.807   5.518   3.900  0.5960 -0.5594  0.1328
   62MOL    H1323315   0.765   5.769   4.017  1.1716 -0.9650  4.7569
   62MOL    H1423316   0.980   5.786   4.139 -0.4052  0.3237  0.9780
   62MOL    H1523317   1.023   5.619   4.077 -1.1093 -0.6800 -0.7232
   62MOL    H1623318   0.896   5.647   4.203  0.9573  1.3495  0.3720
   62MOL    H1723319   0.984   5.673   3.829 -1.1139 -0.6529 -1.9777
   62MOL    H1823320   0.831   5.763   3.794 -0.3684 -1.3274 -0.9075
   62MOL    H1923321   0.962   5.841   3.875  0.1281 -0.7994  1.3255
   62MOL    H2023322   0.777   5.324   4.137  1.0226 -1.4465 -0.0341
   62MOL    C2123323   0.579   5.363   3.869  0.2344 -0.7386 -0.2962
   62MOL    C2223324   0.453   5.440   3.812  0.2912 -0.1305  0.0626
   62MOL    C2323325   0.323   5.373   3.859 -0.5488 -0.1752 -0.3751
   62MOL    O2423326   0.326   5.252   3.891 -0.2540  0.1700 -0.5053
   62MOL    N2523327   0.211   5.447   3.856  0.2372 -0.3196 -0.2706
   62MOL    C2623328   0.082   5.404   3.902  0.3649 -0.5625  0.3180
   62MOL    C2723329   7.810   5.476   3.812  0.7256  0.9691  0.1417
   62MOL    C2823330   0.057   5.449   4.046 -0.2362 -0.4666  1.3037
   62MOL    H2923331   0.562   5.256   3.860 -2.5137 -0.5008  1.3046
   62MOL    H3023332   0.662   5.391   3.804  0.4360 -1.0066 -0.1560
   62MOL    H3123333   0.444   5.543   3.848 -0.4032  0.1690 -0.9350
   62MOL    H3223334   0.215   5.529   3.796 -1.5308 -0.3077 -0.3752
   62MOL    H3323335   0.073   5.296   3.893 -1.6209 -0.4961  1.4510
   62MOL    H3423336   7.833   5.453   3.708  1.6603 -0.7401  0.7138
   62MOL    H3523337   7.825   5.581   3.839 -1.3463  0.6285  2.8817
   62MOL    H3623338   7.709   5.440   3.830  0.7046  0.4034 -1.1063
   62MOL    H3723339   0.141   5.409   4.105  1.7949 -1.1369 -1.9399
   62MOL    H3823340   0.038   5.555   4.061 -1.5253 -0.2197 -1.8869
   62MOL    H3923341   7.801   5.403   4.079 -1.8589  0.3954 -1.8711
   62MOL    C4023342   0.462   5.441   3.659  0.5493  0.8133 -0.6760
   62MOL    C4123343   0.502   5.577   3.592 -0.0393  0.1225  0.0449
   62MOL    C4223344   0.393   5.688   3.598 -0.0909  0.4577 -0.0393
   62MOL    O4323345   0.279   5.656   3.633  0.0529 -0.5049 -0.3165
   62MOL    N4423346   0.423   5.811   3.546 -0.2373  0.1329 -0.3003
   62MOL    C4523347   0.318   5.908   3.509 -0.2486 -0.0833 -0.0836
   62MOL    C4623348   0.375   6.055   3.510  0.1190  0.2417  0.2351
   62MOL    C4723349   0.253   5.873   3.366 -0.7286  0.7128 -0.4926
   62MOL    H4823350   0.362   5.417   3.623  0.5861 -0.1213 -0.1866
   62MOL    H4923351   0.529   5.360   3.630 -2.6793 -1.1967 -2.8069
   62MOL    H5023352   0.596   5.617   3.631 -0.3212 -0.6187  1.5215
   62MOL    H5123353   0.517   5.826   3.514 -0.1680  0.0648 -0.1230
   62MOL    H5223354   0.233   5.935   3.571 -0.1879  2.2715 -0.9655
   62MOL    H5323355   0.387   6.097   3.610  1.6673 -1.2270  0.6874
   62MOL    H5423356   0.301   6.119   3.464 -2.1409 -1.4611  1.3985
   62MOL    H5523357   0.467   6.067   3.453 -1.5329  1.1591 -2.2801
   62MOL    H5623358   0.165   5.810   3.380 -0.8741  0.7750 -1.1095
   62MOL    H5723359   0.324   5.822   3.301  0.2112  1.9234 -0.4381
   62MOL    H5823360   0.217   5.962   3.315  2.2903  0.7512 -2.6989
   62MOL    C5923361   0.548   5.553   3.447 -0.6369  0.2125 -0.6083
   62MOL    C6023362   0.702   5.560   3.418 -0.0071 -0.1009  0.0918
   62MOL    C6123363   0.776   5.436   3.487 -0.1988  0.2621 -0.1018
   62MOL    O6223364   0.794   5.447   3.607 -0.4332 -0.4959 -0.0943
   62MOL    N6323365   0.799   5.322   3.420 -0.3489  0.0315  0.0216
   62MOL    C6423366   0.876   5.207   3.462  0.9053 -0.0982 -0.9980
   62MOL    C6523367   1.026   5.242   3.499  0.0560  0.1301 -0.3680
   62MOL    C6623368   0.805   5.110   3.561 -0.7712  0.0716  0.2859
   62MOL    H6723369   0.519   5.451   3.419  0.2965 -0.4030  0.5895
   62MOL    H6823370   0.495   5.617   3.378 -2.2587 -0.6259 -0.1653
   62MOL    H6923371   0.707   5.556   3.309 -1.1156  1.0286 -0.0092
   62MOL    H7023372   0.756   5.333   3.330 -0.5865  1.6920  0.3256
   62MOL    H7123373   0.889   5.163   3.363 -0.2499 -1.5201 -0.5335
   62MOL    H7223374   1.031   5.314   3.580  2.5151 -0.1592 -0.2476
   62MOL    H7323375   1.075   5.152   3.536 -2.8706 -1.0052  0.9410
   62MOL    H7423376   1.099   5.274   3.424  1.4160  1.5235  1.5088
   62MOL    H7523377   0.713   5.073   3.517 -0.1902 -1.1775  0.0977
   62MOL    H7623378   0.867   5.025   3.589 -0.8346  0.2671  1.0505
   62MOL    H7723379   0.788   5.170   3.651 -0.5755 -0.3975  0.6387
   62MOL    C7823380   0.767   5.697   3.456  0.5240  0.4896 -0.6187
   62MOL    C7923381   0.928   5.710   3.440 -0.5743 -0.0738  0.1559
   62MOL    C8023382   0.970   5.702   3.295 -0.1619  0.0143  0.4611
   62MOL    O8123383   0.927   5.789   3.213  0.0513  0.9127 -0.5658
   62MOL    N8223384   1.043   5.597   3.263 -0.1371 -0.3243 -0.5286
   62MOL    C8323385   1.070   5.545   3.134 -0.6280  0.5490  0.0368
   62MOL    C8423386   1.220   5.524   3.115 -0.5468 -0.0380  0.5306
   62MOL    C8523387   0.995   5.412   3.120 -0.2698  0.6788  0.2371
   62MOL    H8623388   0.747   5.722   3.560 -2.5505 -1.1759 -0.7689
   62MOL    H8723389   0.713   5.779   3.408 -1.3277 -1.0263 -1.1766
   62MOL    H8823390   0.976   5.635   3.502  3.0544  2.4559  0.5782
   62MOL    H8923391   1.080   5.543   3.341 -0.0845 -0.6690 -0.7934
   62MOL    H9023392   1.035   5.615   3.059 -0.8047  0.7579  0.3164
   62MOL    H9123393   1.241   5.484   3.016  0.3695  0.5531  0.4857
   62MOL    H9223394   1.276   5.616   3.128  1.9670 -1.4825  0.2356
   62MOL    H9323395   1.265   5.456   3.188 -2.2600 -1.6744  0.1199
   62MOL    H9423396   1.052   5.332   3.168 -1.7703  0.0965  1.0755
   62MOL    H9523397   0.980   5.399   3.013 -1.1315  0.5145  0.3723
   62MOL    H9623398   0.898   5.417   3.171  0.3002 -0.3284  1.4695
   62MOL    C9723399   0.974   5.842   3.500 -0.0672  0.4676  0.2726
   62MOL    C9823400   1.126   5.867   3.530  0.0015  0.2325 -0.2687
   62MOL    C9923401   1.197   5.746   3.608  0.0323 -0.2226 -0.3921
   62MOL   O10023402   1.215   5.639   3.549 -0.5183  0.6355 -0.2375
   62MOL   N10123403   1.243   5.777   3.730 -0.0446  0.3632 -0.1479
   62MOL   C10223404   1.341   5.703   3.809 -0.0820  0.5253 -0.0063
   62MOL   C10323405   1.443   5.788   3.879  0.3938 -0.1362 -0.3152
   62MOL   C10423406   1.260   5.627   3.918  0.2989 -0.1534  0.6078
   62MOL   H10523407   0.917   5.851   3.592 -0.8708 -1.8142  0.0380
   62MOL   H10623408   0.938   5.918   3.431  0.0866  0.4218  0.1418
   62MOL   H10723409   1.170   5.872   3.431 -0.9129  0.6201 -0.6590
   62MOL   H10823410   1.233   5.874   3.759  2.7294  1.0242 -1.2481
   62MOL   H10923411   1.394   5.638   3.739  0.3580 -1.2199  1.9228
   62MOL   H11023412   1.397   5.853   3.952  0.1344  1.6887 -2.0607
   62MOL   H11123413   1.505   5.720   3.938  0.1762  1.3712  1.6980
   62MOL   H11223414   1.508   5.840   3.809 -1.7757  1.4648 -1.1874
   62MOL   H11323415   1.239   5.693   4.003 -0.4048 -0.7698  0.9192
   62MOL   H11423416   1.330   5.551   3.952  1.8993  1.4922  1.0772
   62MOL   H11523417   1.170   5.577   3.883 -0.0110  0.9901 -0.2610
   62MOL   C11623418   1.130   6.006   3.601 -0.0921  0.6569  0.3512
   62MOL   C11723419   1.253   6.095   3.576  0.2545  0.0737  0.1919
   62MOL   C11823420   1.283   6.182   3.704  0.1379 -1.4646 -0.2450
   62MOL   O11923421   1.199   6.267   3.745 -0.1852 -0.0213 -0.4449
   62MOL   N12023422   1.405   6.173   3.764  0.8182 -0.1114  0.4620
   62MOL   C12123423   1.434   6.236   3.895 -0.1063  0.6177  0.2697
   62MOL   C12223424   1.524   6.146   3.981 -0.1930 -0.7005 -0.8654
   62MOL   C12323425   1.491   6.372   3.869 -0.2589 -0.0919 -0.5199
   62MOL   H12423426   1.120   5.988   3.708 -0.7812  0.9240  0.3325
   62MOL   H12523427   1.037   6.060   3.582 -0.2137  1.0645  2.0286
   62MOL   H12623428   1.341   6.035   3.551 -0.0252 -0.0575 -0.4745
   62MOL   H12723429   1.469   6.101   3.734 -0.7704 -1.3361 -0.0753
   62MOL   H12823430   1.341   6.237   3.950  0.2841 -1.1954  1.0012
   62MOL   H12923431   1.563   6.183   4.075  0.3591  0.1229 -1.4083
   62MOL   H13023432   1.611   6.121   3.920 -1.1122 -0.6927 -2.2089
   62MOL   H13123433   1.470   6.056   4.011 -0.2834 -0.5842 -0.6798
   62MOL   H13223434   1.507   6.417   3.967  0.1260 -1.4997  0.0761
   62MOL   H13323435   1.584   6.361   3.813  0.9681 -1.4209  1.7009
   62MOL   H13423436   1.406   6.423   3.824 -1.4938 -1.1794  0.5403
   62MOL   C13523437   1.227   6.183   3.453 -0.7505  0.0591  0.0215
   62MOL   C13623438   1.092   6.267   3.442 -0.0866  0.4852  0.4641
   62MOL   C13723439   1.126   6.417   3.434 -0.3365 -0.2948 -0.1177
   62MOL   O13823440   1.178   6.462   3.332 -0.1079 -0.1639 -0.3306
   62MOL   N13923441   1.102   6.498   3.542  0.9491 -0.2349  0.4491
   62MOL   C14023442   1.128   6.645   3.564  0.2492  0.3307 -0.5004
   62MOL   C14123443   1.037   6.731   3.480  0.4546  0.1788 -0.8162
   62MOL   C14223444   1.280   6.683   3.553 -0.6697  0.2724  0.4352
   62MOL   H14323445   1.236   6.121   3.365 -2.2142 -0.4456  0.2112
   62MOL   H14423446   1.308   6.256   3.449 -0.2736 -0.4518  0.3462
   62MOL   H14523447   1.044   6.258   3.539  0.5678  0.3181  0.7714
   62MOL   H14623448   1.086   6.450   3.630 -3.2024 -1.7346 -0.9901
   62MOL   H14723449   1.114   6.664   3.670  0.9220  1.6116 -0.6208
   62MOL   H14823450   0.979   6.664   3.417 -1.7454  0.8671  0.4183
   62MOL   H14923451   0.964   6.772   3.550  1.3199 -0.0617  0.2514
   62MOL   H15023452   1.087   6.813   3.429  0.9401 -1.0868 -2.4195
   62MOL   H15123453   1.331   6.588   3.569 -1.5483  0.0144  1.7739
   62MOL   H15223454   1.325   6.754   3.623  0.4252  0.1484 -0.1218
   62MOL   H15323455   1.312   6.714   3.454 -0.1656 -1.0953  0.1600
   62MOL   C15423456   1.000   6.219   3.330  0.6768  0.1775  0.0850
   62MOL   C15523457   0.858   6.288   3.321  0.4093  0.8200 -0.3916
   62MOL   C15623458   0.780   6.262   3.444 -0.1848 -0.0772  0.2927
   62MOL   O15723459   0.749   6.150   3.481 -0.0261 -0.2634 -0.0694
   62MOL   N15823460   0.726   6.375   3.499 -0.1673  0.1382  0.6612
   62MOL   C15923461   0.642   6.381   3.619  0.4031 -0.4673  0.0162
   62MOL   C16023462   0.490   6.358   3.586 -0.1659 -0.4225  0.4907
   62MOL   C16123463   0.652   6.510   3.693 -0.0101  0.2523 -1.2275
   62MOL   H16223464   0.986   6.111   3.340 -1.0472  0.1742 -1.8258
   62MOL   H16323465   1.046   6.232   3.232 -0.6838  0.2829 -0.5506
   62MOL   H16423466   0.871   6.396   3.311  2.0396  0.6138 -0.7188
   62MOL   H16523467   0.764   6.464   3.470  0.7228 -0.7295 -0.9138
   62MOL   H16623468   0.672   6.304   3.690 -2.2580  0.9258  2.7831
   62MOL   H16723469   0.446   6.319   3.678 -1.7113  0.5814  0.1996
   62MOL   H16823470   0.436   6.445   3.549  0.4899  0.2241  1.0310
   62MOL   H16923471   0.480   6.281   3.510 -1.9257 -0.1906  0.4741
   62MOL   H17023472   0.589   6.589   3.652  0.1931  0.9091 -0.2846
   62MOL   H17123473   0.757   6.539   3.697  0.2349 -0.8573  0.5991
   62MOL   H17223474   0.626   6.497   3.798  1.8275  0.9700 -0.6560
   62MOL   C17323475   0.782   6.228   3.197 -0.9225 -0.3357  0.0091
   62MOL   C17423476   0.640   6.278   3.181  0.1806  0.4959  0.9980
   62MOL   C17523477   0.638   6.434   3.157  0.0827  0.0944 -1.1579
   62MOL   O17623478   0.688   6.482   3.055  0.0082 -0.2598 -0.2716
   62MOL   N17723479   0.597   6.520   3.253  0.2762 -0.4953  0.2438
   62MOL   C17823480   0.596   6.667   3.245  0.1852 -0.3180  0.7960
   62MOL   C17923481   0.595   6.728   3.382  0.2489  0.4158  0.0062
   62MOL   C18023482   0.488   6.718   3.163  0.0719  0.0403  0.1586
   62MOL   H18123483   0.785   6.119   3.196 -2.0751 -0.3724 -0.3880
   62MOL   H18223484   0.844   6.251   3.110  1.5742 -1.3694  1.4443
   62MOL   H18323485   0.578   6.261   3.269 -0.3513  0.7440  0.6683
   62MOL   H18423486   0.549   6.475   3.331 -0.9528 -0.8648 -0.7066
   62MOL   H18523487   0.687   6.696   3.193  0.7408  0.6409  2.2650
   62MOL   H18623488   0.603   6.837   3.390  0.1731  0.2754  2.7303
   62MOL   H18723489   0.670   6.686   3.450 -1.3994 -0.2845  1.4275
   62MOL   H18823490   0.503   6.702   3.434  0.8458 -1.4636  0.1663
   62MOL   H18923491   0.388   6.706   3.206  0.1331  0.8349  0.5438
   62MOL   H19023492   0.468   6.655   3.076  2.0976 -1.6733  0.9074
   62MOL   H19123493   0.521   6.817   3.131 -0.2759  0.6600  1.6616
   62MOL   C19223494   0.582   6.200   3.058  1.0106 -0.2474  0.3902
   62MOL   C19323495   0.453   6.260   2.987  0.3189 -0.0154 -0.1194
   62MOL   C19423496   0.343   6.284   3.088  0.7049  0.1120  0.2538
   62MOL   O19523497   0.301   6.191   3.152 -0.2630  0.8566 -0.3214
   62MOL   N19623498   0.291   6.403   3.085 -0.2085  0.3095  0.2760
   62MOL   C19723499   0.181   6.437   3.175  0.1614 -0.1233 -0.7014
   62MOL   C19823500   0.230   6.466   3.312 -0.3707 -0.2612 -0.2351
   62MOL   C19923501   0.094   6.549   3.121  0.0091 -0.2848 -0.2873
   62MOL   H20023502   0.553   6.097   3.081 -2.1324  0.4291 -0.2620
   62MOL   H20123503   0.656   6.207   2.979  0.8087 -1.0544  0.1288
   62MOL   H20223504   0.487   6.360   2.959  3.7588 -0.7228  1.2471
   62MOL   H20323505   0.331   6.479   3.033 -1.2140  1.4107  1.0747
   62MOL   H20423506   0.114   6.352   3.177  0.9878 -0.7722  3.1571
   62MOL   H20523507   0.286   6.377   3.340  0.5179  0.2534 -0.3782
   62MOL   H20623508   0.146   6.479   3.380  0.6584 -0.8426  1.1784
   62MOL   H20723509   0.295   6.553   3.312  1.7131 -1.7722  0.9488
   62MOL   H20823510   0.042   6.610   3.195  0.9388  1.2341 -0.8720
   62MOL   H20923511   0.022   6.508   3.049 -1.3927  1.0462  0.3287
   62MOL   H21023512   0.159   6.618   3.068 -0.4937 -0.1548 -0.7435
   62MOL   C21123513   0.403   6.180   2.862 -0.2815  0.4193  0.5459
   62MOL   C21223514   0.318   6.268   2.766 -0.6752 -0.1410  0.6728
   62MOL   C21323515   0.399   6.385   2.706 -0.4255  0.5728  0.1658
   62MOL   O21423516   0.338   6.472   2.643  0.0751 -0.1472  0.4919
   62MOL   N21523517   0.533   6.378   2.703 -0.5578  0.0411 -0.4512
   62MOL   C21623518   0.636   6.459   2.638  0.1419  0.0015 -1.2513
   62MOL   C21723519   0.757   6.369   2.625 -0.2330  0.1505 -0.5119
   62MOL   C21823520   0.671   6.596   2.698  0.3661  0.8067  0.7636
   62MOL   H21923521   0.342   6.101   2.906 -0.9085  1.3736  1.4195
   62MOL   H22023522   0.490   6.145   2.806 -1.4613 -2.4272  0.4124
   62MOL   H22123523   0.230   6.303   2.819 -0.9272 -0.4624  0.4695
   62MOL   H22223524   0.571   6.292   2.741 -2.3778 -0.3192  0.6134
   62MOL   H22323525   0.612   6.464   2.532 -2.6077 -0.6666 -0.7155
   62MOL   H22423526   0.793   6.337   2.723 -0.4942 -1.6514 -0.9960
   62MOL   H22523527   0.731   6.280   2.568 -1.5019  0.3982 -0.3309
   62MOL   H22623528   0.838   6.421   2.573  0.1726  0.6086  0.5660
   62MOL   H22723529   0.688   6.597   2.806 -0.1058 -0.6701  0.8672
   62MOL   H22823530   0.586   6.658   2.670 -0.6614 -0.7791  0.2940
   62MOL   H22923531   0.754   6.644   2.647  0.4814  0.6170  0.7718
   62MOL   C23023532   0.267   6.184   2.643 -0.2396  0.3071  0.3624
   62MOL   C23123533   0.159   6.072   2.676 -0.0360  0.5827  0.3585
   62MOL   C23223534   0.028   6.121   2.731 -0.5929 -0.1468  0.5762
   62MOL   O23323535   7.798   6.045   2.807  0.2918  0.5729 -0.0968
   62MOL   N23423536   7.811   6.237   2.688 -0.0940  0.6877  0.1061
   62MOL   C23523537   7.681   6.295   2.729  0.1346  0.4442  0.3044
   62MOL   C23623538   7.711   6.341   2.873 -0.5692  0.4006 -0.1013
   62MOL   C23723539   7.638   6.415   2.644 -0.2489  0.1886  0.4665
   62MOL   H23823540   0.361   6.151   2.598  0.0781 -0.0078  1.2438
   62MOL   H23923541   0.219   6.251   2.573  2.0250  3.2406  1.5072
   62MOL   H24023542   0.203   6.011   2.755  1.4877  0.4135 -0.5962
   62MOL   H24123543   0.026   6.289   2.618 -1.6790  0.1911 -1.4810
   62MOL   H24223544   7.602   6.220   2.731  0.3279  0.2373  0.2190
   62MOL   H24323545   7.697   6.252   2.934  1.1986 -1.0724 -1.7985
   62MOL   H24423546   7.815   6.370   2.887  0.3785 -2.4326 -0.9850
   62MOL   H24523547   7.648   6.422   2.910 -1.6631  0.0255 -1.1152
   62MOL   H24623548   7.620   6.390   2.540 -0.3941 -1.5216  0.8998
   62MOL   H24723549   7.709   6.498   2.643 -1.9318  1.6662 -1.4589
   62MOL   H24823550   7.545   6.454   2.685  0.6978  0.5440  2.3787
   62MOL   C24923551   0.143   5.976   2.552 -0.6058  1.3948  0.6182
   62MOL   C25023552   0.071   5.846   2.565 -0.1455  0.2201  0.4703
   62MOL   C25123553   0.133   5.761   2.676 -0.1278  0.4661  0.6656
   62MOL   O25223554   0.228   5.687   2.654 -0.2310 -0.5942 -0.2767
   62MOL   N25323555   0.076   5.769   2.798  0.0424 -0.2028 -0.0713
   62MOL   C25423556   0.127   5.706   2.918 -0.5117  0.2669 -0.0194
   62MOL   C25523557   0.249   5.780   2.974 -0.1858  0.2444  0.1123
   62MOL   C25623558   0.024   5.711   3.027 -0.1246  0.4098 -0.4735
   62MOL   H25723559   0.248   5.952   2.534 -1.2338 -0.2492 -0.9564
   62MOL   H25823560   0.107   6.033   2.467 -2.0181 -1.7616 -0.9886
   62MOL   H25923561   7.806   5.868   2.596 -0.4965  0.5550 -0.9230
   62MOL   H26023562   7.822   5.813   2.807  1.0475  1.7868  0.7035
   62MOL   H26123563   0.157   5.604   2.893 -0.2242  0.3169  0.1197
   62MOL   H26223564   0.236   5.887   2.991 -0.0515  0.3423 -0.4023
   62MOL   H26323565   0.274   5.738   3.071 -2.4478 -0.4400  0.4332
   62MOL   H26423566   0.339   5.768   2.914  0.0461 -1.4408  0.7493
   62MOL   H26523567   0.014   5.811   3.069 -0.0055  0.4262 -0.4842
   62MOL   H26623568   7.765   5.670   2.995  0.7024 -1.0865 -1.0806
   62MOL   H26723569   0.067   5.650   3.106 -1.5872 -0.6212 -0.4578
   62MOL   C26823570   0.059   5.766   2.432 -0.0854 -0.2577 -0.1439
   62MOL   C26923571   7.816   5.637   2.437 -0.0267  0.0758 -0.2759
   62MOL   C27023572   7.675   5.655   2.490  0.3603  0.7130 -0.5151
   62MOL   O27123573   7.585   5.712   2.426 -0.1381  0.0349 -0.0684
   62MOL   N27223574   7.654   5.598   2.611  0.0689 -0.6809 -0.1598
   62MOL   C27323575   7.529   5.553   2.666 -0.0468 -0.3149  0.8135
   62MOL   C27423576   7.568   5.458   2.765  0.0831  0.7915 -0.2280
   62MOL   C27523577   7.447   5.670   2.709 -0.0313  0.5667 -0.1944
   62MOL   H27623578   0.009   5.838   2.367  1.9308 -0.1284 -1.6233
   62MOL   H27723579   0.155   5.747   2.384  0.1481 -0.3176  0.3468
   62MOL   H27823580   0.042   5.569   2.496  0.9826 -0.9877 -2.5221
   62MOL   H27923581   7.739   5.570   2.658  0.2723  0.4887  0.1996
   62MOL   H28023582   7.479   5.497   2.587 -0.6044  1.8189 -0.3900
   62MOL   H28123583   7.612   5.505   2.853  0.8854 -1.7555  0.7809
   62MOL   H28223584   7.477   5.405   2.794  0.9350  0.7900  2.5607
   62MOL   H28323585   7.639   5.386   2.723 -1.9988 -0.8844 -0.9737
   62MOL   H28423586   7.505   5.724   2.784 -0.8078  2.5599 -0.9987
   62MOL   H28523587   7.428   5.743   2.630 -1.4681  0.6524  0.2214
   62MOL   H28623588   7.350   5.636   2.742 -0.3560 -1.0137 -2.6214
   62MOL   C28723589   7.803   5.591   2.288  0.3375  0.3663  0.0486
   62MOL   C28823590   7.740   5.455   2.264  0.2359 -0.4702  0.0498
   62MOL   C28923591   7.821   5.338   2.332  0.1037  0.4424 -0.5712
   62MOL   O29023592   0.100   5.318   2.298 -0.7520 -0.4880  0.0490
   62MOL   N29123593   7.756   5.258   2.422  0.5919  0.6808 -0.5961
   62MOL   C29223594   7.808   5.132   2.476 -0.3140 -0.2599 -0.0499
   62MOL   C29323595   7.736   5.088   2.603  0.3776  0.2912  0.6567
   62MOL   C29423596   7.785   5.020   2.366 -0.5269 -0.4620 -0.1248
   62MOL   H29523597   7.753   5.664   2.225  0.7448  1.6581  1.2046
   62MOL   H29623598   0.068   5.583   2.248  1.7156  1.5060  3.1338
   62MOL   H29723599   7.642   5.451   2.311 -1.0620  3.0790 -2.1551
   62MOL   H29823600   7.657   5.275   2.433  0.5772  1.1374 -1.4558
   62MOL   H29923601   0.079   5.137   2.494 -0.4371  0.6594  0.4503
   62MOL   H30023602   7.762   4.988   2.635 -0.7186 -0.9957 -2.2674
   62MOL   H30123603   7.761   5.148   2.691  0.7132  1.8639 -0.4795
   62MOL   H30223604   7.627   5.098   2.609  0.3301 -1.0761  2.4899
   62MOL   H30323605   0.024   5.021   2.287 -0.4212  0.3996 -0.0184
   62MOL   H30423606   7.801   4.922   2.410  1.9223 -0.5982 -1.2432
   62MOL   H30523607   7.685   5.020   2.322 -0.7261 -0.2021  0.3294
   62MOL   C30623608   7.723   5.424   2.108  0.0152  0.0315 -0.0492
   62MOL   C30723609   7.660   5.288   2.070  0.4393  0.1195  0.1461
   62MOL   C30823610   7.735   5.217   1.947 -0.5235 -0.8473 -0.3804
   62MOL   O30923611   7.681   5.187   1.841  0.3893 -0.1913 -0.0412
   62MOL   N31023612   0.030   5.181   1.965  0.1810 -0.1397 -0.1963
   62MOL   C31123613   0.108   5.084   1.883  0.0824 -0.4478  0.6386
   62MOL   C31223614   0.166   5.153   1.755 -0.4765 -0.6400 -0.4787
   62MOL   C31323615   0.226   5.019   1.964  0.0824  0.5083  0.0745
   62MOL   H31423616   7.670   5.507   2.062 -3.3458 -2.6122 -1.1036
   62MOL   H31523617   7.824   5.435   2.069  0.0433  1.7960  0.4831
   62MOL   H31623618   7.664   5.207   2.143 -0.6660 -1.3365 -1.3806
   62MOL   H31723619   0.067   5.225   2.048  1.6898  0.6141 -1.2553
   62MOL   H31823620   0.039   5.003   1.863 -0.8632  0.6228 -0.5429
   62MOL   H31923621   0.201   5.255   1.773 -4.5325  0.8314 -0.4063
   62MOL   H32023622   0.084   5.164   1.685 -0.4826 -1.7792 -0.6580
   62MOL   H32123623   0.248   5.102   1.704 -0.2863  1.8463 -2.7616
   62MOL   H32223624   0.220   4.911   1.947 -0.9276  0.5666  0.0317
   62MOL   H32323625   0.228   5.019   2.072  0.3039 -2.0051  0.0988
   62MOL   H32423626   0.315   5.061   1.917 -0.2697  1.6371  0.4018
   62MOL   C32523627   7.512   5.312   2.049 -0.5159  0.0700 -0.4345
   62MOL   C32623628   7.429   5.186   2.054 -0.1156  0.1005  0.4687
   62MOL   C32723629   7.411   5.127   2.190 -0.2810 -0.6227 -0.0129
   62MOL   O32823630   7.420   5.203   2.288  0.3933  0.8206 -0.5437
   62MOL   N32923631   7.396   4.992   2.190 -0.1437 -0.3065  0.6038
   62MOL   C33023632   7.355   4.908   2.297  0.2246 -0.2946  0.2086
   62MOL   C33123633   7.438   4.782   2.311 -0.2446 -0.0500  0.1263
   62MOL   C33223634   7.204   4.878   2.285 -0.4013  0.0748 -0.1576
   62MOL   H33323635   7.499   5.365   1.954  1.4181 -1.1538 -1.4070
   62MOL   H33423636   7.475   5.378   2.127  0.7225  0.3307 -0.0695
   62MOL   H33523637   7.485   5.111   1.998  0.4515  0.2496  0.8229
   62MOL   H33623638   7.419   4.947   2.102 -0.2290 -1.3726  1.1258
   62MOL   H33723639   7.365   4.963   2.391 -1.1647 -1.7712  1.2332
   62MOL   H33823640   7.417   4.714   2.229 -3.0184 -0.4968  1.1189
   62MOL   H33923641   7.546   4.793   2.320 -0.1068 -0.8937 -0.4676
   62MOL   H34023642   7.421   4.724   2.402  2.3012 -0.1469  0.5742
   62MOL   H34123643   7.187   4.817   2.196  0.3223 -1.4059  0.6953
   62MOL   H34223644   7.143   4.967   2.276 -0.8474 -0.0429  1.5021
   62MOL   H34323645   7.178   4.829   2.379  0.0152  0.8251  0.3578
   62MOL   C34423646   7.288   5.207   1.986 -0.1526  0.2655 -0.1238
   62MOL   C34523647   7.296   5.210   1.824 -0.3253 -0.1801 -0.2973
   62MOL   C34623648   7.328   5.066   1.783  0.0386  0.8878 -0.2240
   62MOL   O34723649   7.237   4.985   1.767  0.0805 -0.2885  0.2562
   62MOL   N34823650   7.454   5.031   1.768 -0.5286 -0.6373  0.5341
   62MOL   C34923651   7.501   4.888   1.763  0.6062  0.2896  0.2768
   62MOL   C35023652   7.603   4.848   1.650 -0.8443 -0.1764  0.6938
   62MOL   C35123653   7.569   4.853   1.898  0.1152  0.1055 -0.7311
   62MOL   H35223654   7.248   5.302   2.021 -0.6322 -0.5196  1.5176
   62MOL   H35323655   7.210   5.135   2.011  0.4011 -0.4495 -0.4390
   62MOL   H35423656   7.380   5.272   1.793 -1.1428  0.1451 -1.9635
   62MOL   H35523657   7.523   5.104   1.781 -0.8496 -0.3409  0.6084
   62MOL   H35623658   7.414   4.824   1.745  1.6888 -0.7498 -1.5239
   62MOL   H35723659   7.554   4.865   1.554  0.4926 -0.5185 -0.0652
   62MOL   H35823660   7.696   4.903   1.661 -1.6811  1.3558  0.2638
   62MOL   H35923661   7.617   4.740   1.660  1.8581  0.2658  2.1096
   62MOL   H36023662   7.606   4.751   1.905 -0.4980 -0.0569  0.1981
   62MOL   H36123663   7.645   4.929   1.918 -0.4742  1.0828 -2.1011
   62MOL   H36223664   7.489   4.858   1.971 -1.5986 -1.5374 -2.4532
   62MOL   C36323665   7.160   5.262   1.772  0.2106  0.4660  0.0418
   62MOL   C36423666   7.154   5.283   1.612  0.1325 -0.7728  0.3463
   62MOL   C36523667   7.037   5.368   1.564  0.2128 -0.1115 -0.4175
   62MOL   O36623668   6.988   5.447   1.639 -0.5595 -0.3868 -0.0687
   62MOL   N36723669   6.996   5.345   1.434  0.4846 -0.5643 -0.0031
   62MOL   C36823670   6.881   5.387   1.363 -0.0438 -0.0616  0.1977
   62MOL   C36923671   6.890   5.540   1.345 -0.2655 -0.0336  0.1497
   62MOL   C37023672   6.877   5.311   1.227  0.2740  0.0552  0.5214
   62MOL   H37123673   7.136   5.357   1.819  0.8498  0.3070  0.6890
   62MOL   H37223674   7.085   5.187   1.801 -0.0367  0.9212  0.5819
   62MOL   H37323675   7.159   5.181   1.574 -1.4625 -2.1347  3.6386
   62MOL   H37423676   7.055   5.280   1.384 -0.7610 -0.7432 -1.2728
   62MOL   H37523677   6.797   5.362   1.427  0.5799 -0.8252  0.7274
   62MOL   H37623678   6.981   5.565   1.291 -0.1771 -1.3932 -0.3587
   62MOL   H37723679   6.800   5.580   1.298  0.0954  0.3935 -0.1866
   62MOL   H37823680   6.886   5.596   1.438 -2.3742  0.7479 -0.3804
   62MOL   H37923681   6.964   5.319   1.162 -0.6776 -0.1724 -0.7912
   62MOL   H38023682   6.871   5.203   1.237 -1.7617 -0.0989 -1.8768
   62MOL   H38123683   6.793   5.346   1.167  0.1888  0.1443  0.6916
   62MOL   H38223684   7.235   5.344   1.571 -1.3371  0.8578 -0.1862
   63MOL     C123685   0.758   6.024   4.304  1.1495 -0.4440 -0.2015
   63MOL     C223686   0.728   5.902   4.394  0.0148 -0.8395  0.0636
   63MOL     C323687   0.825   5.885   4.513 -0.0076  0.4240  0.4402
   63MOL     O423688   0.894   5.977   4.552  0.4518 -0.2109 -0.0594
   63MOL     N523689   0.816   5.768   4.577  0.3319  0.4484  0.3091
   63MOL     C623690   0.933   5.715   4.648  0.1206  0.2816 -0.2771
   63MOL     C723691   0.902   5.620   4.769 -0.0540  0.0269  0.0020
   63MOL     C823692   1.025   5.649   4.547 -0.4916 -0.3411 -0.3128
   63MOL     H923693   0.707   6.034   4.209  0.3604  4.2097  0.6188
   63MOL    H1023694   0.865   6.029   4.284  0.6229 -1.7199 -3.7303
   63MOL    H1123695   0.743   5.816   4.329 -1.1024 -0.9999  0.0061
   63MOL    H1223696   0.743   5.707   4.545  0.6427  0.3891 -0.2890
   63MOL    H1323697   0.997   5.792   4.692  0.6476 -0.6694  0.6621
   63MOL    H1423698   0.860   5.657   4.862 -0.2343 -0.4978  0.1301
   63MOL    H1523699   0.992   5.562   4.789  1.3131  1.4867 -1.6950
   63MOL    H1623700   0.831   5.542   4.741 -0.1825 -0.0359  0.4996
   63MOL    H1723701   1.112   5.604   4.595 -0.3414  0.0941 -0.1785
   63MOL    H1823702   0.976   5.563   4.502  0.8566 -1.9796  1.2851
   63MOL    H1923703   1.061   5.728   4.481  0.9599 -1.0364 -0.3814
   63MOL    H2023704   0.731   6.110   4.365  2.2022  2.4454 -3.6073
   63MOL    C2123705   0.578   5.899   4.442 -0.2427  0.2749  0.3179
   63MOL    C2223706   0.477   5.835   4.343  0.2619  0.1854 -0.0162
   63MOL    C2323707   0.447   5.921   4.218  0.5589 -0.9105  0.2041
   63MOL    O2423708   0.396   6.032   4.229 -0.5052  0.3215  0.0319
   63MOL    N2523709   0.469   5.871   4.099 -0.1244 -0.0818  0.0006
   63MOL    C2623710   0.417   5.922   3.976  0.4620  0.7011 -0.5120
   63MOL    C2723711   0.313   5.832   3.916  0.1016 -0.0286  0.0156
   63MOL    C2823712   0.543   5.949   3.893 -0.0647  0.0212 -0.4366
   63MOL    H2923713   0.539   6.000   4.455  0.2816  0.2190  2.5886
   63MOL    H3023714   0.567   5.840   4.533 -1.2069 -1.2889 -0.7930
   63MOL    H3123715   0.520   5.738   4.321  0.1767 -0.3146  1.9368
   63MOL    H3223716   0.504   5.777   4.107  1.0328  0.4672  1.6779
   63MOL    H3323717   0.379   6.022   3.996  2.6255  1.4228  0.1061
   63MOL    H3423718   0.352   5.733   3.897  2.0828  0.3224  1.9726
   63MOL    H3523719   0.301   5.865   3.813 -1.7175  0.4517  0.3659
   63MOL    H3623720   0.216   5.824   3.966  0.5519 -1.7849  0.6257
   63MOL    H3723721   0.602   6.021   3.950  1.3085 -0.2602 -1.4823
   63MOL    H3823722   0.599   5.858   3.871  3.6497  1.9196  0.6557
   63MOL    H3923723   0.511   5.994   3.799 -2.1707 -0.8160 -0.1352
   63MOL    C4023724   0.353   5.781   4.419 -0.4024 -0.2349 -0.8663
   63MOL    C4123725   0.279   5.666   4.353  0.3030  0.6263 -0.0697
   63MOL    C4223726   0.144   5.641   4.421 -0.4502  0.6536  0.1363
   63MOL    O4323727   0.129   5.561   4.517 -0.2540  0.5476  0.4056
   63MOL    N4423728   0.041   5.709   4.380  0.3826  0.0819 -0.4180
   63MOL    C4523729   7.736   5.699   4.422 -0.4098 -0.0259  0.5081
   63MOL    C4623730   7.706   5.810   4.533 -0.3809 -0.0907  0.3855
   63MOL    C4723731   7.644   5.715   4.300  0.8653  0.3796  0.4025
   63MOL    H4823732   0.282   5.864   4.423  0.5645  0.5949 -0.7822
   63MOL    H4923733   0.364   5.766   4.526  1.7726 -0.5174 -1.1215
   63MOL    H5023734   0.265   5.684   4.247  0.4244  2.5491  0.2152
   63MOL    H5123735   0.061   5.772   4.304  0.2146  1.3600  0.5652
   63MOL    H5223736   7.718   5.597   4.454 -2.0488 -0.1857 -0.8402
   63MOL    H5323737   7.756   5.801   4.630  0.3733 -1.7611 -0.1275
   63MOL    H5423738   7.599   5.806   4.554 -0.8480 -0.1058 -1.8917
   63MOL    H5523739   7.727   5.910   4.497  2.9486 -0.4164  1.2731
   63MOL    H5623740   7.653   5.812   4.251 -1.6364 -0.2843 -1.4744
   63MOL    H5723741   7.540   5.714   4.330  1.7719  0.1464  3.7999
   63MOL    H5823742   7.654   5.643   4.218  0.7507  0.4588  0.3194
   63MOL    C5923743   0.355   5.526   4.331  0.0735  0.0536 -0.4399
   63MOL    C6023744   0.415   5.441   4.448  0.2643 -0.0526 -0.1209
   63MOL    C6123745   0.489   5.517   4.556 -0.2544  0.0155 -0.0661
   63MOL    O6223746   0.610   5.539   4.549 -0.2084  0.1756 -0.2650
   63MOL    N6323747   0.413   5.559   4.658  0.7810  0.1298 -0.1268
   63MOL    C6423748   0.449   5.639   4.769  0.1329  0.4938 -0.0450
   63MOL    C6523749   0.317   5.694   4.821  0.4256  0.2330  0.9544
   63MOL    C6623750   0.517   5.554   4.876 -0.8984 -0.3697 -0.2479
   63MOL    H6723751   0.282   5.458   4.288 -0.8029  1.5294 -1.3195
   63MOL    H6823752   0.425   5.547   4.251  2.7883 -1.1047  1.5488
   63MOL    H6923753   0.331   5.389   4.494  1.7152 -0.9842  1.5365
   63MOL    H7023754   0.316   5.531   4.648  1.1664 -1.1980 -0.2859
   63MOL    H7123755   0.501   5.731   4.742 -3.0055  1.7014 -2.3539
   63MOL    H7223756   0.267   5.620   4.883 -0.7188 -0.7050 -1.0299
   63MOL    H7323757   0.340   5.789   4.870  2.6364 -0.0167  0.4724
   63MOL    H7423758   0.254   5.717   4.735  1.6806 -0.0404 -0.0522
   63MOL    H7523759   0.558   5.608   4.961 -0.6187 -2.5131  1.0238
   63MOL    H7623760   0.452   5.476   4.915 -0.4487 -1.2310 -1.1737
   63MOL    H7723761   0.600   5.501   4.828 -0.2194  2.6579 -2.5734
   63MOL    C7823762   0.504   5.332   4.385 -0.7777  0.8852  0.9807
   63MOL    C7923763   0.560   5.223   4.475 -0.1240  0.3696 -0.4873
   63MOL    C8023764   0.449   5.141   4.539 -0.2444  0.3606  0.4265
   63MOL    O8123765   0.422   5.030   4.493  0.3114 -0.0985 -0.4643
   63MOL    N8223766   0.406   5.180   4.660  0.8464 -0.4714 -0.4710
   63MOL    C8323767   0.297   5.118   4.737  0.2340  0.1650  0.1311
   63MOL    C8423768   0.330   4.999   4.824 -0.1881 -0.1318  1.0766
   63MOL    C8523769   0.232   5.227   4.813  0.5127 -0.8390  0.4544
   63MOL    H8623770   0.586   5.375   4.328  1.7305 -1.6922  2.5063
   63MOL    H8723771   0.446   5.279   4.310 -0.9566  1.3635  0.7819
   63MOL    H8823772   0.620   5.282   4.545  0.0038 -0.0158 -0.2712
   63MOL    H8923773   0.424   5.277   4.683  0.6874 -0.8889  1.4778
   63MOL    H9023774   0.222   5.077   4.668  0.2177  1.8462 -0.8787
   63MOL    H9123775   0.382   5.020   4.917 -0.6061 -0.8366  1.4789
   63MOL    H9223776   0.239   4.955   4.866 -0.2431  0.5421  1.6789
   63MOL    H9323777   0.385   4.919   4.775 -1.4363 -0.9640  0.9924
   63MOL    H9423778   0.149   5.188   4.871 -0.6093  1.3610  0.3820
   63MOL    H9523779   0.202   5.301   4.740  2.2690 -0.5447 -0.0000
   63MOL    H9623780   0.307   5.261   4.885  1.3401  0.3206 -0.9264
   63MOL    C9723781   0.659   5.141   4.389 -0.3584  0.3016  0.0830
   63MOL    C9823782   0.731   5.017   4.447  0.1050 -0.0986  0.5207
   63MOL    C9923783   0.813   5.042   4.575 -0.4448 -0.0768 -0.1849
   63MOL   O10023784   0.933   5.077   4.580 -0.0136 -0.0450 -0.0242
   63MOL   N10123785   0.733   5.035   4.690  0.5415  0.9232 -0.1400
   63MOL   C10223786   0.772   5.091   4.823 -0.5351  0.4517  0.2779
   63MOL   C10323787   0.758   5.246   4.818  0.1340  0.2036  0.0490
   63MOL   C10423788   0.689   5.026   4.931  0.6826 -0.3455  0.4670
   63MOL   H10523789   0.728   5.216   4.349  0.1964  0.3314  1.0737
   63MOL   H10623790   0.604   5.109   4.301  0.1501  0.8146 -0.4240
   63MOL   H10723791   0.649   4.957   4.487 -1.1359  1.4124  0.2568
   63MOL   H10823792   0.639   4.999   4.680  1.7725 -3.5701  2.7059
   63MOL   H10923793   0.874   5.053   4.830 -0.8741 -0.4906  0.2475
   63MOL   H11023794   0.825   5.275   4.900  0.4542 -1.0252  0.2279
   63MOL   H11123795   0.794   5.288   4.724  0.0846  1.4852  0.5980
   63MOL   H11223796   0.655   5.275   4.835  0.3452  0.9236  0.1202
   63MOL   H11323797   0.704   5.076   5.027 -0.3465 -0.8779  0.9270
   63MOL   H11423798   0.702   4.918   4.940  0.0119 -0.3799  1.1360
   63MOL   H11523799   0.581   5.038   4.918  1.0466  0.3585 -2.0664
   63MOL   C11623800   0.812   4.937   4.343  0.3408  0.2410 -0.2168
   63MOL   C11723801   0.749   4.906   4.200  0.7474 -0.0441  0.2286
   63MOL   C11823802   0.610   4.843   4.205 -0.3804 -0.3889  0.5151
   63MOL   O11923803   0.591   4.743   4.273 -0.4748 -0.7065 -0.2490
   63MOL   N12023804   0.518   4.892   4.125  0.2035 -0.1911  0.4471
   63MOL   C12123805   0.378   4.861   4.130  0.8282  0.0836 -0.0361
   63MOL   C12223806   0.294   4.988   4.135  0.7368  0.2079  0.2844
   63MOL   C12323807   0.343   4.772   4.010  0.5961  0.1417  1.1344
   63MOL   H12423808   0.842   4.840   4.384 -1.8458 -0.0808  0.6615
   63MOL   H12523809   0.904   4.988   4.314  0.7188 -0.4855 -0.3350
   63MOL   H12623810   0.735   5.006   4.158  1.1236 -0.5598 -1.1378
   63MOL   H12723811   0.548   4.977   4.081 -1.2278 -0.7280 -1.6443
   63MOL   H12823812   0.346   4.821   4.226 -0.3684 -0.2271 -0.5548
   63MOL   H12923813   0.189   4.962   4.153  0.4607  2.0877  1.4838
   63MOL   H13023814   0.316   5.046   4.045  2.3173 -1.4855 -0.4629
   63MOL   H13123815   0.312   5.044   4.226 -3.2069  0.8344  0.7769
   63MOL   H13223816   0.235   4.775   3.995  0.5632 -0.8084  1.1493
   63MOL   H13323817   0.390   4.799   3.915 -0.6478 -0.8303  0.2056
   63MOL   H13423818   0.371   4.669   4.031 -2.6509 -0.6653  1.7766
   63MOL   C13523819   0.835   4.815   4.113 -0.6915 -0.0314 -0.0590
   63MOL   C13623820   0.823   4.803   3.957  1.0495  0.2780 -0.3463
   63MOL   C13723821   0.896   4.915   3.889  0.4066 -0.1885 -0.2365
   63MOL   O13823822   0.842   5.025   3.875 -0.5971  0.3629  0.4283
   63MOL   N13923823   1.009   4.888   3.831  0.4448 -0.2117  0.3729
   63MOL   C14023824   1.119   4.976   3.791 -0.0869  0.2831 -0.4942
   63MOL   C14123825   1.178   4.922   3.657  0.4629 -0.0973  0.4353
   63MOL   C14223826   1.228   4.971   3.908  0.4249  0.1282  0.9164
   63MOL   H14323827   0.837   4.718   4.163 -1.3846 -1.4044 -2.6087
   63MOL   H14423828   0.934   4.849   4.143 -1.3634  2.4537 -0.5802
   63MOL   H14523829   0.720   4.819   3.924  1.4262  0.1370 -1.6213
   63MOL   H14623830   1.034   4.791   3.818  3.4832  0.7764 -1.8030
   63MOL   H14723831   1.081   5.078   3.781 -0.9710  0.0569  0.5113
   63MOL   H14823832   1.093   4.909   3.590 -0.0020  2.1651  0.5366
   63MOL   H14923833   1.241   4.998   3.610  0.1634  0.9165  1.6425
   63MOL   H15023834   1.226   4.825   3.671  0.6247 -0.4545 -2.3339
   63MOL   H15123835   1.188   4.988   4.008 -0.8859  0.1501  0.4063
   63MOL   H15223836   1.310   5.040   3.889 -0.7848  1.2945 -0.2463
   63MOL   H15323837   1.281   4.877   3.920 -0.2552 -0.2456  1.0245
   63MOL   C15423838   0.852   4.661   3.903  0.2933  0.4572 -0.2655
   63MOL   C15523839   0.804   4.631   3.752  0.4460  0.2581 -0.1089
   63MOL   C15623840   0.658   4.669   3.730  0.0253 -0.8438  0.2700
   63MOL   O15723841   0.573   4.604   3.782 -0.0075  0.6969  0.3608
   63MOL   N15823842   0.631   4.783   3.665 -0.5207 -0.3715  0.7721
   63MOL   C15923843   0.501   4.839   3.640  0.1451  0.2204 -0.2640
   63MOL   C16023844   0.480   4.851   3.492 -0.5102 -0.0926  0.0981
   63MOL   C16123845   0.479   4.973   3.714  0.0240  0.1669 -0.6283
   63MOL   H16223846   0.811   4.591   3.976  0.1138 -0.9212 -1.6658
   63MOL   H16323847   0.960   4.648   3.911  0.2537  1.0908  1.6551
   63MOL   H16423848   0.859   4.695   3.683  0.4618 -1.2386 -1.5185
   63MOL   H16523849   0.704   4.841   3.628  0.8107 -2.0010  0.7926
   63MOL   H16623850   0.420   4.771   3.665 -0.7971  1.4788  0.1518
   63MOL   H16723851   0.523   4.769   3.433 -0.7414 -0.7791  0.8735
   63MOL   H16823852   0.372   4.841   3.478 -0.2374 -2.8553 -0.5330
   63MOL   H16923853   0.515   4.949   3.460  2.3642 -0.3486  2.2517
   63MOL   H17023854   0.515   4.970   3.817  0.1617 -3.8129 -0.7312
   63MOL   H17123855   0.372   4.989   3.722  0.1734  0.5877  0.5923
   63MOL   H17223856   0.516   5.063   3.665  0.5541 -0.4494 -1.3699
   63MOL   C17323857   0.836   4.482   3.709 -0.7014  0.2723 -0.0277
   63MOL   C17423858   0.907   4.460   3.573 -0.4401  0.0687  0.8928
   63MOL   C17523859   0.813   4.487   3.445  0.2440  0.2572 -0.6149
   63MOL   O17623860   0.790   4.603   3.406  0.0358  0.3531 -0.3299
   63MOL   N17723861   0.759   4.379   3.389 -0.2936 -0.1891 -0.2195
   63MOL   C17823862   0.655   4.370   3.293 -0.0134 -0.1647  0.5737
   63MOL   C17923863   0.610   4.223   3.266  0.1658  0.4276  0.0881
   63MOL   C18023864   0.689   4.444   3.165  0.1676  0.4697  0.1506
   63MOL   H18123865   0.742   4.428   3.706  1.7783 -4.3324 -0.8212
   63MOL   H18223866   0.909   4.432   3.774  0.7273  0.3401 -1.5334
   63MOL   H18323867   0.930   4.353   3.568 -1.0417 -0.1744  3.0660
   63MOL   H18423868   0.771   4.301   3.452  1.4976 -0.5009 -0.9148
   63MOL   H18523869   0.569   4.432   3.319  1.8504  2.3335  1.0410
   63MOL   H18623870   0.682   4.162   3.212  0.4945  1.3320 -0.5190
   63MOL   H18723871   0.518   4.206   3.211 -0.1458 -0.5376  0.9050
   63MOL   H18823872   0.592   4.175   3.362 -1.3619  0.5409 -0.1439
   63MOL   H18923873   0.772   4.402   3.108 -0.5228  0.4847 -0.8766
   63MOL   H19023874   0.727   4.545   3.181  1.3313  0.4928 -2.4454
   63MOL   H19123875   0.597   4.459   3.109  0.8708  0.3812 -1.0574
   63MOL   C19223876   1.052   4.524   3.548 -0.0391  0.3953 -0.3154
   63MOL   C19323877   1.123   4.505   3.412 -0.8158  0.0181  0.4416
   63MOL   C19423878   1.124   4.360   3.363 -0.3704  0.4098  0.5170
   63MOL   O19523879   1.172   4.271   3.440 -0.4647 -0.3959  0.3805
   63MOL   N19623880   1.077   4.333   3.240 -0.0159  0.7673 -0.5756
   63MOL   C19723881   1.070   4.203   3.189  0.6409  0.2854 -0.2151
   63MOL   C19823882   0.974   4.192   3.066  0.1209 -0.7509  0.7926
   63MOL   C19923883   1.209   4.152   3.149 -0.5398  0.1076 -0.5184
   63MOL   H20023884   1.138   4.495   3.608 -1.7720 -2.1185  1.0205
   63MOL   H20123885   1.045   4.631   3.569 -1.4315 -0.1385  2.1591
   63MOL   H20223886   1.061   4.553   3.336  0.9716 -2.1687 -2.5327
   63MOL   H20323887   1.053   4.410   3.180 -1.5949  2.0077  1.5946
   63MOL   H20423888   1.025   4.135   3.262 -0.1497  0.4772 -0.5132
   63MOL   H20523889   1.017   4.253   2.986  1.3087  1.0836  2.7631
   63MOL   H20623890   0.872   4.211   3.099  0.3410  2.4713 -0.2280
   63MOL   H20723891   0.980   4.093   3.022  0.4828 -0.9744  1.3358
   63MOL   H20823892   1.247   4.200   3.059 -0.5600 -0.0400 -0.6050
   63MOL   H20923893   1.204   4.046   3.124 -0.9870  0.3424 -1.4516
   63MOL   H21023894   1.287   4.164   3.224 -1.6887 -1.2675  0.9564
   63MOL   C21123895   1.266   4.564   3.426  0.4965 -1.0628 -0.5474
   63MOL   C21223896   1.309   4.647   3.308  0.9367  1.2865  0.1733
   63MOL   C21323897   1.319   4.568   3.175 -0.4272 -0.2323 -0.3868
   63MOL   O21423898   1.227   4.556   3.098  0.2932 -0.3502  0.2499
   63MOL   N21523899   1.439   4.508   3.162 -0.5849  0.4562  0.1966
   63MOL   C21623900   1.479   4.435   3.046  0.0960 -0.5095  0.2062
   63MOL   C21723901   1.541   4.306   3.099 -0.5055  0.5126 -0.1990
   63MOL   C21823902   1.578   4.516   2.963 -0.2781  0.1623  0.5461
   63MOL   H21923903   1.342   4.487   3.441 -0.2556 -1.5818  0.7317
   63MOL   H22023904   1.270   4.629   3.514  3.7217 -0.6779 -0.9291
   63MOL   H22123905   1.410   4.671   3.341  1.0500  1.0887 -0.0286
   63MOL   H22223906   1.511   4.535   3.228  0.7376  0.2277 -1.1217
   63MOL   H22323907   1.395   4.407   2.982 -0.1272  1.2229 -0.2791
   63MOL   H22423908   1.639   4.327   3.141  0.4171 -0.7767 -1.6459
   63MOL   H22523909   1.483   4.277   3.186  3.5028 -0.3054  2.3404
   63MOL   H22623910   1.543   4.228   3.023  3.5259  0.3256 -0.0288
   63MOL   H22723911   1.524   4.607   2.938  0.2530  0.3280  0.0204
   63MOL   H22823912   1.591   4.463   2.869  1.2443  1.8448 -0.2324
   63MOL   H22923913   1.674   4.540   3.010 -1.4158  2.7847  1.6406
   63MOL   C23023914   1.237   4.781   3.295 -0.1208  0.1637  0.0352
   63MOL   C23123915   1.327   4.892   3.239 -0.3369 -0.2563  0.1835
   63MOL   C23223916   1.248   5.011   3.179  0.3246 -0.3268  0.5266
   63MOL   O23323917   1.160   5.071   3.244  0.3003 -0.2283 -0.3749
   63MOL   N23423918   1.269   5.030   3.049 -0.3703  0.6151 -0.4092
   63MOL   C23523919   1.199   5.123   2.970 -0.5382 -0.6142 -0.8601
   63MOL   C23623920   1.293   5.228   2.917  0.4400  0.1458 -0.0385
   63MOL   C23723921   1.129   5.047   2.855  0.3616 -0.0144  0.5203
   63MOL   H23823922   1.201   4.806   3.395  2.2260 -0.5682  1.0768
   63MOL   H23923923   1.151   4.769   3.227 -1.7397 -3.4379  2.5434
   63MOL   H24023924   1.395   4.852   3.163  0.8887  2.2411 -0.0790
   63MOL   H24123925   1.345   4.973   3.015 -1.4910 -1.2932  0.1944
   63MOL   H24223926   1.109   5.168   3.012 -0.7382 -0.5871 -1.3142
   63MOL   H24323927   1.345   5.284   2.995 -2.1047  0.3340  1.5771
   63MOL   H24423928   1.353   5.191   2.833 -0.3275  0.8256 -0.8829
   63MOL   H24523929   1.228   5.303   2.874 -0.1973 -0.7814 -0.7063
   63MOL   H24623930   1.197   4.998   2.786  0.6385  2.0964 -0.7623
   63MOL   H24723931   1.060   5.111   2.800 -0.7157 -0.9606  0.7564
   63MOL   H24823932   1.062   4.970   2.892  2.4084 -1.3711  1.4457
   63MOL   C24923933   1.414   4.960   3.346  0.2498 -0.2584  0.0086
   63MOL   C25023934   1.535   5.052   3.301  0.0552  0.1918 -0.0766
   63MOL   C25123935   1.603   5.007   3.172 -0.6019  0.0111  0.1366
   63MOL   O25223936   1.664   4.907   3.169 -0.0310  0.3995  0.0634
   63MOL   N25323937   1.592   5.094   3.067  0.2258  0.0376 -0.4742
   63MOL   C25423938   1.644   5.067   2.929 -0.0490 -0.6318  0.4249
   63MOL   C25523939   1.795   5.068   2.923  0.3172 -0.4189 -0.0544
   63MOL   C25623940   1.574   4.940   2.874  0.3484  0.5472 -0.2148
   63MOL   H25723941   1.449   4.885   3.416 -0.8011 -0.2496  0.5656
   63MOL   H25823942   1.354   5.024   3.411 -2.4147 -1.0345 -1.6185
   63MOL   H25923943   1.498   5.153   3.285 -0.7952 -0.2175 -0.7321
   63MOL   H26023944   1.538   5.180   3.073  1.4271  0.7671  0.1893
   63MOL   H26123945   1.610   5.150   2.866 -2.7201 -1.2332  0.9972
   63MOL   H26223946   1.825   5.165   2.964 -1.9939  0.1688  0.2878
   63MOL   H26323947   1.844   4.990   2.980  1.7677  1.2614  1.0786
   63MOL   H26423948   1.831   5.068   2.820  0.7910 -1.7466  0.1137
   63MOL   H26523949   1.466   4.953   2.884 -0.2645 -2.3964 -2.5599
   63MOL   H26623950   1.592   4.919   2.769  0.3643 -1.4081  0.1707
   63MOL   H26723951   1.607   4.853   2.930  0.1503  1.5701  1.5251
   63MOL   C26823952   1.635   5.072   3.420 -0.1627 -0.4686 -0.2324
   63MOL   C26923953   1.770   5.147   3.397 -0.5578  0.0016 -0.2463
   63MOL   C27023954   1.735   5.299   3.357 -0.5052  0.1537 -0.1646
   63MOL   O27123955   1.649   5.364   3.417 -0.6979  0.2552  0.1085
   63MOL   N27223956   1.781   5.329   3.230  0.2137  0.0937  0.4375
   63MOL   C27323957   1.740   5.454   3.160 -0.3962 -0.8391  1.0830
   63MOL   C27423958   1.856   5.498   3.066 -0.0586  0.1328 -0.0500
   63MOL   C27523959   1.617   5.439   3.074 -0.6556 -0.1188 -0.3956
   63MOL   H27623960   1.578   5.129   3.494 -0.2569 -1.0447  0.1419
   63MOL   H27723961   1.644   4.979   3.476 -1.7628  0.0513  0.9078
   63MOL   H27823962   1.819   5.096   3.315 -0.8724  0.8359 -0.9610
   63MOL   H27923963   1.839   5.268   3.174  0.5838  0.4546  0.4198
   63MOL   H28023964   1.717   5.527   3.238 -1.0026  1.2170 -0.9627
   63MOL   H28123965   1.956   5.495   3.111 -0.5381  1.6725  1.1490
   63MOL   H28223966   1.864   5.428   2.983 -0.0746 -1.1386  0.9847
   63MOL   H28323967   1.843   5.600   3.031  0.6106  1.3517  3.0311
   63MOL   H28423968   1.660   5.393   2.985  2.3106 -2.2502  2.0181
   63MOL   H28523969   1.535   5.377   3.111 -1.6232  0.1674 -2.0376
   63MOL   H28623970   1.572   5.537   3.059 -0.5923  0.1606  1.1928
   63MOL   C28723971   1.858   5.146   3.524  0.0763 -0.1626 -0.3624
   63MOL   C28823972   1.997   5.228   3.515  0.8324 -0.0260 -0.0931
   63MOL   C28923973   2.093   5.163   3.411  0.0785  0.3729  0.2675
   63MOL   O29023974   2.097   5.042   3.401  0.1204 -0.1243  0.7396
   63MOL   N29123975   2.163   5.251   3.337  0.0752 -0.1765  0.4700
   63MOL   C29223976   2.256   5.214   3.233 -0.5862  0.8712  0.0900
   63MOL   C29323977   2.235   5.321   3.125 -0.2910 -0.6378 -0.4067
   63MOL   C29423978   2.400   5.202   3.294  0.9904 -0.0148  0.2609
   63MOL   H29523979   1.801   5.200   3.600 -0.8793  2.6606 -2.9647
   63MOL   H29623980   1.875   5.045   3.561  0.1523 -0.0921 -0.2054
   63MOL   H29723981   1.967   5.330   3.491  1.3927 -0.0309 -0.8382
   63MOL   H29823982   2.161   5.348   3.365  0.1483 -0.4684  1.5219
   63MOL   H29923983   2.241   5.118   3.182  1.2642  0.8870 -0.5324
   63MOL   H30023984   2.130   5.331   3.100 -0.1387  0.5155 -0.6278
   63MOL   H30123985   2.265   5.422   3.154  3.7757 -1.3482 -1.7559
   63MOL   H30223986   2.301   5.281   3.048 -0.1772  0.7983 -1.0802
   63MOL   H30323987   2.421   5.296   3.344 -0.2129  0.1735  0.4297
   63MOL   H30423988   2.392   5.120   3.365  2.7209  1.0346  1.6952
   63MOL   H30523989   2.473   5.176   3.217  1.4866  0.8143  0.4422
   63MOL   C30623990   2.061   5.229   3.658  0.2234 -0.5208 -0.3313
   63MOL   C30723991   2.096   5.371   3.714  0.3074  0.7179  0.6379
   63MOL   C30823992   1.966   5.453   3.726  0.2620  0.0773  0.1125
   63MOL   O30923993   1.942   5.552   3.661  0.5094 -0.0606  0.4014
   63MOL   N31023994   1.873   5.405   3.810 -0.1154 -0.2872  0.0656
   63MOL   C31123995   1.745   5.466   3.827  1.0407 -0.2600  0.2686
   63MOL   C31223996   1.635   5.363   3.784 -0.3958  0.3270  0.2151
   63MOL   C31323997   1.744   5.517   3.970 -0.0596 -0.1591  0.2608
   63MOL   H31423998   2.003   5.183   3.738  0.6207  0.3659  0.4685
   63MOL   H31523999   2.147   5.163   3.653  0.4227 -0.2190 -0.9900
   63MOL   H31624000   2.132   5.354   3.816 -0.4846 -0.7374  0.6897
   63MOL   H31724001   1.893   5.324   3.867 -3.0548  0.4423  2.2616
   63MOL   H31824002   1.736   5.553   3.763 -1.4695  0.8758  2.0840
   63MOL   H31924003   1.636   5.344   3.677  0.6941 -2.3887  0.6771
   63MOL   H32024004   1.535   5.403   3.805 -0.2977 -0.8255  3.1351
   63MOL   H32124005   1.635   5.268   3.838 -1.1388 -1.4427 -2.8144
   63MOL   H32224006   1.794   5.614   3.971  0.0205 -0.2032  0.4340
   63MOL   H32324007   1.801   5.446   4.028 -1.7443 -1.6581  0.1310
   63MOL   H32424008   1.646   5.550   4.005  0.7256  1.1152  1.3116
   63MOL   C32524009   2.219   5.446   3.638 -0.5927  1.1580  0.0590
   63MOL   C32624010   2.277   5.578   3.693  0.1511  0.2526  0.5043
   63MOL   C32724011   2.301   5.568   3.842 -0.0700 -0.1138  0.4702
   63MOL   O32824012   2.394   5.511   3.893 -0.8486  0.5514  0.1448
   63MOL   N32924013   2.209   5.639   3.920 -0.1207  0.2347 -0.3516
   63MOL   C33024014   2.214   5.638   4.066  0.5749  0.4478 -0.4449
   63MOL   C33124015   2.071   5.613   4.123 -0.0396 -0.7030 -0.6796
   63MOL   C33224016   2.287   5.766   4.132  0.3687  0.0804  0.3907
   63MOL   H33324017   2.210   5.450   3.530  2.1465 -0.1550 -0.2761
   63MOL   H33424018   2.303   5.376   3.635  0.1059  1.9665  0.4557
   63MOL   H33524019   2.206   5.659   3.678  0.3042  0.2061 -0.5180
   63MOL   H33624020   2.122   5.674   3.882 -0.8137 -0.9825  0.0786
   63MOL   H33724021   2.268   5.549   4.098 -1.7022 -0.1277  1.9156
   63MOL   H33824022   2.036   5.522   4.073  1.7437 -1.1992 -1.0618
   63MOL   H33924023   2.082   5.587   4.228  1.6302  1.4276 -0.3011
   63MOL   H34024024   2.012   5.701   4.097 -1.1728 -1.0967  0.4877
   63MOL   H34124025   2.210   5.842   4.141 -0.9665 -1.1212 -0.7553
   63MOL   H34224026   2.358   5.804   4.058 -3.1729  0.2032 -3.0921
   63MOL   H34324027   2.340   5.751   4.226  0.5969  2.3409  0.6521
   63MOL   C34424028   2.408   5.624   3.624 -0.3473 -0.1198  0.0544
   63MOL   C34524029   2.442   5.771   3.635  0.1916  0.3346  0.1112
   63MOL   C34624030   2.585   5.790   3.587  0.6107  0.5927 -1.0855
   63MOL   O34724031   2.618   5.828   3.476 -0.0269  0.5839  0.5424
   63MOL   N34824032   2.670   5.763   3.683  0.1867  0.4058  0.1233
   63MOL   C34924033   2.813   5.805   3.674 -0.5574  0.3913  0.1935
   63MOL   C35024034   2.829   5.943   3.736  0.5393  0.2398  0.4000
   63MOL   C35124035   2.906   5.703   3.747  0.1919 -0.7598  1.0233
   63MOL   H35224036   2.413   5.588   3.521 -0.3370 -0.3138  0.1224
   63MOL   H35324037   2.488   5.564   3.667 -0.0140  1.4536  1.6743
   63MOL   H35424038   2.435   5.791   3.742 -2.9366 -1.8563  0.3848
   63MOL   H35524039   2.632   5.710   3.761  1.2790 -2.0036 -0.9383
   63MOL   H35624040   2.847   5.818   3.571  0.0270 -0.5032  0.2658
   63MOL   H35724041   2.776   5.954   3.830 -0.5082 -0.7954 -0.0702
   63MOL   H35824042   2.930   5.985   3.741 -0.4094  3.2175 -3.1863
   63MOL   H35924043   2.771   6.017   3.681  0.0041 -1.2913 -1.1145
   63MOL   H36024044   2.902   5.724   3.853  1.4954 -0.6804  1.0601
   63MOL   H36124045   2.875   5.599   3.735 -0.3805 -0.3160 -1.7028
   63MOL   H36224046   3.002   5.716   3.697 -0.6040  1.3359 -0.0294
   63MOL   C36324047   2.336   5.852   3.558 -0.7987  0.0457 -0.3842
   63MOL   C36424048   2.357   5.999   3.530  0.4787  0.0999  0.1658
   63MOL   C36524049   2.364   6.082   3.659 -0.7794  0.2617 -0.0123
   63MOL   O36624050   2.290   6.062   3.750 -0.0662 -0.1370 -0.3613
   63MOL   N36724051   2.459   6.171   3.662  0.0667  0.6721  0.3282
   63MOL   C36824052   2.462   6.278   3.757  0.0283 -0.1751  0.1651
   63MOL   C36924053   2.544   6.239   3.877 -0.2467 -0.0012  0.5655
   63MOL   C37024054   2.498   6.411   3.684 -0.0826 -0.2217 -0.6960
   63MOL   H37124055   2.234   5.843   3.595 -1.1556  1.8623 -0.8888
   63MOL   H37224056   2.332   5.808   3.459  1.4683 -0.4315 -0.2921
   63MOL   H37324057   2.277   6.046   3.472  0.2360 -0.5949 -0.0679
   63MOL   H37424058   2.527   6.177   3.588 -0.7539 -1.7520 -0.6750
   63MOL   H37524059   2.367   6.294   3.808  0.3788  0.9744  0.4697
   63MOL   H37624060   2.520   6.303   3.961 -1.4118 -2.2184  1.9880
   63MOL   H37724061   2.537   6.134   3.907 -3.9025  0.4339  1.5282
   63MOL   H37824062   2.647   6.260   3.847  0.1028 -3.3299 -0.8920
   63MOL   H37924063   2.480   6.497   3.748 -0.5346 -1.1445  0.4553
   63MOL   H38024064   2.598   6.423   3.645  0.8043 -0.9171  1.2894
   63MOL   H38124065   2.428   6.427   3.602 -0.6654  0.0170 -0.1615
   63MOL   H38224066   2.444   6.012   3.465 -1.0789  0.9687 -1.8266
   64MOL     C124067   1.169   4.169   3.845 -0.0798  1.2397 -0.4306
   64MOL     C224068   1.100   4.098   3.731  0.4233 -0.2597 -0.4734
   64MOL     C324069   1.200   3.999   3.671  0.8979 -0.4152  0.4951
   64MOL     O424070   1.238   3.898   3.732  0.1137 -0.3682  0.4589
   64MOL     N524071   1.226   4.023   3.542  0.2443  0.1064 -0.8760
   64MOL     C624072   1.294   3.923   3.461  0.5247  0.2868  0.0166
   64MOL     C724073   1.442   3.906   3.487  0.1497  0.7109 -0.4083
   64MOL     C824074   1.208   3.794   3.455 -0.5102 -1.4143  0.0681
   64MOL     H924075   1.114   4.258   3.875 -1.2558  0.2289  0.4554
   64MOL    H1024076   1.267   4.210   3.819  1.2208 -0.2126  2.0158
   64MOL    H1124077   1.079   4.175   3.657  2.6269  1.0798  0.2767
   64MOL    H1224078   1.202   4.108   3.493 -0.8486 -0.4715 -1.3654
   64MOL    H1324079   1.282   3.966   3.362  0.0021 -0.6856 -0.3528
   64MOL    H1424080   1.493   3.848   3.409  0.4624  0.4713 -0.0275
   64MOL    H1524081   1.449   3.853   3.582  0.1825  0.5666 -0.4916
   64MOL    H1624082   1.495   4.001   3.483  1.0479  0.1652 -2.7169
   64MOL    H1724083   1.106   3.830   3.442  0.1340 -0.2765 -2.0882
   64MOL    H1824084   1.239   3.725   3.376  0.4363 -1.6233  0.6167
   64MOL    H1924085   1.212   3.739   3.549  2.4610 -1.1539  0.1530
   64MOL    H2024086   1.179   4.103   3.931 -3.4762  2.9749  1.3977
   64MOL    C2124087   0.960   4.049   3.760  0.0491 -0.2169  0.7031
   64MOL    C2224088   0.892   3.939   3.675  0.4178 -0.1893  0.3486
   64MOL    C2324089   0.849   3.979   3.534  0.1897  0.4551  0.4643
   64MOL    O2424090   0.841   4.095   3.493 -0.4034 -0.2097  0.2281
   64MOL    N2524091   0.832   3.875   3.452  0.1521  0.2418 -0.4653
   64MOL    C2624092   0.796   3.875   3.310 -0.0426  0.0094 -0.6265
   64MOL    C2724093   0.663   3.800   3.312 -0.0742 -0.0470 -0.0166
   64MOL    C2824094   0.899   3.793   3.229 -0.1340 -0.7570  0.5877
   64MOL    H2924095   0.901   4.140   3.772 -0.5660 -0.2297 -1.8998
   64MOL    H3024096   0.969   4.004   3.859  1.0392 -1.1307  0.2112
   64MOL    H3124097   0.962   3.861   3.648  1.3904  0.3136  1.3885
   64MOL    H3224098   0.843   3.783   3.491  0.0515  1.4408  2.5623
   64MOL    H3324099   0.789   3.971   3.260  0.4376  0.3228 -0.0947
   64MOL    H3424100   0.676   3.704   3.362  2.1258  0.2980  0.1326
   64MOL    H3524101   0.611   3.792   3.217 -0.5510  1.8376  0.0613
   64MOL    H3624102   0.597   3.866   3.368  0.1644 -0.0752  0.3016
   64MOL    H3724103   0.998   3.838   3.241  0.5540 -1.7271 -1.1546
   64MOL    H3824104   0.908   3.691   3.266  0.3709 -1.1120 -0.4872
   64MOL    H3924105   0.876   3.788   3.123  1.1181 -0.1643  0.2742
   64MOL    C4024106   0.789   3.855   3.757 -0.5781  0.6308 -0.5476
   64MOL    C4124107   0.636   3.876   3.747 -0.9238 -0.4081  0.3575
   64MOL    C4224108   0.592   4.017   3.792 -0.0718  0.3912 -0.0909
   64MOL    O4324109   0.618   4.062   3.905 -0.0434  0.4451  0.3787
   64MOL    N4424110   0.510   4.079   3.711  0.2609  0.1322  0.4215
   64MOL    C4524111   0.441   4.204   3.731  0.4215 -0.2989  0.0193
   64MOL    C4624112   0.484   4.311   3.634 -0.3091  0.0138 -0.3559
   64MOL    C4724113   0.290   4.164   3.709  0.3513  0.7286  0.5230
   64MOL    H4824114   0.812   3.844   3.863 -3.6056 -2.7283 -0.1565
   64MOL    H4924115   0.795   3.755   3.712  0.4590 -0.4883  1.9908
   64MOL    H5024116   0.622   3.853   3.641 -5.4566 -1.8059  1.1618
   64MOL    H5124117   0.474   4.027   3.633  2.3424 -0.5439 -0.1200
   64MOL    H5224118   0.465   4.234   3.833  2.4712 -1.1674 -0.1816
   64MOL    H5324119   0.448   4.407   3.670  1.4295  0.5303  0.0512
   64MOL    H5424120   0.453   4.292   3.531 -0.2249 -0.7689 -0.2410
   64MOL    H5524121   0.592   4.329   3.631 -0.4594  0.7380 -2.4491
   64MOL    H5624122   0.270   4.136   3.606  2.0440 -0.4691  0.5075
   64MOL    H5724123   0.231   4.255   3.717 -1.8435 -0.6036 -0.1122
   64MOL    H5824124   0.246   4.093   3.779  1.6164  0.0463  0.6376
   64MOL    C5924125   0.559   3.751   3.805 -0.7096 -0.6272  0.0054
   64MOL    C6024126   0.406   3.753   3.784  0.6738 -0.5770  0.2490
   64MOL    C6124127   0.314   3.806   3.896  0.3678 -0.6145  0.6403
   64MOL    O6224128   0.194   3.792   3.897 -0.5195  0.0537  0.1042
   64MOL    N6324129   0.372   3.877   3.993  0.4366  0.0267 -0.2086
   64MOL    C6424130   0.302   3.961   4.091 -0.0573 -0.0858 -0.3638
   64MOL    C6524131   0.201   3.890   4.183  0.1459 -0.2632 -0.0151
   64MOL    C6624132   0.392   4.051   4.171 -0.0216 -0.2641  0.8251
   64MOL    H6724133   0.610   3.656   3.792  1.0787  0.0144  1.9782
   64MOL    H6824134   0.570   3.748   3.914 -1.7107  1.4188  0.1879
   64MOL    H6924135   0.389   3.815   3.696  0.4096  0.2034  0.8445
   64MOL    H7024136   0.472   3.883   4.008  0.2876  0.5404  0.6854
   64MOL    H7124137   0.243   4.028   4.027 -1.3696 -0.4045  0.4860
   64MOL    H7224138   0.157   3.961   4.252  1.2467 -1.0535  1.5344
   64MOL    H7324139   0.128   3.823   4.137 -0.2361 -0.5684  1.0123
   64MOL    H7424140   0.247   3.813   4.245 -0.3394  0.5917  1.4287
   64MOL    H7524141   0.338   4.132   4.220 -0.9082  0.0931 -0.7078
   64MOL    H7624142   0.464   4.001   4.237  1.2977  1.2008  0.5317
   64MOL    H7724143   0.459   4.111   4.108 -0.6765  2.3965  2.5993
   64MOL    C7824144   0.364   3.610   3.742  0.0550  0.7117  0.0480
   64MOL    C7924145   0.243   3.615   3.647 -0.8923  0.6773 -0.4283
   64MOL    C8024146   0.293   3.660   3.509  0.6670  0.2976 -0.2634
   64MOL    O8124147   0.383   3.602   3.442  0.2148 -0.0510 -0.4458
   64MOL    N8224148   0.242   3.771   3.467  0.0156 -0.7346  0.2943
   64MOL    C8324149   0.282   3.845   3.346  0.3523  0.5860 -0.3993
   64MOL    C8424150   0.168   3.839   3.241  0.7344  0.5774  0.5311
   64MOL    C8524151   0.315   3.994   3.382  0.1199  0.5455  0.1554
   64MOL    H8624152   0.368   3.559   3.838 -0.0046 -2.2317 -1.4359
   64MOL    H8724153   0.438   3.553   3.685  0.6333  0.1633  1.3070
   64MOL    H8824154   0.175   3.691   3.684  0.6252  1.6739  0.3885
   64MOL    H8924155   0.174   3.824   3.520 -0.3901  0.7855 -1.6577
   64MOL    H9024156   0.366   3.801   3.291  0.1693 -0.1188 -0.1129
   64MOL    H9124157   0.191   3.894   3.150  1.4336 -1.1264 -0.3576
   64MOL    H9224158   0.177   3.734   3.210  0.0279  0.2054  1.5827
   64MOL    H9324159   0.071   3.868   3.281  0.3218  0.8779 -0.6698
   64MOL    H9424160   0.341   4.044   3.288  1.4362  1.2295  0.8631
   64MOL    H9524161   0.389   3.994   3.462  0.0594  0.4436  0.2110
   64MOL    H9624162   0.226   4.051   3.407 -0.3923 -1.2082  2.4073
   64MOL    C9724163   0.171   3.476   3.625 -0.4078  0.0959 -0.1772
   64MOL    C9824164   0.072   3.434   3.739  0.1352 -0.7130  0.7208
   64MOL    C9924165   0.154   3.380   3.858 -0.1055  0.2833 -0.7216
   64MOL   O10024166   0.221   3.279   3.843  0.1836 -0.3175  0.7579
   64MOL   N10124167   0.139   3.445   3.970 -0.1155 -0.3874 -0.7082
   64MOL   C10224168   0.205   3.413   4.099  0.5410 -0.0470  0.0109
   64MOL   C10324169   0.343   3.480   4.107 -0.6620  0.6891 -0.1741
   64MOL   C10424170   0.121   3.462   4.224  0.1230  0.3264 -0.1998
   64MOL   H10524171   0.249   3.405   3.597  0.0105  1.3136 -2.2362
   64MOL   H10624172   0.107   3.494   3.539  1.0232  1.1992 -1.0492
   64MOL   H10724173   0.014   3.522   3.766 -1.5998 -1.4574 -0.4903
   64MOL   H10824174   0.076   3.524   3.972  0.1790 -0.1298 -1.1815
   64MOL   H10924175   0.204   3.305   4.113 -0.6653  0.1694  1.8158
   64MOL   H11024176   0.368   3.586   4.099  1.3558  0.2240 -0.3010
   64MOL   H11124177   0.388   3.452   4.203 -1.0871 -0.4756 -0.3038
   64MOL   H11224178   0.400   3.428   4.030 -0.3421  1.7020 -0.6309
   64MOL   H11324179   0.021   3.420   4.217  0.4968 -0.5195 -0.5944
   64MOL   H11424180   0.098   3.568   4.232 -1.3326  0.0457 -0.6685
   64MOL   H11524181   0.167   3.443   4.321 -0.7059 -0.6284  0.0191
   64MOL   C11624182   7.801   3.331   3.687  0.4400 -0.2157 -0.0887
   64MOL   C11724183   0.006   3.189   3.638 -0.1419  0.7006 -0.3987
   64MOL   C11824184   0.074   3.196   3.503 -0.0261 -0.3335 -0.4500
   64MOL   O11924185   0.012   3.242   3.405 -0.5305 -0.3109  0.0565
   64MOL   N12024186   0.202   3.161   3.489  0.3905 -0.1631 -0.4990
   64MOL   C12124187   0.273   3.151   3.363  0.5667  0.0401 -0.2228
   64MOL   C12224188   0.358   3.273   3.339  0.9416  0.3390 -0.2866
   64MOL   C12324189   0.345   3.016   3.357 -0.1436 -0.3088  0.7987
   64MOL   H12424190   7.732   3.371   3.612  0.8648 -2.7049 -1.8656
   64MOL   H12524191   7.734   3.315   3.772  0.2331  0.5891 -0.0951
   64MOL   H12624192   0.083   3.150   3.705 -0.0626  0.6157 -0.5386
   64MOL   H12724193   0.248   3.133   3.574 -0.1155 -1.1145 -0.5290
   64MOL   H12824194   0.192   3.148   3.290  1.0304  0.6984 -0.7682
   64MOL   H12924195   0.287   3.345   3.296 -0.3871 -0.1778  0.9934
   64MOL   H13024196   0.428   3.257   3.257 -0.3005  0.0577 -1.3177
   64MOL   H13124197   0.404   3.330   3.419  4.4370 -0.8965 -1.3159
   64MOL   H13224198   0.278   2.931   3.343 -0.5912  0.5042 -2.5948
   64MOL   H13324199   0.413   3.013   3.272 -0.4473  1.8906  0.4469
   64MOL   H13424200   0.416   3.007   3.439  0.3840 -1.2123  0.2471
   64MOL   C13524201   7.726   3.092   3.643  0.7665  0.4090 -0.3720
   64MOL   C13624202   7.734   2.951   3.585  0.2397 -0.0312  0.0391
   64MOL   C13724203   0.025   2.868   3.619 -0.1373 -0.8874  0.4151
   64MOL   O13824204   0.085   2.803   3.534 -0.2402 -0.0303  0.0342
   64MOL   N13924205   0.080   2.879   3.745 -0.4119 -0.6689  0.5646
   64MOL   C14024206   0.200   2.826   3.801  0.0948  0.5304  0.0244
   64MOL   C14124207   0.178   2.748   3.938  0.1025 -0.0434  0.1616
   64MOL   C14224208   0.303   2.935   3.812 -0.9552 -0.1220 -0.2291
   64MOL   H14324209   7.652   3.140   3.579 -0.5299 -0.3861  0.5003
   64MOL   H14424210   7.688   3.094   3.745  0.0608  2.1945 -0.6538
   64MOL   H14524211   7.728   2.942   3.477  0.9752  2.8228 -0.2786
   64MOL   H14624212   0.010   2.920   3.805 -0.2350 -1.4401  1.2988
   64MOL   H14724213   0.252   2.768   3.725  1.2417 -0.6363  1.6676
   64MOL   H14824214   0.122   2.816   4.002  0.6544  1.3312 -0.7970
   64MOL   H14924215   0.110   2.663   3.929 -1.9314  1.1547  3.3401
   64MOL   H15024216   0.274   2.712   3.975 -2.1644 -3.7007  2.7987
   64MOL   H15124217   0.367   2.934   3.724 -0.8143 -5.1328 -0.2311
   64MOL   H15224218   0.361   2.926   3.904 -1.1771 -1.1501 -0.1889
   64MOL   H15324219   0.262   3.036   3.818 -0.2760  0.2523 -1.7182
   64MOL   C15424220   7.602   2.875   3.618  0.0898 -0.1454  1.0161
   64MOL   C15524221   7.579   2.739   3.550  0.1059 -0.2721  0.2891
   64MOL   C15624222   7.547   2.767   3.406 -0.3322  0.1598  1.0339
   64MOL   O15724223   7.433   2.797   3.367  0.4087  0.9877 -0.4502
   64MOL   N15824224   7.645   2.761   3.312  0.4402 -0.2012 -0.4403
   64MOL   C15924225   7.640   2.789   3.168  0.3442  0.0286 -0.2486
   64MOL   C16024226   7.598   2.658   3.087  0.0983  0.1285 -0.2698
   64MOL   C16124227   7.771   2.848   3.121  0.7046 -0.0345 -0.2338
   64MOL   H16224228   7.515   2.936   3.595 -0.0445 -0.6710  0.1207
   64MOL   H16324229   7.597   2.859   3.726  2.2804  1.2888  1.3582
   64MOL   H16424230   7.670   2.679   3.556  0.5090  0.2319 -0.6453
   64MOL   H16524231   7.738   2.745   3.349  1.4235 -0.9727 -3.1346
   64MOL   H16624232   7.558   2.860   3.156 -0.9061 -1.3602 -0.0152
   64MOL   H16724233   7.678   2.587   3.067 -1.3552 -1.8596  0.7252
   64MOL   H16824234   7.518   2.603   3.138  1.5531 -0.5863  1.2805
   64MOL   H16924235   7.550   2.685   2.993  0.1993  1.3087  0.0109
   64MOL   H17024236   7.763   2.859   3.013  0.1054 -0.2463 -0.2107
   64MOL   H17124237   0.028   2.798   3.148 -0.3794 -1.5276  0.7910
   64MOL   H17224238   7.773   2.945   3.172 -0.7077 -0.5610  0.8490
   64MOL   C17324239   7.461   2.661   3.625 -0.1930  0.0447  0.4171
   64MOL   C17424240   7.406   2.532   3.549 -0.9433 -0.2671  0.5147
   64MOL   C17524241   7.521   2.438   3.519 -0.3850  0.6540 -0.1406
   64MOL   O17624242   7.591   2.385   3.606 -0.4721  0.5553  0.5397
   64MOL   N17724243   7.540   2.411   3.387 -0.0673  0.3007 -0.1407
   64MOL   C17824244   7.633   2.320   3.325  0.8996 -0.1005 -0.2535
   64MOL   C17924245   7.772   2.390   3.312 -0.1954 -0.2624 -0.1133
   64MOL   C18024246   7.571   2.291   3.188 -0.4270 -0.2585 -0.1772
   64MOL   H18124247   7.374   2.726   3.631 -0.8979 -0.9040  0.6169
   64MOL   H18224248   7.484   2.636   3.729  2.0092  4.5512  1.1310
   64MOL   H18324249   7.358   2.553   3.453  2.3521  0.2597 -1.1122
   64MOL   H18424250   7.479   2.459   3.323 -0.5710  1.0684  0.9004
   64MOL   H18524251   7.648   2.232   3.388 -0.0846  0.8437  1.3467
   64MOL   H18624252   7.769   2.485   3.260  1.2555  0.1917  0.6156
   64MOL   H18724253   0.003   2.324   3.258  1.4096 -1.2551  2.9779
   64MOL   H18824254   7.812   2.404   3.413  4.0320  0.4025 -1.7998
   64MOL   H18924255   7.553   2.390   3.146 -1.3580 -0.5582 -0.4744
   64MOL   H19024256   7.475   2.241   3.185  0.2369 -1.4883 -1.9211
   64MOL   H19124257   7.634   2.244   3.112  0.0231  0.6311 -0.3616
   64MOL   C19224258   7.296   2.466   3.639 -0.1152 -1.3461 -0.1663
   64MOL   C19324259   7.246   2.329   3.590 -0.4097 -0.1617 -0.7817
   64MOL   C19424260   7.198   2.309   3.443 -1.0280 -0.3198  0.1587
   64MOL   O19524261   7.232   2.207   3.384 -0.0609 -0.1944 -0.0167
   64MOL   N19624262   7.125   2.409   3.387 -0.4834 -0.0816  0.0337
   64MOL   C19724263   7.081   2.414   3.246 -0.3084 -0.6154 -0.2327
   64MOL   C19824264   7.207   2.435   3.158 -0.2076 -0.7181  0.3779
   64MOL   C19924265   6.999   2.286   3.210  0.2525 -0.0501  0.0542
   64MOL   H20024266   7.210   2.533   3.640 -0.2481 -1.5254  0.4755
   64MOL   H20124267   7.329   2.470   3.743 -0.5901 -1.6131 -0.0034
   64MOL   H20224268   7.331   2.262   3.599 -0.0512  0.3897  0.0979
   64MOL   H20324269   7.106   2.493   3.441 -2.6675 -0.5747  0.0795
   64MOL   H20424270   7.019   2.504   3.250 -0.2453 -0.5697 -0.2802
   64MOL   H20524271   7.267   2.344   3.161  0.2360 -0.4069  1.1429
   64MOL   H20624272   7.284   2.500   3.200 -0.9329 -0.7281  1.7580
   64MOL   H20724273   7.195   2.466   3.054  1.4138 -2.8203 -0.4983
   64MOL   H20824274   7.048   2.190   3.225 -1.0748 -0.5520  1.3931
   64MOL   H20924275   6.973   2.289   3.104 -0.0271  1.3490  0.1422
   64MOL   H21024276   6.909   2.283   3.271 -1.0201  4.1236 -1.4316
   64MOL   C21124277   7.137   2.277   3.683  0.1694  0.2881 -0.5957
   64MOL   C21224278   7.116   2.123   3.686 -0.1070 -0.1117  0.0187
   64MOL   C21324279   7.237   2.053   3.739  0.0731  0.8132 -0.0580
   64MOL   O21424280   7.255   2.036   3.861 -0.3213 -0.1380  0.2367
   64MOL   N21524281   7.321   2.003   3.642  0.3514 -0.2841 -0.4505
   64MOL   C21624282   7.445   1.936   3.664 -0.4642  0.0436  0.0381
   64MOL   C21724283   7.556   1.991   3.579  0.8137  0.0493  0.1042
   64MOL   C21824284   7.439   1.788   3.638  0.1066 -0.0075  1.0322
   64MOL   H21924285   7.045   2.326   3.649  0.6449 -0.5017 -3.1033
   64MOL   H22024286   7.156   2.317   3.783  1.4508  3.2998 -1.9804
   64MOL   H22124287   7.107   2.094   3.581  1.3024 -0.8522  0.0992
   64MOL   H22224288   7.287   2.017   3.548  0.5045 -0.6943 -0.5677
   64MOL   H22324289   7.475   1.939   3.769  1.1425 -1.7593 -0.3375
   64MOL   H22424290   7.657   1.962   3.610  0.2717  0.2611  2.1392
   64MOL   H22524291   7.534   1.971   3.474 -0.9210 -2.0426  0.8220
   64MOL   H22624292   7.557   2.099   3.593  0.8356  0.0270  0.2761
   64MOL   H22724293   7.448   1.764   3.532  2.4671  0.8264  1.0051
   64MOL   H22824294   7.354   1.732   3.675 -0.8868  0.5200 -0.4165
   64MOL   H22924295   7.529   1.745   3.683 -0.3280 -1.7678  0.2528
   64MOL   C23024296   6.987   2.078   3.760  0.1808  0.1113 -0.0039
   64MOL   C23124297   6.925   1.947   3.725 -0.6353 -0.0135 -0.2892
   64MOL   C23224298   6.878   1.954   3.580  0.6259 -0.1449 -0.3812
   64MOL   O23324299   6.768   2.014   3.559 -0.8044 -0.4470 -0.4346
   64MOL   N23424300   6.957   1.898   3.493  0.0684  0.4601  0.2844
   64MOL   C23524301   6.942   1.899   3.353  0.2922  0.1899  0.1893
   64MOL   C23624302   7.077   1.900   3.280 -0.7219 -0.7792 -0.4252
   64MOL   C23724303   6.840   1.794   3.311  0.3026 -0.3288  0.2192
   64MOL   H23824304   6.911   2.153   3.738  0.5870  0.4519 -0.2329
   64MOL   H23924305   7.004   2.090   3.867  2.7649  2.8923 -0.6770
   64MOL   H24024306   6.835   1.938   3.786  1.2502 -1.2826  2.3948
   64MOL   H24124307   7.043   1.858   3.526  1.0069  2.6922  0.6139
   64MOL   H24224308   6.900   1.999   3.339  2.8329  1.5804  1.9883
   64MOL   H24324309   7.064   1.926   3.175 -1.7312  1.5286  0.2536
   64MOL   H24424310   7.144   1.980   3.312 -0.3888 -0.9070 -0.7835
   64MOL   H24524311   7.124   1.801   3.282 -0.3679 -0.6105 -0.3886
   64MOL   H24624312   6.749   1.805   3.371  0.1339 -0.3183 -0.0354
   64MOL   H24724313   6.866   1.689   3.322  0.4152 -0.3988 -0.6960
   64MOL   H24824314   6.821   1.809   3.205 -0.1317 -0.9796  0.2037
   64MOL   C24924315   7.002   1.822   3.779  0.4243 -0.7978  0.1583
   64MOL   C25024316   6.948   1.683   3.761  0.3562 -0.3859 -0.2847
   64MOL   C25124317   6.799   1.662   3.792  0.8912 -0.0674 -0.3536
   64MOL   O25224318   6.735   1.704   3.895 -0.1286  0.2854  0.2453
   64MOL   N25324319   6.738   1.583   3.698 -0.6448 -0.4750  0.5403
   64MOL   C25424320   6.599   1.540   3.716 -0.0609 -0.4058  0.8068
   64MOL   C25524321   6.548   1.477   3.586 -0.2798  0.1146  0.4037
   64MOL   C25624322   6.578   1.437   3.833  0.3723 -0.4671  0.1092
   64MOL   H25724323   7.010   1.848   3.885 -0.2402 -2.6381  0.6859
   64MOL   H25824324   7.106   1.822   3.747  0.4542  1.9168  0.1745
   64MOL   H25924325   6.957   1.672   3.653 -0.9871 -1.4844 -0.3010
   64MOL   H26024326   6.783   1.575   3.608  1.1149 -0.8282  1.4264
   64MOL   H26124327   6.544   1.631   3.739  0.1811 -0.2266  0.6728
   64MOL   H26224328   6.447   1.438   3.590  0.2567 -1.3540 -0.2873
   64MOL   H26324329   6.570   1.537   3.497 -1.2374  0.1179  0.1606
   64MOL   H26424330   6.604   1.386   3.565  0.7555  0.8294 -0.0124
   64MOL   H26524331   6.484   1.383   3.827 -0.0553  0.1900  0.8681
   64MOL   H26624332   6.658   1.364   3.849  1.1492  0.8257  2.2148
   64MOL   H26724333   6.563   1.498   3.921 -2.0786  2.5526 -2.2985
   64MOL   C26824334   7.035   1.592   3.852 -0.5078 -0.2487  0.1660
   64MOL   C26924335   7.041   1.447   3.816  0.5604  0.7498 -0.3730
   64MOL   C27024336   7.097   1.434   3.675  0.1072  0.6717  0.1635
   64MOL   O27124337   7.206   1.479   3.643  0.0059 -0.1941 -0.1756
   64MOL   N27224338   7.018   1.360   3.594 -0.0153  0.7855  0.5966
   64MOL   C27324339   7.041   1.310   3.461  0.0548 -0.1807  0.6395
   64MOL   C27424340   7.015   1.417   3.359 -0.0706 -0.5448  0.6760
   64MOL   C27524341   7.188   1.259   3.444 -0.1618  0.5222  0.2040
   64MOL   H27624342   7.136   1.629   3.867 -0.6978  0.3543 -0.0135
   64MOL   H27724343   6.982   1.601   3.947 -2.7635 -4.3765 -0.5641
   64MOL   H27824344   6.940   1.406   3.815  0.5694  0.6930  0.5563
   64MOL   H27924345   6.938   1.323   3.644 -1.1243  0.7927 -1.1238
   64MOL   H28024346   6.972   1.228   3.439 -2.6796  2.1661  0.1002
   64MOL   H28124347   7.081   1.501   3.378  2.0519 -2.4979  2.2770
   64MOL   H28224348   7.033   1.375   3.260  1.5462  1.9503 -0.1125
   64MOL   H28324349   6.914   1.454   3.369 -0.1898 -1.4674  3.1898
   64MOL   H28424350   7.178   1.186   3.364 -0.2916  0.1604  0.5493
   64MOL   H28524351   7.258   1.338   3.420  2.4631 -1.4546  1.1127
   64MOL   H28624352   7.226   1.202   3.529  0.9041 -0.1766 -0.7254
   64MOL   C28724353   7.121   1.370   3.915  0.0350 -0.3337 -0.2206
   64MOL   C28824354   7.047   1.266   4.004  0.2418 -0.6736  0.0787
   64MOL   C28924355   7.003   1.155   3.913  0.2717  0.2720  0.5312
   64MOL   O29024356   6.890   1.156   3.858  0.1398  0.1203 -0.1973
   64MOL   N29124357   7.092   1.058   3.888  0.2235  1.1531  0.5829
   64MOL   C29224358   7.059   0.927   3.833  0.2779 -0.2981 -0.4349
   64MOL   C29324359   7.044   0.937   3.680  0.5841  0.0439 -0.4619
   64MOL   C29424360   7.160   0.820   3.883 -0.7479  0.1980 -0.1787
   64MOL   H29524361   7.202   1.314   3.867  1.4072  2.1425 -0.8815
   64MOL   H29624362   7.174   1.433   3.987 -0.7404 -0.4053  0.4172
   64MOL   H29724363   7.116   1.229   4.080 -1.5613 -0.3738  1.8715
   64MOL   H29824364   7.178   1.064   3.941  0.8857 -1.9083 -0.0630
   64MOL   H29924365   6.967   0.890   3.879 -0.8928  2.6225 -0.3478
   64MOL   H30024366   6.974   0.861   3.646  0.7868 -0.8645  1.1292
   64MOL   H30124367   6.996   1.031   3.653  0.9402  0.8138  1.4809
   64MOL   H30224368   7.142   0.935   3.631  0.3952  0.5638 -0.8676
   64MOL   H30324369   7.147   0.816   3.991  0.1865  2.3115  0.0307
   64MOL   H30424370   7.135   0.721   3.844  0.6412 -0.4691  0.6205
   64MOL   H30524371   7.264   0.844   3.864  0.4953 -1.6588  3.7695
   64MOL   C30624372   6.927   1.328   4.081  0.9126  0.4569  0.0669
   64MOL   C30724373   6.963   1.413   4.205 -0.5646  0.1940 -0.9743
   64MOL   C30824374   7.040   1.331   4.305  0.3159 -0.4155  0.0330
   64MOL   O30924375   7.016   1.211   4.325  0.0227  0.1253  1.3383
   64MOL   N31024376   7.135   1.392   4.377  0.7040 -0.2634 -0.1293
   64MOL   C31124377   7.238   1.331   4.462  0.8596 -0.0184  0.2746
   64MOL   C31224378   7.194   1.286   4.602  0.1648  0.1436 -0.8488
   64MOL   C31324379   7.315   1.229   4.369 -0.0992  0.2161 -0.8426
   64MOL   H31424380   6.856   1.381   4.018  2.6895  1.1443 -1.4281
   64MOL   H31524381   6.872   1.245   4.124 -0.4628  1.0162 -0.5894
   64MOL   H31624382   7.021   1.502   4.183 -1.8958  0.6673 -2.6753
   64MOL   H31724383   7.130   1.493   4.375 -0.3919 -0.3075  0.0084
   64MOL   H31824384   7.295   1.422   4.480 -0.1383  0.9205 -1.1806
   64MOL   H31924385   7.117   1.210   4.589  0.4378 -0.1304 -0.8836
   64MOL   H32024386   7.165   1.375   4.657  2.8873  0.1707  0.6356
   64MOL   H32124387   7.269   1.235   4.662  0.5695  1.3243 -0.3290
   64MOL   H32224388   7.281   1.126   4.373  0.7102  0.0073  0.9505
   64MOL   H32324389   7.420   1.212   4.390  0.2144 -0.3814 -2.7601
   64MOL   H32424390   7.320   1.246   4.261 -0.8185 -1.2587 -1.1172
   64MOL   C32524391   6.840   1.470   4.280 -0.8532 -0.0111  0.8881
   64MOL   C32624392   6.754   1.578   4.218 -0.7373 -0.1757  0.5225
   64MOL   C32724393   6.609   1.589   4.268 -0.3024  0.3999 -0.8934
   64MOL   O32824394   6.580   1.556   4.383 -0.0720  0.2824  0.1790
   64MOL   N32924395   6.522   1.642   4.180 -0.3664  0.5259 -0.1229
   64MOL   C33024396   6.375   1.646   4.186  0.0262  0.2162  0.2743
   64MOL   C33124397   6.315   1.639   4.049  0.0875 -0.2629 -0.1342
   64MOL   C33224398   6.339   1.779   4.259  0.2173  0.3868 -0.1167
   64MOL   H33324399   6.871   1.497   4.381  0.2888  1.0456  0.2653
   64MOL   H33424400   6.773   1.385   4.287 -0.5483 -0.2901  0.4258
   64MOL   H33524401   6.764   1.561   4.111  0.8166  0.6858  0.5107
   64MOL   H33624402   6.569   1.676   4.097 -0.0766 -0.6896 -0.4773
   64MOL   H33724403   6.333   1.567   4.248 -1.6609 -0.1812 -1.3221
   64MOL   H33824404   6.374   1.703   3.983 -0.2601 -0.4079 -0.5976
   64MOL   H33924405   6.304   1.542   3.999 -2.8757 -0.0995  0.1003
   64MOL   H34024406   6.218   1.689   4.053  0.9701  1.4591  0.0769
   64MOL   H34124407   6.233   1.799   4.280  0.3024 -0.4613  1.2124
   64MOL   H34224408   6.380   1.873   4.223 -0.9180  1.0771  0.3381
   64MOL   H34324409   6.374   1.775   4.362 -1.7225  0.3784  0.5709
   64MOL   C34424410   6.820   1.723   4.228  0.3844  0.7986 -0.1413
   64MOL   C34524411   6.841   1.804   4.367 -0.4057  0.1225 -0.2195
   64MOL   C34624412   6.969   1.764   4.447 -0.1819 -0.6372  0.1456
   64MOL   O34724413   7.051   1.679   4.402  0.1237 -0.3249  0.3504
   64MOL   N34824414   6.985   1.818   4.568  0.4407 -0.7276  0.3294
   64MOL   C34924415   7.080   1.786   4.675  0.1785  0.0674 -0.1257
   64MOL   C35024416   7.195   1.882   4.669 -0.2388 -0.1940 -0.1183
   64MOL   C35124417   7.005   1.808   4.810  0.3060 -0.0554 -0.6773
   64MOL   H35224418   6.753   1.790   4.174 -0.7892  0.3553  0.7505
   64MOL   H35324419   6.907   1.731   4.163  1.3082 -0.5667  0.8993
   64MOL   H35424420   6.763   1.775   4.437  0.3075  0.9634  0.9421
   64MOL   H35524421   6.908   1.878   4.595  1.9540  2.7543 -2.6088
   64MOL   H35624422   7.117   1.684   4.664  0.4774  0.1770 -0.1419
   64MOL   H35724423   7.273   1.866   4.742  0.1323  1.1085 -0.2125
   64MOL   H35824424   7.255   1.885   4.578  2.3566  2.5329  1.6003
   64MOL   H35924425   7.164   1.985   4.690  3.1676  0.7349  0.5790
   64MOL   H36024426   6.924   1.737   4.826  0.3930 -0.1094 -0.4816
   64MOL   H36124427   7.075   1.806   4.894  2.2291 -1.6404 -2.2532
   64MOL   H36224428   6.958   1.906   4.817  1.8840  0.6427  0.6359
   64MOL   C36324429   6.837   1.953   4.350 -0.3826  0.0939 -0.3327
   64MOL   C36424430   6.693   2.007   4.377  0.4843  0.0035 -0.6460
   64MOL   C36524431   6.655   2.010   4.530  0.7308 -0.1419  0.1056
   64MOL   O36624432   6.747   1.997   4.616 -0.0690  0.3256 -0.4900
   64MOL   N36724433   6.530   2.034   4.570 -0.4881 -0.6951  0.3080
   64MOL   C36824434   6.481   2.021   4.709 -0.7005 -0.0102 -0.7135
   64MOL   C36924435   6.343   2.088   4.727  0.6590  0.9051 -0.3363
   64MOL   C37024436   6.470   1.869   4.743 -0.4003 -0.2301  0.1032
   64MOL   H37124437   6.877   2.001   4.261  1.0158  0.4980  0.4951
   64MOL   H37224438   6.891   2.001   4.431 -0.8374 -0.5500  0.3549
   64MOL   H37324439   6.616   1.949   4.326  0.0505  0.2638 -0.2841
   64MOL   H37424440   6.466   2.043   4.493 -2.1273 -2.0956  1.4728
   64MOL   H37524441   6.546   2.070   4.782 -1.0330  1.7784 -1.5741
   64MOL   H37624442   6.277   2.071   4.641 -1.2996  1.0564  1.0922
   64MOL   H37724443   6.295   2.059   4.820 -1.1041  1.9011 -0.9046
   64MOL   H37824444   6.350   2.197   4.728 -1.0412  1.0710  3.9198
   64MOL   H37924445   6.560   1.807   4.744 -0.6691 -0.6215  0.7718
   64MOL   H38024446   6.440   1.861   4.848  0.9603  2.0218  0.6931
   64MOL   H38124447   6.387   1.816   4.695 -1.4685  1.6481 -0.1503
   64MOL   H38224448   6.686   2.109   4.341  0.2886  0.5514  0.9430
   65MOL     C124449   1.794   6.104   0.704  0.0036  0.1045 -0.0549
   65MOL     C224450   1.746   6.057   0.840  1.0902  0.1803 -0.4724
   65MOL     C324451   1.843   6.109   0.956  0.7220 -0.1775  0.0697
   65MOL     O424452   1.871   6.036   1.048  0.0855 -0.1964 -0.4209
   65MOL     N524453   1.883   6.245   0.954 -0.1069  0.8985 -0.3343
   65MOL     C624454   1.960   6.304   1.061 -0.4105 -0.1821  0.2094
   65MOL     C724455   2.039   6.425   1.002 -0.0354  0.8472  0.3257
   65MOL     C824456   1.860   6.358   1.168  0.5822 -0.4139 -0.6522
   65MOL     H924457   1.856   6.193   0.705 -0.8894  0.7355 -0.4194
   65MOL    H1024458   1.718   6.120   0.628  1.2534  2.3170 -0.8590
   65MOL    H1124459   1.772   5.952   0.852  0.3251 -0.1757 -1.7623
   65MOL    H1224460   1.845   6.307   0.884  0.5659  0.8980 -0.7026
   65MOL    H1324461   2.033   6.236   1.106 -0.3495 -2.2339 -2.8285
   65MOL    H1424462   2.088   6.485   1.079  1.6112 -0.4401  0.2939
   65MOL    H1524463   1.971   6.487   0.943  0.7031  0.7697 -0.6131
   65MOL    H1624464   2.108   6.378   0.932  0.0684  1.0460  0.2923
   65MOL    H1724465   1.911   6.418   1.243 -0.1086  1.0092 -1.3109
   65MOL    H1824466   1.796   6.433   1.122 -0.3730 -0.6824  0.2308
   65MOL    H1924467   1.810   6.293   1.240  0.1601 -0.2161 -0.7701
   65MOL    H2024468   1.851   6.018   0.669  0.7046  0.6055 -0.1515
   65MOL    C2124469   1.598   6.084   0.872  0.4004 -0.9339 -0.0736
   65MOL    C2224470   1.530   5.989   0.971  0.2547  0.2752  0.0242
   65MOL    C2324471   1.494   5.854   0.910  1.0708  0.5008  0.2005
   65MOL    O2424472   1.424   5.774   0.966 -0.2172  0.4223 -0.4736
   65MOL    N2524473   1.535   5.831   0.783  0.7144  0.2268 -0.4346
   65MOL    C2624474   1.548   5.696   0.720  0.3082  0.4801  0.6482
   65MOL    C2724475   1.690   5.640   0.753  0.5437  0.3292 -0.1462
   65MOL    C2824476   1.522   5.710   0.570  0.2437 -0.6571 -0.2200
   65MOL    H2924477   1.535   6.088   0.783 -1.1242 -0.6195  0.9949
   65MOL    H3024478   1.600   6.188   0.907 -0.9525 -0.7806 -0.4144
   65MOL    H3124479   1.606   5.979   1.049  0.7248 -1.5013 -0.6340
   65MOL    H3224480   1.574   5.912   0.737 -1.3088  0.5250 -1.7130
   65MOL    H3324481   1.465   5.635   0.755  0.3634 -1.0746 -1.8312
   65MOL    H3424482   1.702   5.646   0.861 -0.0582  0.9257 -0.1128
   65MOL    H3524483   1.765   5.706   0.711  0.0818 -0.4284 -2.2567
   65MOL    H3624484   1.704   5.539   0.712  0.2576  0.3537 -0.3052
   65MOL    H3724485   1.579   5.787   0.517  1.0115 -0.8571  0.2990
   65MOL    H3824486   1.550   5.613   0.528  0.9550 -2.1273  3.5148
   65MOL    H3924487   1.415   5.722   0.555  0.1782 -1.7989 -0.7619
   65MOL    C4024488   1.401   6.060   1.030  0.1419  0.1219  0.0203
   65MOL    C4124489   1.359   6.010   1.180  0.0313  0.1504 -0.2636
   65MOL    C4224490   1.213   5.980   1.209 -0.1096  0.1866  0.2447
   65MOL    O4324491   1.123   6.062   1.177  0.2597  0.1141  0.1494
   65MOL    N4424492   1.185   5.868   1.287  0.3169  0.2268 -0.1904
   65MOL    C4524493   1.060   5.837   1.347 -0.1133 -0.2933  0.1408
   65MOL    C4624494   1.031   5.687   1.341  0.4427  0.4443 -0.1920
   65MOL    C4724495   1.074   5.870   1.502 -0.0475 -0.3304 -0.0273
   65MOL    H4824496   1.312   6.048   0.968 -0.0297  1.0087  0.0942
   65MOL    H4924497   1.409   6.168   1.031  1.6282  0.0133  0.3420
   65MOL    H5024498   1.411   5.916   1.199 -1.6703 -0.9920 -1.1901
   65MOL    H5124499   1.255   5.796   1.302 -1.3180 -1.0275  1.7476
   65MOL    H5224500   0.980   5.893   1.299  0.1608 -0.0456 -0.0321
   65MOL    H5324501   1.035   5.635   1.245 -0.8494 -0.0909  0.0246
   65MOL    H5424502   0.936   5.665   1.389  0.6963 -0.7692 -0.2176
   65MOL    H5524503   1.099   5.640   1.412  0.3253 -1.3334 -1.2228
   65MOL    H5624504   0.980   5.856   1.555 -1.1648  3.3265 -0.8862
   65MOL    H5724505   1.104   5.975   1.500  2.1071 -0.9226  0.0537
   65MOL    H5824506   1.149   5.802   1.540  1.7500  0.4606 -2.0490
   65MOL    C5924507   1.411   6.107   1.290 -0.3390  0.1663 -0.9020
   65MOL    C6024508   1.491   6.039   1.401  0.2074 -0.2674 -0.6181
   65MOL    C6124509   1.514   6.127   1.522 -0.1203  0.4702 -0.1663
   65MOL    O6224510   1.563   6.240   1.512  0.5612 -0.2191  0.7980
   65MOL    N6324511   1.481   6.077   1.640  0.3333 -0.1510  0.1359
   65MOL    C6424512   1.490   6.150   1.766 -0.2217  0.1465 -0.2076
   65MOL    C6524513   1.357   6.148   1.840  0.4709 -1.0141  0.1543
   65MOL    C6624514   1.593   6.075   1.842 -0.4303 -0.5601 -0.4810
   65MOL    H6724515   1.486   6.175   1.250 -0.6928  0.2559 -1.4232
   65MOL    H6824516   1.334   6.173   1.329 -0.4488  0.0764 -0.9662
   65MOL    H6924517   1.437   5.951   1.435 -0.1614  0.4099  0.5648
   65MOL    H7024518   1.461   5.978   1.643  3.0487 -0.7504 -0.2741
   65MOL    H7124519   1.522   6.253   1.747 -1.0323  0.2828 -0.8963
   65MOL    H7224520   1.289   6.222   1.798  1.1804 -0.6786 -0.3999
   65MOL    H7324521   1.316   6.047   1.835 -0.3294 -0.6374 -1.1851
   65MOL    H7424522   1.371   6.181   1.943 -2.3152  1.5190 -0.2014
   65MOL    H7524523   1.556   5.976   1.867 -0.2036 -0.1704  1.4587
   65MOL    H7624524   1.684   6.065   1.783 -0.7549  2.0081 -1.5032
   65MOL    H7724525   1.620   6.117   1.939  1.9037 -1.3774 -0.7505
   65MOL    C7824526   1.629   5.989   1.352 -0.0820  0.2913  0.3949
   65MOL    C7924527   1.708   5.915   1.470 -0.0931 -0.1828  0.6221
   65MOL    C8024528   1.640   5.789   1.514 -0.0548 -0.0864 -0.3317
   65MOL    O8124529   1.595   5.705   1.438  0.3287 -0.0168  0.4731
   65MOL    N8224530   1.639   5.765   1.647 -0.2437  0.1889  0.1635
   65MOL    C8324531   1.580   5.650   1.720  0.2088 -0.3546  0.3599
   65MOL    C8424532   1.641   5.637   1.860 -0.1976 -0.2215 -0.2394
   65MOL    C8524533   1.434   5.675   1.733  0.1550 -0.1377 -0.7986
   65MOL    H8624534   1.694   6.069   1.319  0.8468 -0.3909  0.5669
   65MOL    H8724535   1.618   5.926   1.263 -0.2560 -0.5309  0.9901
   65MOL    H8824536   1.729   5.984   1.552  1.5587  1.0616 -0.8183
   65MOL    H8924537   1.675   5.839   1.705 -1.8463  0.6889  0.5513
   65MOL    H9024538   1.601   5.558   1.666 -0.9402  0.2713 -1.2032
   65MOL    H9124539   1.749   5.627   1.856 -0.2545 -0.7357 -0.5375
   65MOL    H9224540   1.615   5.731   1.908  1.8729  1.3307 -2.0594
   65MOL    H9324541   1.597   5.553   1.914 -1.4262  0.3044 -0.4037
   65MOL    H9424542   1.394   5.585   1.780  0.6904  0.3478  0.6326
   65MOL    H9524543   1.387   5.690   1.636  1.2974 -1.0142 -1.5024
   65MOL    H9624544   1.412   5.757   1.802 -1.4305  1.3811 -3.0225
   65MOL    C9724545   1.849   5.868   1.417  0.3045  0.3098 -0.2468
   65MOL    C9824546   1.948   5.992   1.390 -0.1587  0.1327  0.3455
   65MOL    C9924547   2.082   5.941   1.338 -0.3699  1.2474  0.4828
   65MOL   O10024548   2.162   5.874   1.412  0.0764 -0.2999  0.0388
   65MOL   N10124549   2.110   5.962   1.207  0.8592  0.0967 -0.6419
   65MOL   C10224550   2.240   5.956   1.147  0.0838  0.2380 -0.2253
   65MOL   C10324551   2.220   5.907   0.997 -0.4463  0.1845  0.5391
   65MOL   C10424552   2.315   6.089   1.153  0.9983  0.3111 -0.0027
   65MOL   H10524553   1.837   5.814   1.323 -1.3548  1.5950 -0.8019
   65MOL   H10624554   1.902   5.811   1.494 -0.4642 -0.0998 -0.0105
   65MOL   H10724555   1.899   6.048   1.310  0.2208  1.2485  0.8909
   65MOL   H10824556   2.039   6.013   1.157  0.5934  0.2866 -0.0674
   65MOL   H10924557   2.306   5.881   1.193  0.1104  0.7157  0.5183
   65MOL   H11024558   2.314   5.882   0.948 -0.8678 -3.6908  1.5728
   65MOL   H11124559   2.160   5.818   0.984  0.0081  0.0769 -0.9101
   65MOL   H11224560   2.174   5.976   0.926 -0.3970  0.7709  1.0725
   65MOL   H11324561   2.420   6.071   1.131  0.6635  0.4139 -1.7536
   65MOL   H11424562   2.298   6.125   1.254 -0.2572  2.2835 -0.8791
   65MOL   H11524563   2.268   6.153   1.078 -1.6914 -1.7213 -0.1165
   65MOL   C11624564   1.968   6.109   1.492 -0.3466  0.4765  0.4626
   65MOL   C11724565   2.028   6.079   1.633 -0.1412 -0.6217  0.4098
   65MOL   C11824566   1.980   5.946   1.699  0.2638  0.4967  0.6774
   65MOL   O11924567   1.862   5.935   1.732 -0.8706 -1.7165 -0.2433
   65MOL   N12024568   2.078   5.854   1.717 -0.2726  0.1166 -0.3595
   65MOL   C12124569   2.045   5.719   1.755  0.0686  0.3452  0.0609
   65MOL   C12224570   2.089   5.628   1.640 -0.9891 -0.3922  0.1215
   65MOL   C12324571   2.099   5.688   1.887  0.6998 -0.1732  0.6576
   65MOL   H12424572   1.868   6.151   1.503 -0.4961  0.1494  0.3560
   65MOL   H12524573   2.016   6.193   1.441  1.3897 -1.0898 -0.5351
   65MOL   H12624574   2.135   6.066   1.620  0.0174  0.4434  0.5558
   65MOL   H12724575   2.166   5.879   1.675  0.6510 -0.1459  1.3896
   65MOL   H12824576   1.937   5.707   1.757  0.2043 -0.7844  2.3689
   65MOL   H12924577   2.032   5.641   1.548  0.2681  0.3332 -0.5754
   65MOL   H13024578   2.066   5.530   1.680  0.7721 -0.7164  0.3746
   65MOL   H13124579   2.196   5.633   1.619 -0.6156 -0.2605  1.9343
   65MOL   H13224580   2.203   5.657   1.878  1.0078  1.7207 -3.0157
   65MOL   H13324581   2.094   5.769   1.959  1.8350 -0.5255  1.1405
   65MOL   H13424582   2.037   5.609   1.929  0.9441  0.0668  1.4775
   65MOL   C13524583   1.994   6.212   1.713 -0.0373  0.1312  0.3028
   65MOL   C13624584   2.092   6.244   1.821  0.0715 -0.0442 -0.3756
   65MOL   C13724585   2.207   6.334   1.765  0.1212  0.1194  0.1221
   65MOL   O13824586   2.183   6.413   1.676  0.3667  0.3992  0.1549
   65MOL   N13924587   2.328   6.304   1.818  0.0078  0.6993  0.2740
   65MOL   C14024588   2.451   6.352   1.764  0.0810  0.1623  0.1574
   65MOL   C14124589   2.531   6.238   1.701 -0.3628 -0.4391 -0.4224
   65MOL   C14224590   2.539   6.403   1.882  0.2266  0.3976 -0.2673
   65MOL   H14324591   1.898   6.199   1.763  0.1224 -0.4350  0.4537
   65MOL   H14424592   1.969   6.294   1.645 -1.3366  1.5314  2.3834
   65MOL   H14524593   2.143   6.152   1.849  1.1083  0.4651 -0.5600
   65MOL   H14624594   2.331   6.253   1.905  0.9422 -1.0693 -0.7881
   65MOL   H14724595   2.430   6.429   1.689 -1.1274  1.1306  1.4599
   65MOL   H14824596   2.557   6.162   1.775  2.1148 -0.7299 -1.5600
   65MOL   H14924597   2.473   6.189   1.623 -2.2948  0.1954  0.5661
   65MOL   H15024598   2.615   6.289   1.656 -1.0806  2.9880  1.9026
   65MOL   H15124599   2.639   6.419   1.842 -0.2300  2.9099 -0.4897
   65MOL   H15224600   2.556   6.332   1.963 -2.8584  0.8643  0.8501
   65MOL   H15324601   2.504   6.502   1.911  0.2233  0.9011 -1.9532
   65MOL   C15424602   2.018   6.315   1.940 -0.3055  0.3858 -0.1101
   65MOL   C15524603   2.034   6.256   2.079  0.7656  0.1383 -0.1541
   65MOL   C15624604   2.183   6.252   2.117 -0.3322 -0.2673 -0.4311
   65MOL   O15724605   2.259   6.156   2.084 -0.1978 -0.4154 -0.0428
   65MOL   N15824606   2.228   6.362   2.188 -0.2677  0.2552 -0.4160
   65MOL   C15924607   2.375   6.389   2.228 -0.2482  0.4633  0.7192
   65MOL   C16024608   2.426   6.313   2.349 -1.3548 -0.1308 -0.3343
   65MOL   C16124609   2.401   6.539   2.247  0.2589 -0.4310  0.6466
   65MOL   H16224610   1.912   6.324   1.919 -0.1592  0.4852 -0.8145
   65MOL   H16324611   2.048   6.420   1.946 -1.4388  0.6518  1.0656
   65MOL   H16424612   1.990   6.318   2.157  0.7984  1.7715 -1.3968
   65MOL   H16524613   2.165   6.435   2.217 -1.7537  0.1409 -3.1597
   65MOL   H16624614   2.435   6.363   2.141  1.6535  0.8994  1.8566
   65MOL   H16724615   2.526   6.347   2.378 -0.3696 -0.2226 -3.5015
   65MOL   H16824616   2.362   6.328   2.436 -0.6667 -0.7314  0.2930
   65MOL   H16924617   2.436   6.206   2.328  2.5150  0.0989 -0.0640
   65MOL   H17024618   2.372   6.611   2.170 -1.0685 -0.6157  0.9683
   65MOL   H17124619   2.508   6.559   2.256  0.1852 -0.1876  0.9648
   65MOL   H17224620   2.350   6.571   2.337  2.0712  0.2567  1.4490
   65MOL   C17324621   1.964   6.120   2.088  0.3212  0.3114 -0.2218
   65MOL   C17424622   1.981   6.036   2.210  0.9484 -0.5222  0.4118
   65MOL   C17524623   1.964   6.114   2.342  0.2398 -0.3649 -0.2623
   65MOL   O17624624   1.885   6.207   2.348 -0.0451 -0.2654 -0.4440
   65MOL   N17724625   2.073   6.092   2.433  0.1523  0.1611  0.1203
   65MOL   C17824626   2.092   6.187   2.540 -0.2127 -0.3945  0.1011
   65MOL   C17924627   2.224   6.148   2.615 -0.3652 -0.5234  0.8336
   65MOL   C18024628   1.980   6.199   2.644  0.2887  0.2218  0.0612
   65MOL   H18124629   1.997   6.067   1.999  3.2864  0.5358  0.7009
   65MOL   H18224630   1.857   6.138   2.073  0.4921  1.2255 -0.4060
   65MOL   H18324631   2.084   6.001   2.211  1.6004  1.3318 -0.8242
   65MOL   H18424632   2.150   6.038   2.397 -0.4322 -0.4244 -0.2722
   65MOL   H18524633   2.114   6.282   2.491 -1.1945 -1.0039 -1.5704
   65MOL   H18624634   2.269   6.228   2.674 -1.4087  1.1155 -0.5245
   65MOL   H18724635   2.304   6.124   2.545  0.1760  1.8008  0.5966
   65MOL   H18824636   2.201   6.066   2.682 -1.1812 -1.3178 -0.4030
   65MOL   H18924637   1.879   6.219   2.607 -0.8586 -1.7396  1.9598
   65MOL   H19024638   1.996   6.290   2.702  0.2242 -0.6719  1.5049
   65MOL   H19124639   1.978   6.113   2.712 -2.6851  0.1262 -0.0818
   65MOL   C19224640   1.899   5.907   2.205 -0.0967 -0.3661 -0.4557
   65MOL   C19324641   1.940   5.800   2.310  0.6092  0.1497  0.7367
   65MOL   C19424642   2.080   5.748   2.286 -0.4384 -0.1919 -0.1439
   65MOL   O19524643   2.103   5.675   2.193 -0.0670 -0.2931 -0.1715
   65MOL   N19624644   2.176   5.796   2.364 -0.1956 -0.3401 -0.0910
   65MOL   C19724645   2.325   5.775   2.349 -0.2907  0.0558  0.6421
   65MOL   C19824646   2.393   5.904   2.323  0.9355  0.0720 -0.9040
   65MOL   C19924647   2.380   5.707   2.467  0.0567 -0.3106 -0.3931
   65MOL   H20024648   1.919   5.870   2.104  0.4147 -0.2623 -0.3956
   65MOL   H20124649   1.794   5.931   2.217  0.2027 -0.4396  2.5178
   65MOL   H20224650   1.948   5.841   2.411 -1.3163  1.0246  0.5512
   65MOL   H20324651   2.141   5.858   2.437  0.8011  0.3150 -0.1614
   65MOL   H20424652   2.342   5.712   2.261 -0.2886  1.2803 -0.2595
   65MOL   H20524653   2.372   5.976   2.402  3.4616  1.0057 -1.0356
   65MOL   H20624654   2.357   5.939   2.226  2.7513  0.4439 -1.4601
   65MOL   H20724655   2.502   5.900   2.320  0.9618 -2.2274  1.2919
   65MOL   H20824656   2.378   5.767   2.558 -2.1637  1.9687 -1.8653
   65MOL   H20924657   2.482   5.672   2.446 -0.2699 -2.1735  1.0336
   65MOL   H21024658   2.328   5.616   2.497 -0.9360  0.3688 -0.0232
   65MOL   C21124659   1.833   5.692   2.323  0.3120 -0.8066 -0.2872
   65MOL   C21224660   1.867   5.575   2.423  0.0871 -0.2880 -0.1910
   65MOL   C21324661   1.894   5.622   2.566  0.8050 -0.1020 -0.1582
   65MOL   O21424662   1.804   5.680   2.628 -0.2735 -0.7676 -0.1509
   65MOL   N21524663   2.005   5.592   2.629 -0.0300 -0.0447 -0.2037
   65MOL   C21624664   2.037   5.631   2.764 -0.4428  0.0482 -0.8965
   65MOL   C21724665   2.044   5.788   2.775 -0.5853  0.9080  0.0496
   65MOL   C21824666   2.162   5.568   2.812  0.1462 -0.4144  0.0469
   65MOL   H21924667   1.809   5.658   2.223 -2.1216 -0.3235  0.0923
   65MOL   H22024668   1.744   5.745   2.358  1.3908  0.5689  0.4153
   65MOL   H22124669   1.953   5.520   2.387  1.5105  1.2564  0.7419
   65MOL   H22224670   2.080   5.546   2.580  2.3126  3.9273 -0.5618
   65MOL   H22324671   1.951   5.601   2.824 -1.6117  1.1682 -1.9787
   65MOL   H22424672   2.069   5.821   2.876  1.8240 -0.5816 -0.0313
   65MOL   H22524673   2.121   5.809   2.701 -1.3656 -1.1711 -1.3920
   65MOL   H22624674   1.945   5.830   2.753 -0.4324  0.7562 -0.9309
   65MOL   H22724675   2.153   5.459   2.806  1.1683 -0.5923  1.4972
   65MOL   H22824676   2.181   5.595   2.916 -2.7054  1.0527  0.2327
   65MOL   H22924677   2.247   5.608   2.756  1.9916 -0.1243  2.9345
   65MOL   C23024678   1.759   5.467   2.415 -0.2178 -0.2330  0.2863
   65MOL   C23124679   1.609   5.500   2.461 -1.1339  0.0454  0.4255
   65MOL   C23224680   1.510   5.531   2.344  0.4908 -0.7029  0.0189
   65MOL   O23324681   1.487   5.443   2.256 -0.0060 -0.0656 -0.2018
   65MOL   N23424682   1.440   5.646   2.352  0.0719  0.1147 -0.4421
   65MOL   C23524683   1.333   5.687   2.268  0.5285  0.0469 -0.8146
   65MOL   C23624684   1.269   5.809   2.345  0.4663  0.4410 -0.1191
   65MOL   C23724685   1.396   5.722   2.134  0.1785 -0.4507  0.0965
   65MOL   H23824686   1.808   5.392   2.478 -0.2626  0.2921  0.9582
   65MOL   H23924687   1.770   5.413   2.321  0.4875  0.8950 -0.2913
   65MOL   H24024688   1.611   5.588   2.525 -0.7716  1.7209 -1.8405
   65MOL   H24124689   1.468   5.703   2.431  0.6058 -1.0638  0.2348
   65MOL   H24224690   1.256   5.610   2.259  1.2390 -0.7391 -0.2427
   65MOL   H24324691   1.184   5.855   2.293 -0.0718  0.9875  1.2151
   65MOL   H24424692   1.224   5.781   2.441  0.8833 -1.6057 -0.4884
   65MOL   H24524693   1.324   5.898   2.376 -0.0762  1.3066 -1.6197
   65MOL   H24624694   1.485   5.785   2.129  0.1463 -0.2703  1.5204
   65MOL   H24724695   1.316   5.769   2.078 -1.0413 -2.3164  0.2117
   65MOL   H24824696   1.410   5.628   2.080  1.5162 -0.0387 -0.2994
   65MOL   C24924697   1.559   5.378   2.550  0.3916 -0.0694 -0.0464
   65MOL   C25024698   1.558   5.235   2.479  0.4002 -0.3765 -0.3326
   65MOL   C25124699   1.421   5.177   2.460  0.2126 -0.1660  0.4842
   65MOL   O25224700   1.361   5.128   2.556  0.0542  0.0943 -0.3104
   65MOL   N25324701   1.370   5.184   2.340 -0.1638 -0.4786 -0.6975
   65MOL   C25424702   1.245   5.146   2.291  0.4246  0.3925 -0.1411
   65MOL   C25524703   1.224   5.210   2.150 -0.0500  0.2716 -0.3883
   65MOL   C25624704   1.255   4.998   2.267  0.1670 -0.7427 -0.7109
   65MOL   H25724705   1.464   5.407   2.595  0.5868  0.2612  0.1532
   65MOL   H25824706   1.622   5.367   2.638 -1.0122 -1.4727  0.8057
   65MOL   H25924707   1.605   5.249   2.382 -0.8992  0.7479 -0.8136
   65MOL   H26024708   1.420   5.247   2.278 -0.9007  0.6916 -0.1166
   65MOL   H26124709   1.165   5.171   2.361 -0.2534 -0.9809 -0.4138
   65MOL   H26224710   1.305   5.203   2.077  0.7997 -0.8288  0.6420
   65MOL   H26324711   1.137   5.162   2.108  0.1934  0.3330 -0.9623
   65MOL   H26424712   1.199   5.316   2.157 -1.0805  0.0009  0.1406
   65MOL   H26524713   1.313   4.968   2.180 -1.0530 -2.8980 -0.8156
   65MOL   H26624714   1.299   4.942   2.350 -0.7607 -0.4618 -0.0289
   65MOL   H26724715   1.158   4.950   2.255 -0.6522  0.8785 -0.7602
   65MOL   C26824716   1.652   5.144   2.549 -0.2991  0.1434 -0.3067
   65MOL   C26924717   1.740   5.055   2.454 -0.1569  0.3989 -0.6449
   65MOL   C27024718   1.873   5.132   2.416 -0.4499 -0.0243 -0.4341
   65MOL   O27124719   1.959   5.163   2.505  0.0027  0.1712 -0.5852
   65MOL   N27224720   1.899   5.143   2.283 -0.3157  0.2322 -0.1744
   65MOL   C27324721   2.029   5.187   2.227 -0.3334  0.3575  0.4796
   65MOL   C27424722   2.048   5.105   2.099 -0.1138 -0.8829  0.3560
   65MOL   C27524723   2.038   5.337   2.198 -0.1972 -0.5006  1.0582
   65MOL   H27624724   1.733   5.193   2.602 -0.1849  0.1434 -0.4835
   65MOL   H27724725   1.594   5.088   2.623 -0.6066  1.2890  0.3364
   65MOL   H27824726   1.689   5.046   2.358 -0.2192 -2.1485 -0.4188
   65MOL   H27924727   1.837   5.098   2.217  1.1029  0.0580 -1.4082
   65MOL   H28024728   2.115   5.169   2.291 -1.5989  0.7527  2.3307
   65MOL   H28124729   1.999   5.145   2.010 -1.7839 -3.4290  0.0838
   65MOL   H28224730   2.153   5.117   2.068 -0.2061  0.1362  0.3976
   65MOL   H28324731   2.019   5.003   2.122 -0.6466 -1.2451 -1.7505
   65MOL   H28424732   2.071   5.383   2.290  0.0484  2.8493 -0.6421
   65MOL   H28524733   2.096   5.357   2.108  1.4468  1.5646  2.5391
   65MOL   H28624734   1.935   5.371   2.188  0.1845  0.3389 -0.1226
   65MOL   C28724735   1.773   4.911   2.501  0.0183 -0.4994  0.5553
   65MOL   C28824736   1.721   4.796   2.413  0.1095 -0.1006  0.8888
   65MOL   C28924737   1.811   4.788   2.286 -0.1415 -0.3781  0.2602
   65MOL   O29024738   1.788   4.870   2.197 -0.5343 -0.3905 -0.2983
   65MOL   N29124739   1.899   4.682   2.273  0.1523 -0.2879 -0.1400
   65MOL   C29224740   1.988   4.664   2.158 -0.0499 -0.4463 -0.3141
   65MOL   C29324741   2.093   4.555   2.179 -0.2488  0.1726  0.9863
   65MOL   C29424742   1.906   4.643   2.027  0.1542 -0.0139  0.2366
   65MOL   H29524743   1.881   4.901   2.509 -0.0156 -1.6051 -0.2612
   65MOL   H29624744   1.719   4.896   2.595  0.2492 -2.1775  0.4347
   65MOL   H29724745   1.752   4.711   2.472  0.0297 -0.5730  0.2594
   65MOL   H29824746   1.917   4.621   2.352  1.9962  0.0955 -0.2301
   65MOL   H29924747   2.034   4.762   2.145 -0.5950 -0.2161 -0.5506
   65MOL   H30024748   2.050   4.456   2.187  2.2787 -0.9139  1.6426
   65MOL   H30124749   2.145   4.554   2.083  0.5236  1.9570  1.3631
   65MOL   H30224750   2.164   4.563   2.261  0.9345  1.5136 -0.1330
   65MOL   H30324751   1.830   4.713   1.991  2.0606  0.2385 -3.4999
   65MOL   H30424752   1.975   4.618   1.947 -0.6452 -2.6457  0.3121
   65MOL   H30524753   1.849   4.550   2.033  0.3870 -0.4227 -3.0274
   65MOL   C30624754   1.570   4.803   2.395 -0.0086  0.8562  0.0066
   65MOL   C30724755   1.491   4.666   2.403 -0.9468  0.1063 -0.1840
   65MOL   C30824756   1.459   4.613   2.546 -0.5069  0.2773  0.5089
   65MOL   O30924757   1.545   4.569   2.622  0.1777  0.0700 -0.1302
   65MOL   N31024758   1.335   4.615   2.581  1.4434 -0.1571  0.8009
   65MOL   C31124759   1.286   4.570   2.715  0.7688 -0.0147 -0.4334
   65MOL   C31224760   1.169   4.655   2.769  0.1273  0.3298 -0.2020
   65MOL   C31324761   1.256   4.415   2.719 -0.1429 -0.0318  0.1214
   65MOL   H31424762   1.526   4.882   2.455  0.9418  2.3112 -1.2003
   65MOL   H31524763   1.554   4.842   2.295 -1.8001  3.1678  1.1534
   65MOL   H31624764   1.400   4.679   2.345  0.7324  1.6497 -2.5344
   65MOL   H31724765   1.274   4.661   2.515 -0.4121 -2.3186  0.9442
   65MOL   H31824766   1.369   4.582   2.785 -0.1696  0.9041  0.5414
   65MOL   H31924767   1.185   4.763   2.769 -0.1779  0.3759 -0.8741
   65MOL   H32024768   1.138   4.622   2.868 -0.4654 -0.9405 -0.8084
   65MOL   H32124769   1.081   4.629   2.710 -2.1190 -1.1129  3.5665
   65MOL   H32224770   1.336   4.346   2.696 -0.5992 -0.2363 -0.9008
   65MOL   H32324771   1.167   4.384   2.665 -0.7144  0.1265  0.9546
   65MOL   H32424772   1.240   4.378   2.820  3.5424  0.7543  1.0424
   65MOL   C32524773   1.558   4.547   2.329 -0.1570 -0.1425 -0.3102
   65MOL   C32624774   1.494   4.407   2.327 -0.0413  0.4477  0.6719
   65MOL   C32724775   1.367   4.413   2.244 -0.3748  0.2767 -0.3431
   65MOL   O32824776   1.374   4.396   2.121  0.1383  0.5517  0.9788
   65MOL   N32924777   1.251   4.445   2.301  0.0742  0.1788  0.0634
   65MOL   C33024778   1.121   4.465   2.246  0.3284 -0.1209 -0.3713
   65MOL   C33124779   1.080   4.612   2.234  0.7435 -0.0091  0.1242
   65MOL   C33224780   1.018   4.388   2.325  0.0729  0.1583 -0.0017
   65MOL   H33324781   1.661   4.541   2.363  0.0158 -0.9161 -0.9321
   65MOL   H33424782   1.557   4.587   2.227  0.8339 -0.4615 -0.4546
   65MOL   H33524783   1.444   4.387   2.422 -0.5107 -0.3607  0.2598
   65MOL   H33624784   1.252   4.485   2.394 -3.5892 -1.1814  0.8022
   65MOL   H33724785   1.113   4.422   2.146 -2.7360  1.1056 -0.7336
   65MOL   H33824786   1.167   4.666   2.196  1.7372 -1.5004  0.2278
   65MOL   H33924787   0.994   4.628   2.170  0.4195  0.3626  0.6461
   65MOL   H34024788   1.054   4.666   2.325 -1.6660  0.5984 -0.9062
   65MOL   H34124789   0.918   4.399   2.284  0.0465  0.2691  0.0925
   65MOL   H34224790   1.010   4.414   2.431 -0.4874  1.4704 -0.3714
   65MOL   H34324791   1.039   4.281   2.328  0.6018  0.2674  0.2985
   65MOL   C34424792   1.591   4.291   2.296  0.2262  0.4688  0.3205
   65MOL   C34524793   1.697   4.282   2.397  0.0015  0.2664 -0.2177
   65MOL   C34624794   1.677   4.159   2.485  0.0444  0.4822 -0.2305
   65MOL   O34724795   1.695   4.046   2.442 -0.1154 -0.4153 -0.2753
   65MOL   N34824796   1.655   4.170   2.615  0.6179  0.1245  0.0732
   65MOL   C34924797   1.633   4.058   2.706 -0.3792  0.3055 -0.2879
   65MOL   C35024798   1.734   4.053   2.815 -0.0314 -0.4089  0.0754
   65MOL   C35124799   1.487   4.062   2.761 -0.5314  0.3233 -0.1571
   65MOL   H35224800   1.637   4.308   2.198 -2.3457  2.1133 -0.6438
   65MOL   H35324801   1.533   4.200   2.279  1.2523 -0.1032 -0.1960
   65MOL   H35424802   1.681   4.367   2.464  2.5685 -0.5194  1.4667
   65MOL   H35524803   1.632   4.261   2.651 -1.0873 -0.6729  1.0705
   65MOL   H35624804   1.642   3.959   2.662 -0.8365 -0.6416  1.7102
   65MOL   H35724805   1.824   4.028   2.759 -0.2654  0.7289 -0.8181
   65MOL   H35824806   1.742   4.144   2.874  0.8597 -0.5453  0.1651
   65MOL   H35924807   1.723   3.979   2.895  1.5644  1.7645  2.3822
   65MOL   H36024808   1.453   3.985   2.830  0.4528 -0.9864 -1.1083
   65MOL   H36124809   1.452   4.159   2.796 -1.3955 -0.5170  1.3560
   65MOL   H36224810   1.422   4.053   2.674  2.1922  0.7251 -2.2997
   65MOL   C36324811   1.837   4.282   2.327  0.4000  0.1313  0.5131
   65MOL   C36424812   1.955   4.268   2.425  0.2133  0.5746 -0.2456
   65MOL   C36524813   1.975   4.396   2.512  0.8050  0.5301 -0.0741
   65MOL   O36624814   1.995   4.505   2.460  0.2539  0.2472 -0.0380
   65MOL   N36724815   1.956   4.376   2.643  0.1442 -0.0151 -0.7994
   65MOL   C36824816   1.968   4.474   2.753  0.3482 -0.2308 -0.7563
   65MOL   C36924817   1.879   4.604   2.748 -0.0678  0.2334  0.2023
   65MOL   C37024818   1.948   4.395   2.878 -0.5182  0.3735  0.2165
   65MOL   H37124819   1.847   4.374   2.269 -3.5677  0.2969 -0.0429
   65MOL   H37224820   1.840   4.192   2.266 -3.5193 -0.2220  0.6732
   65MOL   H37324821   2.036   4.248   2.355  1.0050  2.2443  0.1790
   65MOL   H37424822   1.949   4.280   2.675  2.2485  0.1813  0.3708
   65MOL   H37524823   2.068   4.516   2.750  0.2926 -0.1612 -2.0405
   65MOL   H37624824   1.922   4.693   2.702 -2.2512  1.8949  1.2628
   65MOL   H37724825   1.780   4.596   2.702 -0.9038  3.7234  1.2101
   65MOL   H37824826   1.848   4.643   2.845 -1.1826  1.3395 -0.5886
   65MOL   H37924827   1.843   4.367   2.888  0.3280 -2.8660  0.7268
   65MOL   H38024828   2.012   4.307   2.882 -0.2030  0.6739  2.2305
   65MOL   H38124829   1.965   4.454   2.968 -0.2037  0.0084  0.3976
   65MOL   H38224830   1.930   4.175   2.476 -2.3189  0.5590 -1.4156
   66MOL     C124831   3.629   2.695   6.472  0.4003  0.2331  0.2068
   66MOL     C224832   3.517   2.791   6.429  0.3609 -0.3626 -0.5325
   66MOL     C324833   3.389   2.725   6.380  0.2946  0.4697  0.4886
   66MOL     O424834   3.317   2.664   6.466  0.2800 -0.1169 -0.0156
   66MOL     N524835   3.370   2.714   6.246  0.2434  0.8886  0.4135
   66MOL     C624836   3.254   2.662   6.178 -0.0071  0.9598 -0.5077
   66MOL     C724837   3.216   2.772   6.073  0.1370  0.6515 -0.4676
   66MOL     C824838   3.283   2.526   6.108 -0.3928  0.2086  0.3806
   66MOL     H924839   3.593   2.625   6.547 -0.0279  0.5821  0.3341
   66MOL    H1024840   3.716   2.744   6.516  0.2864 -1.1685  2.0393
   66MOL    H1124841   3.562   2.855   6.353 -0.6334  0.8715 -0.0897
   66MOL    H1224842   3.451   2.738   6.191  0.3768  0.1814  0.2999
   66MOL    H1324843   3.166   2.658   6.242 -1.4690  0.0711 -2.4956
   66MOL    H1424844   3.290   2.770   5.993 -0.1386 -1.2036 -0.7131
   66MOL    H1524845   3.221   2.870   6.120 -1.3235  0.0181  1.0611
   66MOL    H1624846   3.115   2.770   6.033 -0.2318  1.5052  0.4149
   66MOL    H1724847   3.384   2.520   6.068  0.8343 -1.6026  3.6009
   66MOL    H1824848   3.269   2.447   6.181  1.7096 -0.2532  0.2978
   66MOL    H1924849   3.215   2.500   6.027 -0.7004  0.3259  0.5966
   66MOL    H2024850   3.677   2.654   6.384 -0.6917 -0.3089 -0.1458
   66MOL    C2124851   3.481   2.893   6.542  0.1648 -0.0628 -0.2685
   66MOL    C2224852   3.371   2.997   6.507 -0.3008  0.4263  0.2037
   66MOL    C2324853   3.430   3.101   6.412  0.0485 -0.3502  0.7057
   66MOL    O2424854   3.551   3.123   6.417  0.0494 -0.4077 -0.6311
   66MOL    N2524855   3.345   3.158   6.320 -0.2163  0.1164 -0.2074
   66MOL    C2624856   3.398   3.251   6.223 -0.3274 -0.0470 -0.3840
   66MOL    C2724857   3.413   3.389   6.278 -0.8638 -0.0185 -0.1873
   66MOL    C2824858   3.315   3.250   6.093 -0.0472  0.3414  0.4846
   66MOL    H2924859   3.574   2.939   6.577  0.1837 -1.5508  1.7121
   66MOL    H3024860   3.445   2.835   6.627  0.5271  0.1087  0.0012
   66MOL    H3124861   3.285   2.948   6.460  0.5881 -0.6535 -0.3157
   66MOL    H3224862   3.249   3.128   6.320 -0.1376 -0.1896 -2.6089
   66MOL    H3324863   3.494   3.211   6.190 -0.0683  0.8138 -0.6713
   66MOL    H3424864   3.494   3.392   6.351 -1.5270 -1.1613  0.6141
   66MOL    H3524865   3.325   3.434   6.324 -0.7837  2.2165 -2.1056
   66MOL    H3624866   3.438   3.467   6.206  0.2043 -1.3393 -1.2616
   66MOL    H3724867   3.367   3.301   6.011  0.5679 -1.6086 -0.3777
   66MOL    H3824868   3.305   3.144   6.072 -0.6651 -0.0138  2.4681
   66MOL    H3924869   3.219   3.300   6.106  1.3612  2.8704  1.4800
   66MOL    C4024870   3.328   3.067   6.647 -0.3344 -0.1794  0.4540
   66MOL    C4124871   3.201   3.148   6.614  0.2793  0.0628 -0.1980
   66MOL    C4224872   3.215   3.299   6.633  0.4568  0.1423  1.0689
   66MOL    O4324873   3.152   3.375   6.559  0.1782 -0.0637  0.3884
   66MOL    N4424874   3.292   3.338   6.732 -0.5017 -0.0286 -0.3899
   66MOL    C4524875   3.324   3.477   6.769  0.3869 -0.3019  0.2018
   66MOL    C4624876   3.304   3.498   6.918  0.4061 -0.4849  0.6198
   66MOL    C4724877   3.468   3.521   6.729  0.4069 -0.3108  0.2609
   66MOL    H4824878   3.411   3.126   6.688 -1.6102  2.5853 -0.7833
   66MOL    H4924879   3.318   2.999   6.732 -1.7626  0.1220  0.5417
   66MOL    H5024880   3.185   3.142   6.506  0.9360 -0.3721 -0.2711
   66MOL    H5124881   3.337   3.277   6.798  1.0390  1.0010 -0.4819
   66MOL    H5224882   3.243   3.531   6.720  0.0214 -0.5337  0.5474
   66MOL    H5324883   3.212   3.445   6.945 -0.2752  0.2671 -0.1621
   66MOL    H5424884   3.291   3.604   6.940  0.7562 -1.0730  3.7681
   66MOL    H5524885   3.380   3.467   6.989  0.8958  0.8009  0.6708
   66MOL    H5624886   3.552   3.462   6.765  1.8593  0.2406 -2.1089
   66MOL    H5724887   3.485   3.625   6.759 -0.0768 -0.1007 -0.1829
   66MOL    H5824888   3.473   3.519   6.620  1.9391  0.8091  0.2858
   66MOL    C5924889   3.080   3.091   6.678  0.6951  0.0608 -0.2325
   66MOL    C6024890   2.959   3.085   6.575 -0.7497  0.2469  0.7023
   66MOL    C6124891   2.816   3.136   6.611 -0.1586  0.4753  0.4425
   66MOL    O6224892   2.737   3.170   6.527 -0.4592 -0.2217  0.1130
   66MOL    N6324893   2.767   3.107   6.729  0.9554  0.3402 -0.4697
   66MOL    C6424894   2.629   3.115   6.774  0.0881  0.4490  0.9449
   66MOL    C6524895   2.563   2.977   6.746  0.0879 -0.1335 -0.0033
   66MOL    C6624896   2.631   3.144   6.930  0.2541  0.7488 -0.2574
   66MOL    H6724897   3.113   3.000   6.728 -1.8889  1.1796  3.7115
   66MOL    H6824898   3.049   3.154   6.761 -1.3798 -1.3586  0.1215
   66MOL    H6924899   2.977   3.161   6.499 -0.2013 -1.6246 -1.0793
   66MOL    H7024900   2.835   3.078   6.798  1.4674 -1.5114 -1.7253
   66MOL    H7124901   2.583   3.201   6.725 -0.7407 -0.1385  0.6839
   66MOL    H7224902   2.579   2.955   6.640  0.0209 -2.2532  0.3965
   66MOL    H7324903   2.612   2.891   6.792  1.6416  1.1929  0.8371
   66MOL    H7424904   2.457   2.975   6.770  0.3786 -1.0607  1.2801
   66MOL    H7524905   2.683   3.065   6.985  1.5124  2.2120  0.6902
   66MOL    H7624906   2.692   3.233   6.939  1.8168  0.0272 -3.2257
   66MOL    H7724907   2.530   3.163   6.966 -0.5856  0.7405 -2.4985
   66MOL    C7824908   2.948   2.949   6.499  0.3643  0.2025 -0.1126
   66MOL    C7924909   2.884   2.955   6.355  0.2678  0.1227  0.0701
   66MOL    C8024910   2.942   3.068   6.266 -0.1232  0.0222 -0.5185
   66MOL    O8124911   3.053   3.061   6.214  0.9176 -0.4113  0.2052
   66MOL    N8224912   2.858   3.167   6.243  0.1444 -0.5237  0.2538
   66MOL    C8324913   2.896   3.289   6.176 -0.5589 -0.4189  0.7305
   66MOL    C8424914   2.775   3.358   6.112  0.2846  0.1981 -0.4132
   66MOL    C8524915   2.963   3.385   6.280 -0.3989 -1.2152  0.1854
   66MOL    H8624916   2.895   2.863   6.540 -0.0710  0.3422 -0.3801
   66MOL    H8724917   3.048   2.912   6.475  0.0040 -0.0443 -1.2667
   66MOL    H8824918   2.776   2.965   6.364  0.3495  0.9342  0.1958
   66MOL    H8924919   2.772   3.162   6.297  1.1085  0.0846  1.8668
   66MOL    H9024920   2.967   3.270   6.095  2.0062  1.3914  2.4676
   66MOL    H9124921   2.727   3.287   6.045  1.9584  1.6393 -3.2510
   66MOL    H9224922   2.704   3.392   6.187  0.5063 -0.5703  0.1502
   66MOL    H9324923   2.803   3.449   6.059  1.4167 -0.2723 -0.6517
   66MOL    H9424924   3.068   3.355   6.287 -0.5064 -1.4176  1.0213
   66MOL    H9524925   2.916   3.385   6.378  2.0997 -1.9164  1.4428
   66MOL    H9624926   2.958   3.490   6.252 -0.9565 -1.6335 -1.3450
   66MOL    C9724927   2.899   2.814   6.288  0.1374 -0.1138  0.3804
   66MOL    C9824928   2.844   2.796   6.143  0.9504  0.3967 -0.1517
   66MOL    C9924929   2.699   2.833   6.125 -0.1149  0.7988 -0.0329
   66MOL   O10024930   2.678   2.922   6.039  0.1064  0.2415  0.1664
   66MOL   N10124931   2.603   2.765   6.194  0.0377 -0.4703 -0.0664
   66MOL   C10224932   2.462   2.805   6.190 -0.8025 -0.1211 -0.0872
   66MOL   C10324933   2.379   2.681   6.212  0.4617  1.1273  0.5143
   66MOL   C10424934   2.435   2.915   6.291  0.0697 -0.7579 -0.3088
   66MOL   H10524935   2.839   2.737   6.335 -0.6413 -1.3123 -2.4991
   66MOL   H10624936   3.007   2.798   6.294  0.2008  0.4006  0.6428
   66MOL   H10724937   2.898   2.873   6.088  2.2527 -1.6658 -1.8228
   66MOL   H10824938   2.624   2.688   6.256  0.7827 -1.3598 -1.3894
   66MOL   H10924939   2.453   2.831   6.085 -1.6109 -0.9535 -0.2255
   66MOL   H11024940   2.389   2.642   6.313  1.8172  0.1264  0.0096
   66MOL   H11124941   2.276   2.703   6.185  0.1741 -0.3142  0.4151
   66MOL   H11224942   2.423   2.611   6.141  1.8487  0.8884  1.5906
   66MOL   H11324943   2.452   2.880   6.392 -0.0180 -1.3781 -0.5089
   66MOL   H11424944   2.336   2.961   6.284  0.5591  0.4773  0.6381
   66MOL   H11524945   2.494   3.007   6.281 -0.2117 -0.6246 -0.7802
   66MOL   C11624946   2.865   2.670   6.067 -0.1493 -0.1648 -1.0429
   66MOL   C11724947   2.834   2.679   5.917  0.0546  0.0221  0.1577
   66MOL   C11824948   2.696   2.605   5.887  0.1467 -0.3245  0.2189
   66MOL   O11924949   2.686   2.481   5.902 -0.3754 -0.1514 -0.2264
   66MOL   N12024950   2.588   2.679   5.842 -0.0800  0.2370 -1.0517
   66MOL   C12124951   2.460   2.621   5.796 -0.0475 -1.1387 -0.5287
   66MOL   C12224952   2.352   2.734   5.775 -0.3659 -0.8189  0.0268
   66MOL   C12324953   2.476   2.534   5.666 -0.0916 -0.5899  0.5879
   66MOL   H12424954   2.807   2.592   6.116 -0.5775  1.3934  1.0243
   66MOL   H12524955   2.967   2.638   6.083  0.1413  0.8435 -0.8344
   66MOL   H12624956   2.816   2.784   5.890 -2.9537 -0.5801 -0.3008
   66MOL   H12724957   2.607   2.778   5.841  1.3834  0.0045  1.1476
   66MOL   H12824958   2.415   2.550   5.865 -0.5025 -1.9309 -1.6084
   66MOL   H12924959   2.362   2.798   5.687 -1.5725 -0.8855 -0.1670
   66MOL   H13024960   2.342   2.800   5.861 -1.4697  2.9300 -2.8352
   66MOL   H13124961   2.253   2.690   5.767 -0.6361 -0.3633  0.7879
   66MOL   H13224962   2.522   2.597   5.590  0.7222  0.3309  1.8204
   66MOL   H13324963   2.548   2.455   5.690 -1.2057 -0.9796  2.7402
   66MOL   H13424964   2.382   2.496   5.626 -0.3370  1.5810 -0.9624
   66MOL   C13524965   2.946   2.626   5.821 -0.8597  0.2751  0.0342
   66MOL   C13624966   2.978   2.711   5.693  0.6553 -0.5833  0.5196
   66MOL   C13724967   3.078   2.818   5.722 -0.0372  0.1543 -0.2442
   66MOL   O13824968   3.193   2.781   5.727  0.7184  0.1004 -0.3497
   66MOL   N13924969   3.037   2.943   5.754  0.8037 -0.6873  0.6246
   66MOL   C14024970   3.119   3.060   5.766 -0.0101 -0.0068 -0.4320
   66MOL   C14124971   3.065   3.146   5.880 -0.4463  0.6280  0.2251
   66MOL   C14224972   3.125   3.142   5.633  0.2449  0.6824 -0.2455
   66MOL   H14324973   2.925   2.525   5.786  2.2218 -1.3697  2.6214
   66MOL   H14424974   3.037   2.598   5.875 -0.5428 -1.3685 -1.3126
   66MOL   H14524975   2.889   2.767   5.665  1.2309 -0.2651 -0.7056
   66MOL   H14624976   2.939   2.963   5.740  0.6913 -1.1526  0.7509
   66MOL   H14724977   3.219   3.029   5.796 -0.7898 -0.6253  1.5828
   66MOL   H14824978   3.045   3.091   5.972 -1.5804  1.8606  0.7351
   66MOL   H14924979   3.137   3.227   5.890 -0.2131  0.8246 -2.6990
   66MOL   H15024980   2.973   3.193   5.844  0.6982  1.9394 -1.0879
   66MOL   H15124981   3.214   3.205   5.627  0.5766  0.5286  2.3738
   66MOL   H15224982   3.035   3.200   5.613 -1.4314 -0.6234  3.0524
   66MOL   H15324983   3.146   3.074   5.550 -0.2120 -2.0830  1.8259
   66MOL   C15424984   3.001   2.616   5.567 -0.4575  0.3007  0.2755
   66MOL   C15524985   3.041   2.679   5.432 -0.2008 -0.1137  0.0613
   66MOL   C15624986   2.931   2.771   5.381 -0.9128  0.3694 -0.9373
   66MOL   O15724987   2.945   2.891   5.390  0.0729 -0.5601 -0.4727
   66MOL   N15824988   2.819   2.720   5.319  0.3587 -0.0327 -0.3013
   66MOL   C15924989   2.702   2.786   5.268 -0.0509  0.5105 -0.9348
   66MOL   C16024990   2.596   2.679   5.255 -0.2178 -0.1961  0.7263
   66MOL   C16124991   2.736   2.842   5.122  0.2461  0.4749  0.2300
   66MOL   H16224992   2.913   2.554   5.556  0.9065 -1.4184 -1.2982
   66MOL   H16324993   3.079   2.542   5.584 -1.1568 -0.1551  1.6166
   66MOL   H16424994   3.130   2.740   5.450 -1.5319  1.7329  0.6148
   66MOL   H16524995   2.811   2.619   5.322 -1.3086  0.1387  1.8484
   66MOL   H16624996   2.668   2.857   5.343 -0.7456 -1.0774  0.2797
   66MOL   H16724997   2.494   2.711   5.234  0.3167  1.2789  0.2912
   66MOL   H16824998   2.617   2.614   5.170  2.1004  2.9947 -1.2578
   66MOL   H16924999   2.587   2.620   5.346  0.8835 -1.5066  0.0037
   66MOL   H17025000   2.656   2.898   5.075  0.2083  0.4167  0.2252
   66MOL   H17125001   2.763   2.758   5.057  1.0909 -0.0669  1.2662
   66MOL   H17225002   2.826   2.903   5.119  2.2535 -2.4203 -0.4537
   66MOL   C17325003   3.060   2.567   5.326 -0.3828  0.6151  0.4189
   66MOL   C17425004   3.126   2.613   5.195  0.3633  0.4888 -0.0741
   66MOL   C17525005   3.274   2.587   5.197 -0.3737 -0.2758 -0.1438
   66MOL   O17625006   3.318   2.472   5.174  0.2266  1.0173 -0.4316
   66MOL   N17725007   3.358   2.686   5.212  0.0900 -0.4322  0.1877
   66MOL   C17825008   3.505   2.668   5.220 -0.1645  0.1897 -0.5486
   66MOL   C17925009   3.548   2.617   5.358 -0.0238 -0.5024  0.3140
   66MOL   C18025010   3.573   2.803   5.199 -0.0191 -0.3839  0.0200
   66MOL   H18125011   2.968   2.510   5.318  0.2365 -0.6894  2.4622
   66MOL   H18225012   3.125   2.494   5.374 -1.0259 -0.9361 -1.0319
   66MOL   H18325013   3.105   2.719   5.177 -0.0798  0.3108 -0.6217
   66MOL   H18425014   3.320   2.779   5.213  0.0317 -0.4111 -2.0700
   66MOL   H18525015   3.538   2.608   5.136  0.1602  0.2091 -0.4353
   66MOL   H18625016   3.650   2.587   5.380  0.5275 -0.4245 -2.0377
   66MOL   H18725017   3.493   2.524   5.373 -0.2984 -0.6651 -1.5305
   66MOL   H18825018   3.519   2.687   5.436  0.8021 -2.4786  2.4570
   66MOL   H18925019   3.681   2.785   5.196 -0.1231 -1.4178  1.7544
   66MOL   H19025020   3.560   2.867   5.286  1.6191  2.5473 -1.8041
   66MOL   H19125021   3.546   2.848   5.103  0.8250 -1.6964 -0.8619
   66MOL   C19225022   3.059   2.532   5.079  0.1450  0.5606  0.4765
   66MOL   C19325023   3.089   2.560   4.932  0.2810  0.0509  0.2145
   66MOL   C19425024   3.051   2.703   4.899 -0.6404  0.4413 -0.0951
   66MOL   O19525025   2.942   2.722   4.846  0.5018 -0.5359  0.3303
   66MOL   N19625026   3.147   2.799   4.928  0.3743  0.4838  0.3132
   66MOL   C19725027   3.127   2.945   4.923  0.2936  0.1358  0.1920
   66MOL   C19825028   3.198   3.013   5.034 -0.1134  0.1371  0.3910
   66MOL   C19925029   3.161   2.998   4.788 -0.0224 -0.6767 -0.6887
   66MOL   H20025030   2.952   2.544   5.097 -0.3466 -0.9216 -1.3034
   66MOL   H20125031   3.072   2.426   5.099  0.1433  0.4408 -0.1391
   66MOL   H20225032   3.197   2.558   4.915  0.6074  0.3091  2.0775
   66MOL   H20325033   3.242   2.765   4.934  0.5850  0.8403 -0.8044
   66MOL   H20425034   3.021   2.961   4.946 -0.0532 -0.8872 -0.6512
   66MOL   H20525035   3.124   3.031   5.112  0.0884  4.4125 -0.3265
   66MOL   H20625036   3.233   3.114   5.013  1.9162 -0.5698  0.3050
   66MOL   H20725037   3.283   2.957   5.074 -0.3602  0.0253  0.7542
   66MOL   H20825038   3.153   3.106   4.796 -1.5752 -0.9432  1.7765
   66MOL   H20925039   3.086   2.961   4.718 -0.0223 -0.7438 -0.6533
   66MOL   H21025040   3.263   2.971   4.760  0.8065  1.5860 -0.0058
   66MOL   C21125041   3.040   2.459   4.827 -0.0509  0.2423  0.8003
   66MOL   C21225042   2.887   2.429   4.829  0.0377 -0.4501  0.7188
   66MOL   C21325043   2.837   2.431   4.685 -0.0524 -0.3000  0.6933
   66MOL   O21425044   2.806   2.332   4.625  0.1386  0.1288 -0.2191
   66MOL   N21525045   2.829   2.552   4.635 -0.3907  0.2571  0.3734
   66MOL   C21625046   2.783   2.610   4.505  0.0364  0.0377 -0.4407
   66MOL   C21725047   2.630   2.577   4.495 -0.3777 -0.3184  0.0709
   66MOL   C21825048   2.868   2.555   4.385  0.2311 -0.0608 -0.4919
   66MOL   H21925049   3.105   2.372   4.833  1.6748  1.5486  1.4740
   66MOL   H22025050   3.084   2.491   4.732 -0.0572  0.6708  0.9383
   66MOL   H22125051   2.846   2.500   4.901 -1.8764 -2.6977  1.8985
   66MOL   H22225052   2.859   2.625   4.697 -2.7211  0.1174  1.7009
   66MOL   H22325053   2.796   2.718   4.510 -0.0264  0.0621 -0.8161
   66MOL   H22425054   2.619   2.476   4.455 -1.3699 -0.9297  1.8906
   66MOL   H22525055   2.580   2.584   4.591 -0.7605 -1.8955 -0.0050
   66MOL   H22625056   2.587   2.656   4.432 -0.5238  0.3924  1.0496
   66MOL   H22725057   2.869   2.447   4.374 -1.2564 -0.0170 -1.1293
   66MOL   H22825058   2.971   2.592   4.393  0.1444  0.0708  0.1077
   66MOL   H22925059   2.817   2.589   4.295  1.8609  1.5523 -0.8346
   66MOL   C23025060   2.860   2.298   4.907  0.0792 -0.1028 -0.0435
   66MOL   C23125061   2.716   2.241   4.936 -0.1248 -0.5695 -0.0647
   66MOL   C23225062   2.690   2.103   4.866 -0.5782 -0.5255  0.4519
   66MOL   O23325063   2.646   2.007   4.927  0.3521 -0.0276 -0.3230
   66MOL   N23425064   2.701   2.104   4.731 -0.2745 -0.4720  0.0616
   66MOL   C23525065   2.677   1.993   4.643  0.4345 -0.0009  0.7746
   66MOL   C23625066   2.530   1.959   4.612  0.0153 -0.6026 -0.8977
   66MOL   C23725067   2.770   2.012   4.512  0.4755 -0.8877  0.8280
   66MOL   H23825068   2.917   2.311   4.999 -0.9807 -1.9238  0.9000
   66MOL   H23925069   2.915   2.209   4.876 -2.4378 -1.8856  0.4920
   66MOL   H24025070   2.650   2.313   4.887  1.4753  1.3305  0.4968
   66MOL   H24125071   2.724   2.192   4.689 -0.4880 -0.7005 -0.5369
   66MOL   H24225072   2.718   1.904   4.691 -0.0818  0.0349  1.2808
   66MOL   H24325073   2.523   1.881   4.536  1.7819 -2.6320  0.9487
   66MOL   H24425074   2.483   1.931   4.707 -0.6918  1.6064 -0.5670
   66MOL   H24525075   2.474   2.038   4.561 -0.6102 -1.8256 -2.1417
   66MOL   H24625076   2.864   2.058   4.541  0.3122  0.8678 -1.3474
   66MOL   H24725077   2.719   2.081   4.445  3.2490  2.2329  1.8242
   66MOL   H24825078   2.785   1.915   4.463 -0.4150 -0.8487  0.4581
   66MOL   C24925079   2.684   2.238   5.092  0.0861  0.1161  0.1282
   66MOL   C25025080   2.541   2.199   5.145 -0.0251 -0.6911  0.2282
   66MOL   C25125081   2.427   2.251   5.061 -0.7323  0.2464 -0.2345
   66MOL   O25225082   2.417   2.373   5.035 -0.2049  0.0497  0.1209
   66MOL   N25325083   2.345   2.156   5.022 -0.1305 -0.2707 -0.0605
   66MOL   C25425084   2.229   2.171   4.932  0.7054 -0.7739  0.0803
   66MOL   C25525085   2.233   2.055   4.834 -0.0110  0.1803  0.3815
   66MOL   C25625086   2.100   2.164   5.019 -0.4181 -0.0512 -0.3825
   66MOL   H25725087   2.705   2.339   5.126 -1.5779  0.2130  0.9199
   66MOL   H25825088   2.749   2.163   5.138  1.0545  0.0086 -1.4019
   66MOL   H25925089   2.544   2.091   5.134  0.8085 -0.5189 -1.4099
   66MOL   H26025090   2.367   2.060   5.042  0.7897 -0.3924 -1.5930
   66MOL   H26125091   2.242   2.268   4.884  0.4415 -0.8720 -0.1883
   66MOL   H26225092   2.143   2.064   4.773  1.1034 -1.5775 -1.6063
   66MOL   H26325093   2.316   2.073   4.766 -1.9002  1.5910 -1.5914
   66MOL   H26425094   2.229   1.951   4.868  1.0149 -0.6298 -1.8721
   66MOL   H26525095   2.086   2.243   5.093  0.8794  0.9940 -1.2175
   66MOL   H26625096   2.013   2.169   4.954 -1.7750 -1.5885  1.2584
   66MOL   H26725097   2.107   2.070   5.074 -1.9019  0.1469  0.1603
   66MOL   C26825098   2.518   2.240   5.291 -0.3707  0.3028 -0.9764
   66MOL   C26925099   2.606   2.171   5.407  0.4286  0.1237  0.3586
   66MOL   C27025100   2.742   2.245   5.423  0.9102  0.6963 -0.4280
   66MOL   O27125101   2.743   2.365   5.422  1.3511  0.0988  0.3233
   66MOL   N27225102   2.849   2.169   5.435  0.4154 -0.1558 -0.1873
   66MOL   C27325103   2.984   2.207   5.454  0.4593  0.3884 -1.0566
   66MOL   C27425104   3.054   2.111   5.554 -0.7012  1.0775  0.1028
   66MOL   C27525105   3.065   2.229   5.333  0.2554 -0.3513 -0.1610
   66MOL   H27625106   2.483   2.342   5.306  1.8403  0.9703 -0.2079
   66MOL   H27725107   2.419   2.197   5.303 -0.1230 -0.9253 -3.1113
   66MOL   H27825108   2.630   2.068   5.379 -1.9045  0.1297 -1.8735
   66MOL   H27925109   2.828   2.070   5.425  3.4565 -0.9215  0.4646
   66MOL   H28025110   2.988   2.298   5.516  0.4139 -1.4581  1.7623
   66MOL   H28125111   3.111   2.170   5.626  1.3292 -1.5191  0.6852
   66MOL   H28225112   2.976   2.075   5.620 -1.2366  1.8058 -0.1318
   66MOL   H28325113   3.109   2.032   5.502 -1.3278  0.9712 -0.4060
   66MOL   H28425114   3.115   2.144   5.286  0.4512 -0.0692 -0.4619
   66MOL   H28525115   3.001   2.288   5.269 -0.5018  0.9621  1.7458
   66MOL   H28625116   3.153   2.291   5.350 -0.4703  0.3371  1.2400
   66MOL   C28725117   2.522   2.168   5.532  0.6588  0.2878  0.4039
   66MOL   C28825118   2.578   2.093   5.660 -0.5710  0.4391 -0.4779
   66MOL   C28925119   2.606   1.941   5.640  0.0347  0.3671  0.2453
   66MOL   O29025120   2.514   1.869   5.602  0.5364  0.1426  0.9066
   66MOL   N29125121   2.735   1.900   5.645  0.4535  0.3852  0.3588
   66MOL   C29225122   2.768   1.761   5.605 -0.0083 -0.0841  0.4807
   66MOL   C29325123   2.914   1.748   5.567 -0.0674 -0.4599 -0.1887
   66MOL   C29425124   2.722   1.649   5.695 -0.8334  0.3710  0.5224
   66MOL   H29525125   2.483   2.268   5.550 -1.3180 -0.3652 -0.0549
   66MOL   H29625126   2.432   2.108   5.513  0.2069  1.2421 -0.4994
   66MOL   H29725127   2.667   2.148   5.691 -0.1618 -1.5670  2.0754
   66MOL   H29825128   2.816   1.959   5.652  1.0383 -0.4442  0.6855
   66MOL   H29925129   2.711   1.747   5.514 -0.8665  0.2470  0.9602
   66MOL   H30025130   2.955   1.832   5.512  1.0011 -1.0952 -0.3779
   66MOL   H30125131   2.979   1.732   5.653  2.2468 -0.5548 -1.9189
   66MOL   H30225132   2.922   1.668   5.493 -2.1133  0.8418 -1.8841
   66MOL   H30325133   2.748   1.679   5.796 -0.4326  3.5077 -0.4571
   66MOL   H30425134   2.614   1.650   5.709 -0.7911  1.3598  0.8012
   66MOL   H30525135   2.771   1.552   5.681  1.5399  1.2905  2.1560
   66MOL   C30625136   2.488   2.111   5.781 -0.2823  0.4698 -0.2204
   66MOL   C30725137   2.557   2.094   5.922  0.3226 -0.0140  0.3578
   66MOL   C30825138   2.551   1.946   5.974 -0.5003  0.1794 -0.5958
   66MOL   O30925139   2.441   1.888   5.981  0.5321  0.2094 -0.5507
   66MOL   N31025140   2.669   1.890   6.004 -0.1076  0.2009 -0.5249
   66MOL   C31125141   2.681   1.761   6.079 -0.4296 -0.2125  0.0692
   66MOL   C31225142   2.828   1.742   6.105 -0.1394 -0.4091  0.1117
   66MOL   C31325143   2.597   1.748   6.211  0.3144  0.4559 -0.0215
   66MOL   H31425144   2.457   2.215   5.781 -0.4739  0.4112  0.3116
   66MOL   H31525145   2.394   2.058   5.770 -1.2539  1.9005  1.0470
   66MOL   H31625146   2.664   2.113   5.909  0.6196 -0.8212  1.5684
   66MOL   H31725147   2.753   1.943   5.984  0.1306 -0.2843 -0.8182
   66MOL   H31825148   2.653   1.688   6.003 -0.4649 -0.3023  0.1688
   66MOL   H31925149   2.852   1.639   6.130 -0.0805 -0.0992  1.3770
   66MOL   H32025150   2.858   1.816   6.180 -1.3624 -0.2880  0.4851
   66MOL   H32125151   2.885   1.762   6.014  1.0294 -1.3098  0.6266
   66MOL   H32225152   2.494   1.734   6.176 -0.3459  4.0758  0.2635
   66MOL   H32325153   2.607   1.836   6.275  2.6894  0.2244 -0.0312
   66MOL   H32425154   2.623   1.662   6.273  0.7740  1.9409  1.9236
   66MOL   C32525155   2.510   2.192   6.031  0.3674  0.1163 -0.3682
   66MOL   C32625156   2.578   2.192   6.176 -0.1134  0.1463  0.2273
   66MOL   C32725157   2.731   2.181   6.163  0.3738  0.2380 -0.5573
   66MOL   O32825158   2.787   2.084   6.205  0.4997 -0.3793 -0.1564
   66MOL   N32925159   2.797   2.278   6.096  0.4353  0.2947 -0.0389
   66MOL   C33025160   2.933   2.286   6.046 -0.9483  0.5191  0.6062
   66MOL   C33125161   2.936   2.232   5.900  0.8003 -0.0381 -0.0340
   66MOL   C33225162   3.038   2.214   6.135 -0.7077  1.3725 -0.5327
   66MOL   H33325163   2.409   2.158   6.055  0.8928 -0.9304  0.3828
   66MOL   H33425164   2.508   2.294   5.992 -1.0140  0.9984  1.9230
   66MOL   H33525165   2.542   2.105   6.230  4.0363 -0.6407  1.9512
   66MOL   H33625166   2.744   2.345   6.042 -0.7247 -0.1759  0.5167
   66MOL   H33725167   2.951   2.393   6.043 -0.7163  0.4288 -2.5658
   66MOL   H33825168   3.037   2.246   5.861  0.1793 -1.0243 -2.0654
   66MOL   H33925169   2.918   2.124   5.895  0.2323 -0.0826  2.4501
   66MOL   H34025170   2.866   2.285   5.836  0.4539 -0.5861 -0.1183
   66MOL   H34125171   3.029   2.241   6.240 -0.1280 -3.0407  0.7670
   66MOL   H34225172   3.140   2.241   6.108 -0.1488  0.7969  0.9690
   66MOL   H34325173   3.032   2.105   6.132 -0.2372  1.3212  0.3610
   66MOL   C34425174   2.535   2.304   6.274  0.5672 -0.7436  0.2466
   66MOL   C34525175   2.598   2.308   6.412 -0.5292 -0.3529 -0.3133
   66MOL   C34625176   2.563   2.453   6.461 -0.0092  0.1517  0.2744
   66MOL   O34725177   2.625   2.548   6.411  0.3651  0.9731  0.1844
   66MOL   N34825178   2.469   2.476   6.553 -0.1245 -0.1834  0.1042
   66MOL   C34925179   2.422   2.595   6.614  0.0020 -0.2128 -0.3513
   66MOL   C35025180   2.265   2.602   6.604 -0.3116  0.4516 -0.2891
   66MOL   C35125181   2.468   2.611   6.751 -1.2691 -0.0490 -0.2066
   66MOL   H35225182   2.427   2.300   6.292  0.9920  0.7965  3.3762
   66MOL   H35325183   2.558   2.396   6.220 -2.0933  0.8116  1.6554
   66MOL   H35425184   2.707   2.298   6.415 -0.4012  1.2928  1.7639
   66MOL   H35525185   2.427   2.390   6.583  0.6283 -1.1946 -1.6839
   66MOL   H35625186   2.466   2.683   6.567 -0.2082 -0.3598 -0.8350
   66MOL   H35725187   2.218   2.695   6.637  0.5019  1.2305 -1.2551
   66MOL   H35825188   2.239   2.594   6.498 -0.2678  1.0026 -0.3447
   66MOL   H35925189   2.223   2.519   6.660  0.5012  1.8231  2.4554
   66MOL   H36025190   2.575   2.633   6.758 -1.1796  0.2189 -2.2440
   66MOL   H36125191   2.434   2.703   6.798  0.6081  1.5681 -1.9550
   66MOL   H36225192   2.437   2.528   6.815  0.9519 -0.6945  0.0973
   66MOL   C36325193   2.543   2.204   6.506  0.7723  0.6764  0.3337
   66MOL   C36425194   2.620   2.067   6.511 -0.5651 -0.1403  0.2816
   66MOL   C36525195   2.762   2.061   6.565  0.1359  0.3374 -0.3445
   66MOL   O36625196   2.811   2.137   6.648 -0.8067  0.4636 -0.1208
   66MOL   N36725197   2.838   1.962   6.512 -0.3852 -0.1622  0.0556
   66MOL   C36825198   2.976   1.922   6.554  0.4300 -0.6096  0.1464
   66MOL   C36925199   2.971   1.795   6.642 -0.3389 -0.1272 -0.5979
   66MOL   C37025200   3.059   1.907   6.423 -0.3330 -0.6986 -0.0840
   66MOL   H37125201   2.436   2.196   6.488  0.8699  2.8658 -1.5143
   66MOL   H37225202   2.544   2.238   6.609  0.8729 -0.2608  0.6452
   66MOL   H37325203   2.628   2.026   6.410 -1.0041  0.3009  0.0660
   66MOL   H37425204   2.793   1.906   6.441 -1.2569 -1.0928  1.2993
   66MOL   H37525205   3.027   1.993   6.619 -2.1935  0.9104  0.5880
   66MOL   H37625206   2.940   1.823   6.743 -0.6024 -0.7297 -0.5117
   66MOL   H37725207   2.897   1.729   6.596 -0.1550 -0.5672 -0.2597
   66MOL   H37825208   3.060   1.732   6.642 -0.0844  0.2282  0.4545
   66MOL   H37925209   3.007   1.839   6.355  1.3734 -1.8989 -0.2207
   66MOL   H38025210   3.056   2.005   6.375  0.9948 -0.5028  0.2353
   66MOL   H38125211   3.163   1.881   6.440 -0.2804 -1.3081 -1.2360
   66MOL   H38225212   2.554   1.997   6.563 -0.0110 -0.1364  1.0040
   67MOL     C125213   3.127   0.078   7.115 -0.5189  0.2439  0.5290
   67MOL     C225214   3.269   0.049   7.066  0.1035 -0.3771  0.0524
   67MOL     C325215   3.335   7.787   7.164 -0.2510  0.3127 -0.3117
   67MOL     O425216   3.316   7.669   7.142  0.2126 -0.1067  0.2056
   67MOL     N525217   3.404   0.001   7.265 -0.2598  0.3880  0.0908
   67MOL     C625218   3.454   7.764   7.383  0.3364  0.8016 -0.7232
   67MOL     C725219   3.548   0.018   7.468 -1.0434 -0.1011 -0.4184
   67MOL     C825220   3.342   7.707   7.463 -0.0990 -0.0063  0.5169
   67MOL     H925221   3.084   0.159   7.056  0.4490 -1.0247 -1.9704
   67MOL    H1025222   3.118   0.109   7.220 -1.9985 -0.0222  0.4985
   67MOL    H1125223   3.330   0.139   7.071  0.1661 -0.3779 -0.6845
   67MOL    H1225224   3.424   0.100   7.270 -1.8737  0.7236  0.0137
   67MOL    H1325225   3.512   7.686   7.333 -0.9686  0.3494 -1.5587
   67MOL    H1425226   3.624   0.063   7.405  1.3973 -2.2209  0.8729
   67MOL    H1525227   3.600   7.800   7.548  1.3178 -0.4451 -2.1404
   67MOL    H1625228   3.495   0.098   7.519  1.4110  2.1804 -1.3598
   67MOL    H1725229   3.291   7.619   7.422  0.4735 -0.1171  0.0414
   67MOL    H1825230   3.383   7.675   7.558  2.5169 -0.0017 -0.5879
   67MOL    H1925231   3.261   7.778   7.483 -0.7784  0.0219 -2.0677
   67MOL    H2025232   3.066   7.824   7.103 -0.5055  0.4477 -1.1396
   67MOL    C2125233   3.260   0.009   6.916  0.3586 -0.4386  0.1998
   67MOL    C2225234   3.381   7.770   6.846  0.7156 -0.6657  0.8313
   67MOL    C2325235   3.512   0.011   6.859  0.1174  0.8836  0.3891
   67MOL    O2425236   3.529   0.117   6.797  0.3235 -0.0796  0.4034
   67MOL    N2525237   3.608   7.798   6.940 -0.2350  0.5052 -0.5606
   67MOL    C2625238   3.729   0.032   6.977 -0.4422 -0.1024 -0.6731
   67MOL    C2725239   3.854   7.803   6.919  0.0934  0.0183  0.0841
   67MOL    C2825240   3.729   0.055   7.129  0.0955 -0.0548  0.0755
   67MOL    H2925241   3.232   0.089   6.847 -0.3184 -1.8166 -1.1585
   67MOL    H3025242   3.169   7.786   6.903 -0.7497  0.6598  2.6383
   67MOL    H3125243   3.387   7.681   6.908  2.0767 -1.6818 -0.7346
   67MOL    H3225244   3.585   7.707   6.979  0.8209  1.0888  1.5159
   67MOL    H3325245   3.727   0.131   6.931  1.6894 -1.1748 -3.1744
   67MOL    H3425246   3.837   7.769   6.817  0.0867  1.7393 -0.5022
   67MOL    H3525247   3.876   7.715   6.979  2.3715  0.1111 -0.5841
   67MOL    H3625248   3.944   0.028   6.920  0.1197  0.0368 -1.7788
   67MOL    H3725249   3.634   0.105   7.147  0.0798 -1.0105  2.9026
   67MOL    H3825250   3.723   7.803   7.193  0.3176  0.1021  0.3127
   67MOL    H3925251   3.813   0.120   7.152 -0.0926  0.0044  0.5838
   67MOL    C4025252   3.339   7.722   6.706 -0.2369 -0.0869  0.3153
   67MOL    C4125253   3.451   7.649   6.623 -0.7458  0.5636 -0.1391
   67MOL    C4225254   3.399   7.632   6.479 -0.5549  0.1971 -0.0862
   67MOL    O4325255   3.279   7.607   6.460  0.1592  0.0773  0.1554
   67MOL    N4425256   3.491   7.651   6.383  0.3392  0.1352  0.0331
   67MOL    C4525257   3.470   7.661   6.240  0.3282  0.1349  0.3741
   67MOL    C4625258   3.437   7.532   6.166 -0.1506 -0.1985  1.0348
   67MOL    C4725259   3.377   7.774   6.199 -0.0633  0.1205  0.5027
   67MOL    H4825260   3.297   7.809   6.654  1.4885 -0.1510 -1.2567
   67MOL    H4925261   3.260   7.651   6.728  1.1223 -1.1034  1.9711
   67MOL    H5025262   3.529   7.723   6.608  1.1967 -1.1374  1.3598
   67MOL    H5125263   3.589   7.644   6.407 -0.8073 -1.9410  4.6500
   67MOL    H5225264   3.573   7.684   6.214 -0.2075  1.1939 -0.8493
   67MOL    H5325265   3.524   7.468   6.181  0.9485  0.7641 -1.0727
   67MOL    H5425266   3.413   7.548   6.061  0.7747 -1.0236  0.6972
   67MOL    H5525267   3.352   7.481   6.213  0.5399 -1.0258  1.3958
   67MOL    H5625268   3.385   0.032   6.253 -0.6418  0.4809 -0.0322
   67MOL    H5725269   3.276   7.739   6.220 -1.1081  3.8088  1.9881
   67MOL    H5825270   3.370   7.798   6.092 -0.6608  1.3096  0.7964
   67MOL    C5925271   3.493   7.513   6.689  0.4269  0.0258 -0.0222
   67MOL    C6025272   3.624   7.451   6.634 -0.1878  0.1203  0.5410
   67MOL    C6125273   3.651   7.317   6.693 -0.1995 -0.2709  0.2927
   67MOL    O6225274   3.640   7.298   6.812  0.1807  0.3084 -0.4021
   67MOL    N6325275   3.698   7.223   6.611  0.5282  0.5904 -0.2870
   67MOL    C6425276   3.739   7.093   6.652  0.0876 -0.0771  0.1239
   67MOL    C6525277   3.732   7.002   6.527 -0.0961  0.2622  0.0234
   67MOL    C6625278   3.877   7.089   6.708  0.5442 -0.3658  0.1631
   67MOL    H6725279   3.501   7.518   6.797 -1.8659 -0.0756  0.1901
   67MOL    H6825280   3.404   7.452   6.675  0.7893 -0.4775 -0.1451
   67MOL    H6925281   3.648   7.445   6.528  1.3981 -0.0623  0.9041
   67MOL    H7025282   3.694   7.248   6.513 -1.3183  1.7746  0.0680
   67MOL    H7125283   3.680   7.059   6.738 -0.6606 -0.4211 -0.5198
   67MOL    H7225284   3.633   6.984   6.485  0.5763  0.6604 -1.7895
   67MOL    H7325285   3.792   7.047   6.448 -0.5585 -0.6360 -0.8567
   67MOL    H7425286   3.786   6.909   6.545 -0.9244 -0.0576  0.8981
   67MOL    H7525287   3.876   7.145   6.802  1.4383 -2.3389  1.3762
   67MOL    H7625288   3.912   6.988   6.729 -0.0039 -1.1087 -2.2706
   67MOL    H7725289   3.945   7.137   6.637  0.7058 -1.3214 -0.3452
   67MOL    C7825290   3.748   7.533   6.663  0.3067 -0.5320  0.0199
   67MOL    C7925291   3.873   7.521   6.570 -0.4430  0.0904 -0.9315
   67MOL    C8025292   3.841   7.560   6.424 -0.2304  0.4521  0.0594
   67MOL    O8125293   3.760   7.649   6.412  0.3236 -0.3111  0.1572
   67MOL    N8225294   3.908   7.501   6.326  0.4186  0.5819  0.4770
   67MOL    C8325295   3.900   7.523   6.181  0.1300  0.5857 -0.1236
   67MOL    C8425296   3.997   7.622   6.123  0.2717 -0.3454  0.1141
   67MOL    C8525297   3.906   7.382   6.115 -0.0575  0.3182 -0.2285
   67MOL    H8625298   3.783   7.512   6.764 -0.1319 -0.9470  0.0820
   67MOL    H8725299   3.731   7.641   6.659 -1.5755 -0.7809  0.8947
   67MOL    H8825300   3.892   7.414   6.563 -0.7604 -0.0252 -0.1486
   67MOL    H8925301   3.976   7.430   6.348  1.7425  1.8084  0.4484
   67MOL    H9025302   3.802   7.571   6.171 -0.1550 -0.3588 -2.1163
   67MOL    H9125303   3.955   7.714   6.164 -0.0763  0.3364 -1.7610
   67MOL    H9225304   4.098   7.602   6.161  0.5189 -0.5746 -0.6616
   67MOL    H9325305   3.999   7.642   6.016  0.0915  0.4132  0.2486
   67MOL    H9425306   4.009   7.344   6.115  0.2362  1.0074  2.4094
   67MOL    H9525307   3.870   7.384   6.012  0.9191  0.4039 -0.5756
   67MOL    H9625308   3.852   7.311   6.177  0.1278 -0.7246 -1.2431
   67MOL    C9725309   3.992   7.592   6.627 -0.6444 -0.2345 -0.0327
   67MOL    C9825310   4.116   7.510   6.678 -0.2583 -0.0070 -0.1680
   67MOL    C9925311   4.192   7.446   6.560 -0.5592  0.2985 -0.3089
   67MOL   O10025312   4.143   7.382   6.473  0.1150 -0.3624 -0.2642
   67MOL   N10125313   4.321   7.469   6.556 -0.0099 -1.0592 -0.8191
   67MOL   C10225314   4.410   7.423   6.448  0.0105 -0.1106 -0.1304
   67MOL   C10325315   4.432   7.542   6.342 -0.4158 -0.4602  0.4989
   67MOL   C10425316   4.538   7.383   6.500  0.3899 -0.0072 -0.8762
   67MOL   H10525317   3.961   7.663   6.705 -0.0691 -0.9690  0.8771
   67MOL   H10625318   4.034   7.645   6.542 -0.2303  1.2554  1.0575
   67MOL   H10725319   4.174   7.590   6.724 -4.3152  2.0821  1.6464
   67MOL   H10825320   4.360   7.524   6.631  0.9683  0.4258 -2.3707
   67MOL   H10925321   4.370   7.334   6.400 -0.5372  0.7612 -1.3188
   67MOL   H11025322   4.445   7.641   6.385 -0.5541  0.3360 -1.2764
   67MOL   H11125323   4.514   7.523   6.273 -0.9900 -0.3293 -0.2299
   67MOL   H11225324   4.340   7.538   6.283 -0.1917  0.1459  0.1035
   67MOL   H11325325   4.583   7.463   6.558 -0.4487 -1.2272  1.5404
   67MOL   H11425326   4.606   7.374   6.415 -0.1114  0.9127 -1.3790
   67MOL   H11525327   4.526   7.288   6.552 -1.5363 -0.1304 -1.5178
   67MOL   C11625328   4.065   7.407   6.783 -0.3457  0.4619 -0.6003
   67MOL   C11725329   4.172   7.334   6.872  0.6108 -0.2303 -0.5699
   67MOL   C11825330   4.282   7.437   6.920  0.4086 -0.8345  0.3799
   67MOL   O11925331   4.383   7.466   6.850  0.6065 -0.3013  0.4986
   67MOL   N12025332   4.244   7.491   7.035  0.4540  0.3933 -0.5384
   67MOL   C12125333   4.319   7.593   7.109 -0.2446  0.0101 -0.2297
   67MOL   C12225334   4.220   7.710   7.139 -0.4124  0.1815 -0.1563
   67MOL   C12325335   4.398   7.537   7.232  0.2056  0.1354  0.2508
   67MOL   H12425336   3.999   7.337   6.732  1.6576 -2.1230  0.2862
   67MOL   H12525337   4.017   7.475   6.853 -0.6305  0.8456 -1.1629
   67MOL   H12625338   4.120   7.297   6.960  0.9549 -3.2744 -1.5803
   67MOL   H12725339   4.166   7.461   7.091  1.1208 -0.5922 -0.1185
   67MOL   H12825340   4.393   7.634   7.041  1.7246 -3.4087 -0.2406
   67MOL   H12925341   4.264   7.772   7.217 -1.1889  3.1573 -2.0035
   67MOL   H13025342   4.122   7.679   7.173 -0.4211  0.2306 -0.1380
   67MOL   H13125343   4.194   7.775   7.055 -2.1012 -0.3802 -0.0754
   67MOL   H13225344   4.336   7.522   7.321  0.2447 -0.9197  0.1090
   67MOL   H13325345   4.444   7.441   7.210 -1.0373 -0.5446  0.5580
   67MOL   H13425346   4.470   7.615   7.254 -1.0922  1.4920 -0.2509
   67MOL   C13525347   4.217   7.207   6.809 -0.0995  0.6273  0.1119
   67MOL   C13625348   4.327   7.126   6.867 -0.0456 -0.1611 -0.0731
   67MOL   C13725349   4.292   7.070   7.004 -0.0548  0.9324  0.7524
   67MOL   O13825350   4.177   7.020   7.027  0.3131  0.1802 -0.6196
   67MOL   N13925351   4.396   7.077   7.097  0.5195 -0.0342  0.0750
   67MOL   C14025352   4.377   7.045   7.237  0.2282  0.3973 -0.6584
   67MOL   C14125353   4.311   7.164   7.318  0.1604  0.3950  0.0309
   67MOL   C14225354   4.504   6.985   7.291 -0.3524  0.4230  0.2951
   67MOL   H14325355   4.227   7.226   6.702  0.2041  0.7023  0.1529
   67MOL   H14425356   4.127   7.145   6.813  0.7847 -0.8015 -1.3281
   67MOL   H14525357   4.410   7.193   6.888 -0.0607 -0.6615  1.6576
   67MOL   H14625358   4.489   7.105   7.069  1.1062 -1.4319  0.5807
   67MOL   H14725359   4.301   6.967   7.246 -0.0181  0.7958  0.8968
   67MOL   H14825360   4.383   7.244   7.303  1.0142 -0.5282 -0.8594
   67MOL   H14925361   4.214   7.193   7.278  0.0915 -1.2391 -1.0862
   67MOL   H15025362   4.304   7.139   7.424 -0.1777  1.6229  0.2975
   67MOL   H15125363   4.484   6.957   7.394  4.2694 -0.5001  1.0244
   67MOL   H15225364   4.583   7.061   7.294  2.2540 -2.0966 -2.1345
   67MOL   H15325365   4.546   6.897   7.242 -0.7679  0.5540 -0.3133
   67MOL   C15425366   4.361   7.006   6.783  0.0886  0.6326 -0.0164
   67MOL   C15525367   4.499   6.930   6.795 -0.2560  0.3404 -0.2387
   67MOL   C15625368   4.612   7.023   6.749 -0.2887 -0.0809 -0.2835
   67MOL   O15725369   4.642   7.040   6.631  0.6688 -0.6877  0.1125
   67MOL   N15825370   4.660   7.093   6.852  0.2967 -0.0546 -0.7963
   67MOL   C15925371   4.758   7.200   6.841 -0.3916 -0.1341  0.1829
   67MOL   C16025372   4.903   7.161   6.867 -0.2860  0.4619  0.2653
   67MOL   C16125373   4.698   7.317   6.927  0.1911 -0.1991  0.0734
   67MOL   H16225374   4.352   7.043   6.680 -1.6732 -0.3588 -0.2281
   67MOL   H16325375   4.281   6.932   6.783 -0.5091  1.2201 -2.1792
   67MOL   H16425376   4.508   6.903   6.900  0.8032 -0.8131 -0.6021
   67MOL   H16525377   4.632   7.065   6.945 -1.2496  3.8404  0.0132
   67MOL   H16625378   4.758   7.243   6.741  1.8961  1.1773  0.6988
   67MOL   H16725379   4.940   7.097   6.787  1.8305  1.6422  0.2678
   67MOL   H16825380   4.973   7.244   6.876 -0.1541  0.2047  1.8409
   67MOL   H16925381   4.904   7.113   6.965  0.3650  0.8573  0.4549
   67MOL   H17025382   4.695   7.281   7.030  1.1129 -3.3397 -0.9360
   67MOL   H17125383   4.592   7.339   6.909  0.1955  0.0211  0.3132
   67MOL   H17225384   4.749   7.412   6.913  0.7066 -0.4988 -0.0812
   67MOL   C17325385   4.486   6.800   6.711  0.1158 -0.0876  0.0274
   67MOL   C17425386   4.615   6.716   6.680 -0.0983 -0.0620 -0.1243
   67MOL   C17525387   4.682   6.691   6.817  0.8188  0.2273 -0.4988
   67MOL   O17625388   4.620   6.626   6.899  0.4741 -0.0746 -0.2677
   67MOL   N17725389   4.808   6.735   6.834 -0.1213  0.3667 -0.2678
   67MOL   C17825390   4.888   6.696   6.948  0.3525 -0.0714 -0.1370
   67MOL   C17925391   4.998   6.805   6.975  0.1698  0.0988  0.2819
   67MOL   C18025392   4.954   6.555   6.920  0.0610  0.2851  0.4879
   67MOL   H18125393   4.424   6.814   6.623  0.3318  1.6891  0.1372
   67MOL   H18225394   4.423   6.731   6.768  0.4315 -0.9339 -0.6245
   67MOL   H18325395   4.679   6.784   6.624  0.1535 -0.0500  0.1761
   67MOL   H18425396   4.848   6.770   6.748  1.0956 -4.1787 -1.6946
   67MOL   H18525397   4.823   6.680   7.034  0.6277 -0.9953 -0.0930
   67MOL   H18625398   5.054   6.776   7.064  0.5010  0.7027  0.2729
   67MOL   H18725399   4.963   6.906   6.997  0.2166  0.3618 -0.8343
   67MOL   H18825400   5.075   6.810   6.897  0.0338  1.4346  0.2323
   67MOL   H18925401   5.015   6.563   6.830 -1.5776 -4.0408 -1.1658
   67MOL   H19025402   4.880   6.478   6.897  0.9238  0.1286 -1.8557
   67MOL   H19125403   5.006   6.535   7.014  2.2786  0.8470 -0.5917
   67MOL   C19225404   4.581   6.585   6.603 -0.5355  0.1546  0.3656
   67MOL   C19325405   4.512   6.614   6.461 -0.1483 -0.0454  0.0918
   67MOL   C19425406   4.499   6.483   6.383  0.6399  0.1950  0.4835
   67MOL   O19525407   4.594   6.412   6.368 -0.4697 -0.5625  0.4690
   67MOL   N19625408   4.382   6.445   6.334  0.5074 -0.3264 -0.0994
   67MOL   C19725409   4.351   6.335   6.253  0.3955  0.4938  1.0815
   67MOL   C19825410   4.247   6.243   6.323 -0.0110 -0.2239 -0.2756
   67MOL   C19925411   4.310   6.375   6.109 -0.3845 -0.3018 -0.1456
   67MOL   H20025412   4.510   6.533   6.667  0.6914  0.5990  2.1360
   67MOL   H20125413   4.669   6.523   6.585  0.7836  0.9933  3.5513
   67MOL   H20225414   4.408   6.645   6.474  0.0397  0.5554  0.1732
   67MOL   H20325415   4.310   6.515   6.343 -0.6975 -1.7807  1.7970
   67MOL   H20425416   4.438   6.270   6.243  1.4308  2.3764 -2.9461
   67MOL   H20525417   4.244   6.139   6.290  0.0182 -1.0569  2.2255
   67MOL   H20625418   4.141   6.266   6.315 -0.1901 -0.8917  0.1353
   67MOL   H20725419   4.280   6.236   6.426  1.0174 -0.3500 -0.6084
   67MOL   H20825420   4.234   6.453   6.113 -0.7263 -0.6401  0.1017
   67MOL   H20925421   4.275   6.281   6.066 -0.1768  0.0885 -1.1815
   67MOL   H21025422   4.400   6.411   6.061 -0.4956  1.0316  0.6315
   67MOL   C21125423   4.585   6.721   6.370  0.6345  0.2508  1.1549
   67MOL   C21225424   4.524   6.756   6.233  0.3463  0.4145  0.3376
   67MOL   C21325425   4.370   6.793   6.239  0.2689 -0.2494  0.0911
   67MOL   O21425426   4.286   6.732   6.172 -0.4461  0.7805  0.2238
   67MOL   N21525427   4.339   6.902   6.314 -0.2063  0.2486  0.2334
   67MOL   C21625428   4.200   6.944   6.333 -0.4285  0.0574  0.2910
   67MOL   C21725429   4.184   7.097   6.327  0.0292  0.3624 -0.1090
   67MOL   C21825430   4.146   6.875   6.462 -0.4585 -0.5725  0.4194
   67MOL   H21925431   4.685   6.684   6.350  0.0415 -0.1709 -1.3136
   67MOL   H22025432   4.588   6.815   6.425 -2.2495  1.7316 -1.0119
   67MOL   H22125433   4.542   6.664   6.177  2.6396 -0.2301  2.0001
   67MOL   H22225434   4.413   6.948   6.364 -2.0873  2.4725  1.0748
   67MOL   H22325435   4.137   6.905   6.253  1.7090  1.5639 -2.2113
   67MOL   H22425436   4.192   7.145   6.424  0.7762  1.0980 -0.5333
   67MOL   H22525437   4.255   7.147   6.261  0.6320  1.2679  1.2010
   67MOL   H22625438   4.086   7.132   6.292  0.8008  3.3242  0.5610
   67MOL   H22725439   4.205   6.897   6.551  0.9521  0.7868 -0.8245
   67MOL   H22825440   4.130   6.767   6.452 -1.5670 -0.3054 -0.8340
   67MOL   H22925441   4.049   6.920   6.484 -1.2127 -2.2907  0.6878
   67MOL   C23025442   4.611   6.858   6.159 -0.2671 -0.5279  0.3935
   67MOL   C23125443   4.573   6.911   6.019  0.9233 -0.2021 -0.3290
   67MOL   C23225444   4.471   7.019   6.024 -0.5633  0.4126  0.0628
   67MOL   O23325445   4.471   7.109   6.103 -0.0465  0.3159 -0.1541
   67MOL   N23425446   4.365   7.013   5.936 -0.1719  0.5763 -0.2643
   67MOL   C23525447   4.254   7.106   5.931  0.0232 -0.6980  0.7116
   67MOL   C23625448   4.300   7.248   5.893  0.2702  0.7706  0.7985
   67MOL   C23725449   4.161   7.057   5.831  0.6414  0.2136  0.2877
   67MOL   H23825450   4.715   6.824   6.155  0.2130  0.9550 -0.3395
   67MOL   H23925451   4.621   6.943   6.227 -0.9938 -1.0186  1.1132
   67MOL   H24025452   4.534   6.820   5.973 -1.5659 -0.7424  2.6933
   67MOL   H24125453   4.359   6.926   5.885 -0.9000 -0.0443  0.8422
   67MOL   H24225454   4.195   7.107   6.023 -0.6700  0.3179  0.2542
   67MOL   H24325455   4.211   7.310   5.887  1.3471  2.5129  2.4621
   67MOL   H24425456   4.369   7.306   5.955  1.1840 -0.7785  1.2562
   67MOL   H24525457   4.344   7.245   5.793 -1.5877 -1.4764 -0.0090
   67MOL   H24625458   4.082   7.131   5.815 -0.4932 -0.3521  2.9506
   67MOL   H24725459   4.124   6.956   5.850 -0.3273  0.9868  2.6428
   67MOL   H24825460   4.206   7.036   5.734  0.6219 -1.8917  0.7128
   67MOL   C24925461   4.693   6.969   5.935 -0.6931  0.2238  0.6748
   67MOL   C25025462   4.678   7.028   5.789  0.4920  0.1013  0.1572
   67MOL   C25125463   4.588   6.938   5.702  0.2938 -0.3555  0.1405
   67MOL   O25225464   4.589   6.816   5.726 -0.0525 -0.2360  0.0401
   67MOL   N25325465   4.520   6.997   5.603  0.0544  0.4596  0.3883
   67MOL   C25425466   4.471   6.927   5.483 -0.0571  0.6230  0.3221
   67MOL   C25525467   4.326   6.880   5.508 -0.4506  0.4881 -0.3316
   67MOL   C25625468   4.488   7.029   5.365 -0.2780 -0.4428  0.6844
   67MOL   H25725469   4.768   6.891   5.921  0.8130  1.5139  1.4679
   67MOL   H25825470   4.742   7.044   5.997  0.5420 -1.5646  1.9159
   67MOL   H25925471   4.623   7.121   5.802  0.1210  0.2350 -2.1404
   67MOL   H26025472   4.530   7.097   5.602  0.1163  0.4773  1.8185
   67MOL   H26125473   4.534   6.842   5.457 -0.5519 -0.5946  2.9637
   67MOL   H26225474   4.319   6.802   5.584 -0.6131 -0.0920 -0.9349
   67MOL   H26325475   4.263   6.958   5.550  1.5250  1.5873  0.6684
   67MOL   H26425476   4.293   6.826   5.419  1.0221  2.3674 -2.0706
   67MOL   H26525477   4.447   6.988   5.272 -2.4193  1.4315  0.7558
   67MOL   H26625478   4.432   7.122   5.378  0.6390  0.0797  0.8778
   67MOL   H26725479   4.592   7.045   5.340 -0.0763  0.3518  1.9789
   67MOL   C26825480   4.819   7.061   5.731  0.0144 -0.2108 -0.0096
   67MOL   C26925481   4.834   7.088   5.580 -0.2572  0.5986 -0.6504
   67MOL   C27025482   4.755   7.215   5.537 -0.6284 -0.0566  1.0481
   67MOL   O27125483   4.695   7.289   5.614 -0.2570  0.4850  0.3069
   67MOL   N27225484   4.758   7.244   5.401  0.0259 -0.2740  0.2759
   67MOL   C27325485   4.742   7.376   5.335  0.1063 -0.0782  0.1021
   67MOL   C27425486   4.868   7.436   5.284 -0.4383  0.8551  0.6045
   67MOL   C27525487   4.638   7.347   5.223 -0.7514  0.2638  0.4356
   67MOL   H27625488   4.861   7.144   5.788 -0.3748 -1.2810  1.8395
   67MOL   H27725489   4.872   6.970   5.756 -0.7567 -0.7414 -0.2785
   67MOL   H27825490   4.799   7.001   5.525  0.2073  0.0828 -0.1344
   67MOL   H27925491   4.825   7.181   5.358  0.3179  0.6261 -0.6049
   67MOL   H28025492   4.695   7.440   5.410  2.4448 -0.4665  1.9594
   67MOL   H28125493   4.848   7.529   5.231 -2.2513 -0.0283 -0.3284
   67MOL   H28225494   4.934   7.472   5.363  0.1199  0.6425  0.2367
   67MOL   H28325495   4.919   7.375   5.210 -1.2167  1.7923 -0.7137
   67MOL   H28425496   4.614   7.434   5.161  0.8068  0.4721  0.1045
   67MOL   H28525497   4.673   7.273   5.151  0.0552  0.4553  0.6254
   67MOL   H28625498   4.546   7.314   5.271 -0.3585 -0.0375  0.9776
   67MOL   C28725499   4.987   7.102   5.548  0.0387  0.0733  0.1755
   67MOL   C28825500   5.055   6.969   5.497 -0.4610  0.0468  0.1353
   67MOL   C28925501   5.117   6.897   5.622  0.2924 -0.6044 -0.1396
   67MOL   O29025502   5.218   6.943   5.687  0.0183 -0.3092 -0.6305
   67MOL   N29125503   5.050   6.784   5.642  0.4678 -0.3947  0.2527
   67MOL   C29225504   5.083   6.688   5.750 -0.2095  0.3301  0.1976
   67MOL   C29325505   4.998   6.723   5.872  0.6270  0.0546 -0.0022
   67MOL   C29425506   5.051   6.541   5.712 -0.0323  0.2256  0.8670
   67MOL   H29525507   4.992   7.170   5.463  1.1851 -0.6594 -0.3590
   67MOL   H29625508   5.046   7.152   5.625  1.2780  1.2979 -1.5422
   67MOL   H29725509   4.982   6.907   5.446 -0.9160 -0.0052  0.8337
   67MOL   H29825510   4.984   6.749   5.574  1.2394  0.2100 -0.8118
   67MOL   H29925511   5.191   6.688   5.766 -0.0682 -0.4594 -0.6671
   67MOL   H30025512   4.891   6.715   5.855  0.8421  1.1199 -1.9991
   67MOL   H30125513   5.026   6.667   5.961  0.2036  0.5943  0.4719
   67MOL   H30225514   5.019   6.827   5.896 -0.5016  0.7277 -1.8351
   67MOL   H30325515   4.949   6.514   5.685  0.0237  1.1911 -0.3490
   67MOL   H30425516   5.107   6.509   5.624 -2.3510 -1.5602 -0.0086
   67MOL   H30525517   5.086   6.484   5.798  3.2979 -1.4541 -1.4823
   67MOL   C30625518   5.182   7.011   5.408 -0.2565 -0.4856  0.3754
   67MOL   C30725519   5.179   6.989   5.257  0.3704  0.1547 -0.9398
   67MOL   C30825520   5.096   7.095   5.179  0.7045 -1.2532 -0.3879
   67MOL   O30925521   4.979   7.112   5.206 -0.4684  0.6225  0.5722
   67MOL   N31025522   5.155   7.157   5.075 -0.4664 -0.0512 -0.2637
   67MOL   C31125523   5.078   7.242   4.981 -0.8364 -0.5853 -0.0228
   67MOL   C31225524   5.172   7.335   4.902  0.0995  0.2384 -0.4684
   67MOL   C31325525   4.994   7.159   4.883 -1.0825  0.1800  0.2765
   67MOL   H31425526   5.203   7.115   5.436  1.7700 -0.3185 -1.6208
   67MOL   H31525527   5.273   6.964   5.445  0.8278 -0.5492 -2.2518
   67MOL   H31625528   5.276   7.001   5.208  1.5879  0.5794  1.4812
   67MOL   H31725529   5.256   7.150   5.082 -0.5137 -1.9940 -1.2599
   67MOL   H31825530   5.009   7.309   5.032 -0.6795  0.8392 -1.6470
   67MOL   H31925531   5.247   7.276   4.849 -0.3623 -2.0237  1.3040
   67MOL   H32025532   5.229   7.399   4.970 -2.5206  1.5753  0.5394
   67MOL   H32125533   5.119   7.401   4.833  1.1321 -0.1305 -1.6485
   67MOL   H32225534   4.931   7.092   4.941  1.0362 -1.8932  0.2716
   67MOL   H32325535   5.064   7.094   4.830 -0.5617 -1.2855  2.6999
   67MOL   H32425536   4.934   7.227   4.823  0.1331 -0.3025 -1.5344
   67MOL   C32525537   5.136   6.854   5.205 -0.2508 -0.6071 -0.4522
   67MOL   C32625538   5.234   6.727   5.208 -0.0268  0.4725  0.4551
   67MOL   C32725539   5.258   6.669   5.349  0.0701  1.5497  0.1883
   67MOL   O32825540   5.169   6.611   5.414  0.0341  0.0867  0.1796
   67MOL   N32925541   5.377   6.686   5.400 -0.2397  0.5654 -0.4848
   67MOL   C33025542   5.422   6.656   5.533  0.1092 -0.0009  0.5844
   67MOL   C33125543   5.542   6.741   5.571  0.5416  0.1485 -0.5041
   67MOL   C33225544   5.470   6.507   5.536 -0.0974 -0.0232 -0.2120
   67MOL   H33325545   5.105   6.866   5.101  0.3778  0.5110 -0.5113
   67MOL   H33425546   5.041   6.822   5.250 -0.4522  0.5679 -0.0322
   67MOL   H33525547   5.329   6.764   5.170 -1.5539  2.2217 -1.8651
   67MOL   H33625548   5.444   6.710   5.328 -0.0766 -1.7918 -1.1747
   67MOL   H33725549   5.347   6.682   5.606  0.4553 -0.1655  1.0000
   67MOL   H33825550   5.566   6.702   5.670 -0.8424 -0.1271 -0.2620
   67MOL   H33925551   5.627   6.733   5.504 -0.7451 -3.4773 -1.8693
   67MOL   H34025552   5.519   6.847   5.569  0.4857  0.2188  2.0252
   67MOL   H34125553   5.473   6.472   5.640 -2.3393 -2.7149 -0.9834
   67MOL   H34225554   5.556   6.484   5.473 -0.4169 -0.5438 -0.4620
   67MOL   H34325555   5.389   6.446   5.495 -0.1124  0.1167 -0.3881
   67MOL   C34425556   5.205   6.620   5.095 -0.5064 -0.6465 -0.6170
   67MOL   C34525557   5.061   6.543   5.095  0.5674  0.2221 -0.0300
   67MOL   C34625558   4.952   6.636   5.037  0.1639  0.4356 -0.5832
   67MOL   O34725559   4.959   6.679   4.920  0.4572  0.5280  0.2532
   67MOL   N34825560   4.853   6.666   5.120  0.2107 -0.6224  0.1418
   67MOL   C34925561   4.742   6.752   5.085 -0.4540 -0.3279  0.2848
   67MOL   C35025562   4.615   6.710   5.161 -0.2566  0.1294  0.5494
   67MOL   C35125563   4.773   6.890   5.126  0.7497 -0.4986  0.1624
   67MOL   H35225564   5.266   6.534   5.121 -0.8997 -0.1753  2.0424
   67MOL   H35325565   5.223   6.655   4.994 -0.0377  1.5007  0.1858
   67MOL   H35425566   5.040   6.526   5.201  0.4942  1.3911  0.1417
   67MOL   H35525567   4.864   6.633   5.215  0.4143 -0.3012  0.2288
   67MOL   H35625568   4.721   6.748   4.978  1.5142  0.3130 -0.1431
   67MOL   H35725569   4.536   6.783   5.143  0.2259  0.6233  0.3860
   67MOL   H35825570   4.568   6.616   5.132 -0.9482  0.2406  1.3187
   67MOL   H35925571   4.633   6.702   5.268  1.6441 -1.4001  0.1680
   67MOL   H36025572   4.860   6.935   5.078 -0.8359  1.1297 -1.2764
   67MOL   H36125573   4.682   6.948   5.109  0.3818 -0.4737  2.0871
   67MOL   H36225574   4.787   6.909   5.233  0.6667  1.3613 -0.1419
   67MOL   C36325575   5.077   6.401   5.022 -0.3993  0.4448  0.5923
   67MOL   C36425576   4.978   6.290   5.075 -0.7067 -0.2503 -0.3985
   67MOL   C36525577   4.837   6.334   5.063  0.1591  0.9708  0.1028
   67MOL   O36625578   4.772   6.371   5.161 -0.2749 -1.1721 -0.1608
   67MOL   N36725579   4.790   6.338   4.938  0.0034 -0.0177  0.2744
   67MOL   C36825580   4.652   6.374   4.900 -0.3914  0.8067 -0.0312
   67MOL   C36925581   4.663   6.467   4.776  0.4330  0.1133 -0.2524
   67MOL   C37025582   4.566   6.247   4.874 -0.3611  0.2699 -0.1205
   67MOL   H37125583   5.174   6.353   5.028 -1.5267 -2.0568 -0.4014
   67MOL   H37225584   5.071   6.418   4.914 -1.4776 -0.9179  0.4207
   67MOL   H37325585   4.998   6.276   5.181 -1.9100  1.6078  0.0899
   67MOL   H37425586   4.846   6.293   4.867 -1.1177  1.0977 -1.3782
   67MOL   H37525587   4.600   6.420   4.984 -1.0509 -0.3784  0.2230
   67MOL   H37625588   4.692   6.570   4.798 -1.5654  0.5394  0.4761
   67MOL   H37725589   4.731   6.426   4.702  0.7301  0.3762 -0.1288
   67MOL   H37825590   4.567   6.460   4.726 -0.5276 -1.9884  1.8007
   67MOL   H37925591   4.462   6.272   4.858 -0.1990  0.7764 -0.3845
   67MOL   H38025592   4.591   6.199   4.780  1.7823 -0.1828  0.6307
   67MOL   H38125593   4.565   6.175   4.956  0.6700  0.6868  0.2747
   67MOL   H38225594   4.991   6.192   5.029 -2.6486 -0.6825 -0.0707
   68MOL     C125595   0.532   3.547   1.944  0.3348 -0.3274 -0.2460
   68MOL     C225596   0.494   3.416   1.867 -0.1302  0.8196 -0.0735
   68MOL     C325597   0.616   3.339   1.818  0.0885  0.5259 -0.1787
   68MOL     O425598   0.660   3.238   1.882 -0.7284 -0.0612  0.0539
   68MOL     N525599   0.673   3.383   1.701  0.4714  0.2879  0.3548
   68MOL     C625600   0.777   3.316   1.632 -0.3414 -0.1160  0.2708
   68MOL     C725601   0.751   3.295   1.484 -0.4637  0.0590 -0.4329
   68MOL     C825602   0.908   3.387   1.669  0.5283 -0.0747  0.0867
   68MOL     H925603   0.569   3.525   2.044 -0.2305  0.8855  0.2457
   68MOL    H1025604   0.436   3.596   1.960  0.6093 -0.4070  1.8095
   68MOL    H1125605   0.434   3.450   1.782 -0.2223 -0.0096 -0.3414
   68MOL    H1225606   0.640   3.468   1.657  0.9434  0.8067  0.9915
   68MOL    H1325607   0.777   3.214   1.670 -1.4523 -0.4561 -0.6199
   68MOL    H1425608   0.725   3.390   1.436  1.2351  0.7055 -0.1273
   68MOL    H1525609   0.665   3.229   1.479 -0.9768  0.4640  2.4624
   68MOL    H1625610   0.838   3.242   1.446 -0.5411  1.0036 -1.9875
   68MOL    H1725611   0.993   3.329   1.633  1.1857  2.2013 -2.1851
   68MOL    H1825612   0.917   3.473   1.603  0.1969 -0.4306 -0.4244
   68MOL    H1925613   0.911   3.402   1.777 -0.2910  0.7123  0.0085
   68MOL    H2025614   0.618   3.605   1.908 -0.5097  1.1474  0.0502
   68MOL    C2125615   0.392   3.329   1.948  0.2518  0.2446 -0.9913
   68MOL    C2225616   0.324   3.224   1.860 -0.5211 -0.1500 -0.3204
   68MOL    C2325617   0.220   3.289   1.769  0.0917  0.0609 -0.0463
   68MOL    O2425618   0.218   3.415   1.747 -0.1216 -0.3759  0.2471
   68MOL    N2525619   0.138   3.205   1.703  0.3190  0.1175 -0.1862
   68MOL    C2625620   0.029   3.248   1.619 -0.0837 -0.3205 -0.0940
   68MOL    C2725621   7.738   3.204   1.695 -0.1643 -0.1021 -1.1598
   68MOL    C2825622   0.035   3.163   1.492 -0.5749 -0.6894 -0.1915
   68MOL    H2925623   0.312   3.391   1.986 -0.3164 -1.8587  1.3543
   68MOL    H3025624   0.450   3.285   2.029  1.3939  2.0597 -0.7857
   68MOL    H3125625   0.398   3.175   1.797  1.7523  0.0443  2.1206
   68MOL    H3225626   0.167   3.108   1.703 -1.9226 -0.6021  1.2406
   68MOL    H3325627   0.043   3.353   1.596 -1.4414 -0.2743 -0.7749
   68MOL    H3425628   7.727   3.264   1.786 -1.2194  0.8055 -1.8840
   68MOL    H3525629   7.760   3.107   1.739 -2.7237 -1.4997 -2.8709
   68MOL    H3625630   7.642   3.214   1.645  0.2650  1.8215 -1.6264
   68MOL    H3725631   7.786   3.177   1.426 -0.0608  0.9676 -0.5386
   68MOL    H3825632   0.125   3.175   1.432  0.6608 -1.1768  1.5077
   68MOL    H3925633   0.030   3.056   1.512  2.1455 -0.7376  0.4265
   68MOL    C4025634   0.257   3.119   1.950  0.0874  0.3959 -0.2648
   68MOL    C4125635   0.344   2.999   1.981  0.0363 -0.6366 -1.0303
   68MOL    C4225636   0.364   2.920   1.854  0.1327  0.4089 -0.3532
   68MOL    O4325637   0.275   2.893   1.772 -0.1173 -0.3207 -0.4033
   68MOL    N4425638   0.493   2.883   1.823  0.0110 -0.3648  0.0526
   68MOL    C4525639   0.545   2.832   1.694  0.3140  0.0948  0.5116
   68MOL    C4625640   0.580   2.949   1.601 -0.1081  0.4035 -0.1234
   68MOL    C4725641   0.666   2.733   1.718  0.0013  0.6023 -0.2596
   68MOL    H4825642   0.161   3.085   1.912 -0.0291  0.3716  0.0492
   68MOL    H4925643   0.227   3.159   2.047  1.0284 -0.4299  0.3748
   68MOL    H5025644   0.445   3.029   2.009 -0.2001 -0.3649 -0.4503
   68MOL    H5125645   0.541   2.878   1.912 -1.6596  1.9193  1.1642
   68MOL    H5225646   0.462   2.788   1.638  2.0411 -1.0662 -1.2416
   68MOL    H5325647   0.628   2.933   1.505 -1.2405  0.2226 -0.6667
   68MOL    H5425648   0.646   3.013   1.660  2.3200 -0.3264 -1.9728
   68MOL    H5525649   0.491   3.009   1.585 -1.6156 -1.7259  0.0806
   68MOL    H5625650   0.622   2.656   1.781 -1.1281  1.8150  0.4568
   68MOL    H5725651   0.742   2.779   1.781 -0.1984 -0.2975  0.6441
   68MOL    H5825652   0.698   2.687   1.625  1.7378  1.8463 -0.3017
   68MOL    C5925653   0.282   2.915   2.093 -0.6542  0.3676  1.0188
   68MOL    C6025654   0.359   2.792   2.142  0.4135  0.7896  0.2172
   68MOL    C6125655   0.505   2.826   2.178 -0.3028  0.4297 -0.4506
   68MOL    O6225656   0.588   2.817   2.094 -0.5728  0.0678  0.0646
   68MOL    N6325657   0.536   2.878   2.294  0.3368 -0.4766  0.1108
   68MOL    C6425658   0.664   2.931   2.329 -0.5677 -0.7524  0.2413
   68MOL    C6525659   0.669   3.076   2.255 -0.2540  0.4934 -0.4307
   68MOL    C6625660   0.695   2.938   2.479  0.0058 -0.7144  0.3279
   68MOL    H6725661   0.268   2.981   2.179 -2.8747  2.3145 -0.7760
   68MOL    H6825662   0.178   2.888   2.074 -0.4688 -0.0961  0.6442
   68MOL    H6925663   0.313   2.754   2.234 -0.1036 -1.4039 -0.9056
   68MOL    H7025664   0.462   2.910   2.355 -0.5463  0.5085 -1.4587
   68MOL    H7125665   0.733   2.868   2.272 -1.3077 -1.0664 -0.3247
   68MOL    H7225666   0.743   3.136   2.308  0.6017 -2.3539  1.7586
   68MOL    H7325667   0.695   3.074   2.149  0.3266 -1.7827 -0.2765
   68MOL    H7425668   0.583   3.140   2.271 -0.1629  1.0138 -1.9973
   68MOL    H7525669   0.661   3.022   2.540  0.3720  0.2000 -0.7230
   68MOL    H7625670   0.647   2.848   2.518 -3.2603  0.1927 -1.4235
   68MOL    H7725671   0.803   2.926   2.483  0.0650 -0.2426  0.1152
   68MOL    C7825672   0.345   2.670   2.052  0.1259 -0.2588  0.1253
   68MOL    C7925673   0.197   2.638   2.010 -0.4938  0.0819 -0.3918
   68MOL    C8025674   0.190   2.516   1.918  0.3388 -0.1090 -0.0830
   68MOL    O8125675   0.161   2.533   1.798  0.4112  0.1921  0.3173
   68MOL    N8225676   0.222   2.404   1.982  0.2267  0.3901  0.1037
   68MOL    C8325677   0.246   2.275   1.920 -0.0111  0.7115  0.1025
   68MOL    C8425678   0.402   2.231   1.934 -0.2105 -0.0377  0.5035
   68MOL    C8525679   0.142   2.174   1.970  0.7057  0.1541  0.1711
   68MOL    H8625680   0.389   2.588   2.108  1.0733 -0.8621 -1.4630
   68MOL    H8725681   0.417   2.680   1.971  1.2639 -2.0161  0.8846
   68MOL    H8825682   0.145   2.707   1.943 -1.7501 -1.9877 -1.6201
   68MOL    H8925683   0.225   2.413   2.083 -0.0059 -0.2714  0.1743
   68MOL    H9025684   0.232   2.289   1.813 -1.3406  0.8541  0.2898
   68MOL    H9125685   0.432   2.235   2.038  1.1486  0.0168  0.1224
   68MOL    H9225686   0.414   2.129   1.897 -2.2374 -0.6673  1.5128
   68MOL    H9325687   0.464   2.300   1.876 -1.2667 -0.8512 -1.6566
   68MOL    H9425688   0.157   2.144   2.074 -0.6327  0.4189  0.4460
   68MOL    H9525689   0.159   2.087   1.907 -0.6468 -0.4043  0.5583
   68MOL    H9625690   0.040   2.205   1.948  0.8797 -0.3996 -1.4538
   68MOL    C9725691   0.106   2.620   2.133  1.1131  0.0453 -0.1729
   68MOL    C9825692   7.792   2.586   2.125  0.3100  0.2593  0.4899
   68MOL    C9925693   7.724   2.696   2.046  0.1342  0.0201 -0.5008
   68MOL   O10025694   7.687   2.795   2.108  0.2153 -0.7882 -0.2387
   68MOL   N10125695   7.719   2.689   1.916 -0.2852  0.4753  0.0346
   68MOL   C10225696   7.679   2.784   1.819 -0.0400 -0.2243  0.1104
   68MOL   C10325697   7.762   2.775   1.691  0.2047 -0.3165 -0.7633
   68MOL   C10425698   7.530   2.765   1.778  0.1502 -0.4863  0.2910
   68MOL   H10525699   0.107   2.720   2.175  0.8391 -0.4377  1.0173
   68MOL   H10625700   0.151   2.550   2.204  1.2708 -1.7711 -2.0234
   68MOL   H10725701   7.783   2.501   2.057  0.7303 -1.1731  2.1726
   68MOL   H10825702   7.757   2.608   1.870 -0.3583  1.2967 -1.5286
   68MOL   H10925703   7.684   2.884   1.863  1.4225  0.0802 -0.6911
   68MOL   H11025704   0.030   2.797   1.712  0.7651 -1.0574 -2.6648
   68MOL   H11125705   7.754   2.676   1.647 -1.1041 -0.2552 -0.6746
   68MOL   H11225706   7.723   2.841   1.614 -2.6291 -2.7391 -1.5074
   68MOL   H11325707   7.496   2.851   1.719 -0.8232 -2.1871 -1.7010
   68MOL   H11425708   7.481   2.749   1.874 -0.5155 -0.1054  0.0192
   68MOL   H11525709   7.507   2.684   1.709  1.4020 -0.4043 -0.2399
   68MOL   C11625710   7.721   2.552   2.263  0.0021  0.3237  0.4963
   68MOL   C11725711   7.601   2.450   2.243  0.6122 -0.0406 -0.2234
   68MOL   C11825712   7.512   2.460   2.358  0.6284 -0.3129 -0.7425
   68MOL   O11925713   7.392   2.475   2.340 -0.1607 -0.3541  0.0704
   68MOL   N12025714   7.558   2.446   2.484  0.0672  0.4680  0.6771
   68MOL   C12125715   7.477   2.411   2.597  0.7311 -0.5534 -0.1314
   68MOL   C12225716   7.492   2.267   2.633 -0.6373 -0.5643 -0.2251
   68MOL   C12325717   7.521   2.499   2.709 -0.1114 -0.1611  0.1520
   68MOL   H12425718   7.697   2.640   2.322 -0.5676  0.7897 -0.4261
   68MOL   H12525719   7.796   2.498   2.322 -0.4927 -1.6598 -0.6556
   68MOL   H12625720   7.539   2.475   2.156 -0.8934 -2.7883  0.0282
   68MOL   H12725721   7.654   2.426   2.509  0.6409  2.3413  0.0461
   68MOL   H12825722   7.371   2.430   2.580  1.0535  2.0725  0.5604
   68MOL   H12925723   7.592   2.250   2.674 -0.0674 -0.6378 -1.6078
   68MOL   H13025724   7.485   2.196   2.550  1.0853 -1.3843  0.2946
   68MOL   H13125725   7.424   2.230   2.710  0.7870 -0.6445  1.0319
   68MOL   H13225726   7.616   2.472   2.755  0.2811  0.8278 -0.0547
   68MOL   H13325727   7.528   2.602   2.675 -0.9255 -0.8403 -2.1560
   68MOL   H13425728   7.446   2.504   2.788  1.1941  0.5869  1.3670
   68MOL   C13525729   7.657   2.305   2.224  0.2993  0.2546  0.0326
   68MOL   C13625730   7.548   2.206   2.165  0.9882 -0.3987 -0.4640
   68MOL   C13725731   7.512   2.246   2.017  0.0470 -0.2518 -0.5165
   68MOL   O13825732   7.597   2.220   1.933  0.2228  0.1640 -0.3456
   68MOL   N13925733   7.391   2.294   1.988  0.1124 -0.0989  0.1767
   68MOL   C14025734   7.337   2.293   1.855  0.2544 -0.8770 -0.8211
   68MOL   C14125735   7.238   2.405   1.820 -0.3729 -0.4234 -0.3318
   68MOL   C14225736   7.267   2.157   1.836 -0.0866 -0.3173  0.1794
   68MOL   H14325737   7.684   2.265   2.322 -0.2079  0.8271  0.4148
   68MOL   H14425738   7.748   2.291   2.166  0.0940  0.1624 -0.2664
   68MOL   H14525739   7.458   2.205   2.226  0.8804  0.2840 -0.6062
   68MOL   H14625740   7.325   2.308   2.064 -0.6193 -1.5919 -0.1702
   68MOL   H14725741   7.417   2.312   1.784 -0.7371 -0.6111 -1.8812
   68MOL   H14825742   7.148   2.399   1.881 -1.6008  2.7297 -1.7445
   68MOL   H14925743   7.276   2.507   1.822  0.9668 -0.8470 -2.1660
   68MOL   H15025744   7.228   2.403   1.711  2.9316  2.3138 -0.7657
   68MOL   H15125745   7.331   2.069   1.847 -1.1081 -1.0556  0.2476
   68MOL   H15225746   7.231   2.160   1.733  0.2959  1.3080  0.0824
   68MOL   H15325747   7.187   2.129   1.904 -0.2979 -1.4318 -0.5045
   68MOL   C15425748   7.600   2.064   2.176 -0.2146 -0.3400 -0.0546
   68MOL   C15525749   7.507   1.948   2.131  0.8375  0.0422  0.1813
   68MOL   C15625750   7.386   1.935   2.224 -0.5721  0.5936 -0.5583
   68MOL   O15725751   7.395   1.959   2.346  0.6841 -0.0775 -0.0018
   68MOL   N15825752   7.268   1.914   2.168  0.2930  0.4497 -0.4118
   68MOL   C15925753   7.142   1.905   2.244 -0.5558 -0.1024  0.0484
   68MOL   C16025754   7.058   1.791   2.198 -0.5548  0.2512  0.0617
   68MOL   C16125755   7.068   2.046   2.248 -0.4324  0.0866 -0.2242
   68MOL   H16225756   7.645   2.055   2.275 -0.9908 -4.2719  0.0008
   68MOL   H16325757   7.699   2.058   2.130  0.7251  1.0096  1.7343
   68MOL   H16425758   7.469   1.972   2.031 -0.5401 -0.7625  0.5047
   68MOL   H16525759   7.257   1.897   2.069 -2.4022 -1.5944  0.1785
   68MOL   H16625760   7.168   1.877   2.346  0.6485  0.8876  0.0236
   68MOL   H16725761   7.111   1.703   2.233  1.0426  0.3377 -2.0180
   68MOL   H16825762   6.972   1.782   2.264 -1.2032  1.3196 -0.6239
   68MOL   H16925763   7.040   1.788   2.090 -1.9146 -2.0378  0.3212
   68MOL   H17025764   7.067   2.091   2.149 -0.0191 -0.1678 -0.3452
   68MOL   H17125765   7.125   2.110   2.316 -2.1006  0.9806  0.3635
   68MOL   H17225766   6.970   2.036   2.294 -0.6845 -0.0795 -0.7988
   68MOL   C17325767   7.592   1.817   2.132  0.2175 -0.3209 -0.1361
   68MOL   C17425768   7.506   1.682   2.129 -0.0451  0.6861  0.4278
   68MOL   C17525769   7.444   1.673   1.986  0.3338  0.1221 -0.3211
   68MOL   O17625770   7.520   1.675   1.895 -0.0965 -0.1675  0.9010
   68MOL   N17725771   7.317   1.657   1.977  0.1499  0.7503  0.3743
   68MOL   C17825772   7.239   1.619   1.866 -0.1307 -0.3516 -0.6890
   68MOL   C17925773   7.192   1.739   1.789 -0.6328 -0.7362  0.2483
   68MOL   C18025774   7.122   1.526   1.890 -0.0985 -0.0756 -0.2381
   68MOL   H18125775   7.663   1.808   2.215 -0.3973  0.8896  0.5281
   68MOL   H18225776   7.667   1.807   2.054 -0.7688 -1.0055 -0.9984
   68MOL   H18325777   7.429   1.695   2.205 -1.3063 -1.1259 -0.4923
   68MOL   H18425778   7.279   1.626   2.066  1.0608 -0.1377  0.4637
   68MOL   H18525779   7.315   1.577   1.801  0.2546  0.2948 -0.6572
   68MOL   H18625780   7.279   1.798   1.759 -0.9026 -0.0553  0.7680
   68MOL   H18725781   7.122   1.801   1.847 -1.5593 -0.6982 -0.8949
   68MOL   H18825782   7.148   1.713   1.693  0.9597 -1.0657 -0.3922
   68MOL   H18925783   7.148   1.430   1.935  0.0721  0.9002  1.8088
   68MOL   H19025784   7.074   1.521   1.792  2.0343  2.5833 -1.4798
   68MOL   H19125785   7.050   1.579   1.953 -2.4270 -1.8534 -1.3445
   68MOL   C19225786   7.593   1.559   2.167 -0.9892  0.3235 -0.5546
   68MOL   C19325787   7.543   1.435   2.248  0.2989 -0.7741  0.1391
   68MOL   C19425788   7.420   1.365   2.185 -0.5127  0.1558  0.0596
   68MOL   O19525789   7.311   1.423   2.183 -0.4510  0.5646 -0.3670
   68MOL   N19625790   7.438   1.246   2.119 -0.4417 -0.6733  0.1255
   68MOL   C19725791   7.344   1.196   2.016  0.3661 -0.2294  0.5007
   68MOL   C19825792   7.411   1.180   1.882  0.1455 -0.4398  0.0274
   68MOL   C19925793   7.280   1.061   2.058 -0.0396  0.3977  0.4453
   68MOL   H20025794   7.669   1.596   2.236 -0.2923  0.2789 -1.2974
   68MOL   H20125795   7.657   1.515   2.090  0.4052 -0.6192  1.0940
   68MOL   H20225796   7.626   1.366   2.259  0.7542  0.0875  2.2543
   68MOL   H20325797   7.530   1.205   2.116 -0.0556  0.0060  1.8978
   68MOL   H20425798   7.269   1.272   1.998 -0.6192 -1.3018  0.0356
   68MOL   H20525799   7.331   1.168   1.810 -0.8589  3.1682  0.4583
   68MOL   H20625800   7.474   1.091   1.875  0.5559 -0.1132 -0.4516
   68MOL   H20725801   7.465   1.273   1.863 -0.7214  0.3780  1.4333
   68MOL   H20825802   7.230   1.065   2.154  0.0701 -0.1879  0.5333
   68MOL   H20925803   7.340   0.972   2.076 -0.3704 -0.1629 -1.1321
   68MOL   H21025804   7.203   1.032   1.985 -0.0224  1.9261 -0.1901
   68MOL   C21125805   7.509   1.474   2.402  0.1380 -0.1608  0.4707
   68MOL   C21225806   7.567   1.388   2.510 -0.0838  0.3972 -0.3029
   68MOL   C21325807   7.490   1.263   2.537  0.4782 -0.4063  0.3007
   68MOL   O21425808   7.529   1.150   2.496 -0.6611  0.0005  0.0900
   68MOL   N21525809   7.360   1.282   2.568  0.5245 -0.3009 -0.5864
   68MOL   C21625810   7.244   1.186   2.565  0.4039 -0.3741 -0.1467
   68MOL   C21725811   7.142   1.233   2.454 -0.0095  0.5811 -0.3568
   68MOL   C21825812   7.187   1.177   2.712  0.1764  0.2868 -0.3196
   68MOL   H21925813   7.400   1.485   2.405 -0.0242 -1.5029 -0.1738
   68MOL   H22025814   7.542   1.575   2.427  1.5104 -0.3720 -0.4592
   68MOL   H22125815   7.542   1.451   2.595 -2.1330 -1.0994  0.2592
   68MOL   H22225816   7.330   1.373   2.598  0.3298 -0.5002 -0.1589
   68MOL   H22325817   7.279   1.085   2.540  1.2216 -0.3479  0.8352
   68MOL   H22425818   7.173   1.233   2.349 -0.7860  2.4024 -0.6029
   68MOL   H22525819   7.059   1.163   2.461 -1.6326  2.5112  0.1297
   68MOL   H22625820   7.097   1.325   2.490 -0.3655 -0.1482  1.0865
   68MOL   H22725821   7.132   1.268   2.732 -2.6111 -2.1923  4.0176
   68MOL   H22825822   7.266   1.163   2.786 -2.1204  0.2926  2.1769
   68MOL   H22925823   7.118   1.095   2.729  0.7146 -0.0307  0.3770
   68MOL   C23025824   7.722   1.373   2.519 -1.1832  0.2434 -0.4753
   68MOL   C23125825   7.774   1.310   2.652 -0.4804  0.4082 -0.4666
   68MOL   C23225826   0.048   1.204   2.620  0.4797 -0.3202 -0.3016
   68MOL   O23325827   0.173   1.227   2.627  0.2291  0.1973 -0.4717
   68MOL   N23425828   0.001   1.080   2.598  0.2058 -0.1079  0.2160
   68MOL   C23525829   0.075   0.953   2.605 -0.3527 -0.2593 -0.5159
   68MOL   C23625830   0.069   0.899   2.745 -0.2386  0.3480 -0.1330
   68MOL   C23725831   0.035   0.848   2.502  0.2888 -0.3108  0.3958
   68MOL   H23825832   7.766   1.470   2.496 -0.6957 -0.0273 -0.6714
   68MOL   H23925833   7.770   1.326   2.434  1.0712  0.7152  0.5085
   68MOL   H24025834   7.695   1.254   2.701 -1.3855  1.3695 -0.7894
   68MOL   H24125835   7.740   1.077   2.571  0.5559 -1.3937 -1.0069
   68MOL   H24225836   0.179   0.969   2.579 -0.5820 -0.8032 -1.8024
   68MOL   H24325837   0.154   0.834   2.769  0.0611  1.6564  2.5016
   68MOL   H24425838   0.085   0.966   2.829  0.6522 -0.3753  0.2922
   68MOL   H24525839   7.813   0.844   2.764 -0.9761  0.8437 -2.1533
   68MOL   H24625840   0.088   0.753   2.493  0.1311 -0.1455 -2.7433
   68MOL   H24725841   0.057   0.887   2.402 -1.5404  1.4544  0.6493
   68MOL   H24825842   7.766   0.821   2.502  0.0922  0.4048 -0.5708
   68MOL   C24925843   7.836   1.409   2.758  0.4634 -0.5354  0.1152
   68MOL   C25025844   7.831   1.362   2.912  0.7551  0.3863  0.0288
   68MOL   C25125845   7.693   1.391   2.965 -0.7698  0.0675  0.1895
   68MOL   O25225846   7.638   1.499   2.941  0.4090 -0.0195 -0.1319
   68MOL   N25325847   7.638   1.293   3.036 -0.1782  0.4085 -0.5656
   68MOL   C25425848   7.520   1.296   3.113 -0.3480 -1.3257 -0.2403
   68MOL   C25525849   7.442   1.160   3.109 -0.6403  0.1603 -0.7991
   68MOL   C25625850   7.537   1.350   3.256  0.0078  0.0599 -0.3148
   68MOL   H25725851   7.790   1.508   2.751  0.0218 -0.7236  0.3402
   68MOL   H25825852   0.106   1.425   2.740  0.5329 -1.0097  0.1103
   68MOL   H25925853   0.009   1.254   2.918 -1.2664  0.1384  0.6584
   68MOL   H26025854   7.692   1.207   3.039 -1.7888 -0.5915  1.4008
   68MOL   H26125855   7.459   1.371   3.063 -1.8334 -1.4546  1.3013
   68MOL   H26225856   7.344   1.151   3.156 -0.2423  1.3850  0.2914
   68MOL   H26325857   7.422   1.132   3.006 -0.0662  0.6142 -1.0381
   68MOL   H26425858   7.509   1.081   3.143  0.4669  1.2619 -0.3925
   68MOL   H26525859   7.443   1.398   3.283  0.1192 -0.1449  0.4594
   68MOL   H26625860   7.538   1.264   3.323 -1.0419 -0.8485 -1.4248
   68MOL   H26725861   7.620   1.419   3.272  0.9002 -0.7627 -1.3108
   68MOL   C26825862   0.100   1.443   2.989 -0.3147 -0.1397  0.9263
   68MOL   C26925863   0.117   1.433   3.139 -0.5574  0.9147  0.4800
   68MOL   C27025864   0.117   1.292   3.197 -0.3207 -0.1837 -0.6048
   68MOL   O27125865   0.150   1.202   3.122  0.3083 -0.0896  0.3147
   68MOL   N27225866   0.083   1.272   3.326  0.1048  0.3755  0.1598
   68MOL   C27325867   0.102   1.156   3.410  0.8449 -0.8934  0.4791
   68MOL   C27425868   0.175   1.197   3.539  0.2287  0.4519  0.4621
   68MOL   C27525869   7.799   1.099   3.443 -0.1579 -0.6932 -0.0295
   68MOL   H27625870   0.199   1.420   2.951 -0.0314 -0.0973  1.6501
   68MOL   H27725871   0.086   1.550   2.980  1.9246  0.1925  1.3232
   68MOL   H27825872   0.026   1.479   3.176 -1.3750 -0.6765  0.4743
   68MOL   H27925873   0.028   1.349   3.360  0.5022  0.6139  0.2648
   68MOL   H28025874   0.167   1.081   3.366  2.2586  2.1072 -2.7941
   68MOL   H28125875   0.271   1.243   3.518 -0.6592  0.4759 -4.1345
   68MOL   H28225876   0.127   1.255   3.617 -0.4265 -1.1831  1.3050
   68MOL   H28325877   0.178   1.101   3.591  1.1111  0.5076  0.5140
   68MOL   H28425878   7.752   1.147   3.529 -0.4217  0.3092 -0.7280
   68MOL   H28525879   7.735   1.075   3.358 -0.2535  0.0960 -0.1801
   68MOL   H28625880   7.821   1.002   3.489 -0.9239 -0.4534  0.8653
   68MOL   C28725881   0.239   1.515   3.185 -0.2453  0.2126  0.0521
   68MOL   C28825882   0.262   1.540   3.339 -0.3933  0.3025  0.2071
   68MOL   C28925883   0.140   1.606   3.403  0.3733 -0.3101  0.0101
   68MOL   O29025884   0.105   1.710   3.355 -0.0344  0.4889 -0.0059
   68MOL   N29125885   0.103   1.558   3.516 -0.1538 -0.5784 -0.7125
   68MOL   C29225886   7.829   1.606   3.602  0.1562 -0.2986  0.7211
   68MOL   C29325887   7.699   1.540   3.560 -0.9821 -0.6670 -0.5626
   68MOL   C29425888   0.025   1.574   3.752  0.4934 -0.4296 -0.0370
   68MOL   H29525889   0.322   1.457   3.146 -1.4553 -0.6924 -1.2463
   68MOL   H29625890   0.249   1.614   3.141  0.6891  0.2748  0.3951
   68MOL   H29725891   0.281   1.441   3.381 -1.7765  0.1505  0.4948
   68MOL   H29825892   0.152   1.476   3.547 -0.0076  0.0228  0.6876
   68MOL   H29925893   7.814   1.713   3.593  1.4408 -0.0357  1.6155
   68MOL   H30025894   7.620   1.545   3.635  0.1173  1.2398  0.5202
   68MOL   H30125895   7.655   1.582   3.470 -0.6983 -0.5448 -0.6473
   68MOL   H30225896   7.718   1.437   3.528 -1.7235 -0.2326 -2.4415
   68MOL   H30325897   0.036   1.466   3.767  0.9687 -0.4599 -0.5778
   68MOL   H30425898   0.120   1.620   3.777  0.0195 -0.5338  2.0486
   68MOL   H30525899   7.782   1.611   3.817  0.2020  0.4355 -0.8802
   68MOL   C30625900   0.393   1.619   3.356 -0.4268  0.0915  0.1836
   68MOL   C30725901   0.488   1.574   3.473  0.0954 -0.1554 -0.0109
   68MOL   C30825902   0.534   1.427   3.460 -0.4988 -0.4844 -0.4156
   68MOL   O30925903   0.524   1.345   3.549  0.1038 -0.5958  0.1911
   68MOL   N31025904   0.593   1.394   3.344  0.7049  0.1239 -0.0739
   68MOL   C31125905   0.631   1.259   3.302 -0.6133  0.0771 -0.8578
   68MOL   C31225906   0.509   1.167   3.276  0.6692 -0.1223 -0.2053
   68MOL   C31325907   0.719   1.279   3.180 -0.9456  0.4647  0.7303
   68MOL   H31425908   0.454   1.604   3.267  2.0025  2.7368  1.3467
   68MOL   H31525909   0.375   1.727   3.356 -0.0285  0.1572 -0.1206
   68MOL   H31625910   0.583   1.623   3.453 -0.0862  0.6309  1.0210
   68MOL   H31725911   0.610   1.466   3.275 -2.0293 -0.8762 -1.8977
   68MOL   H31825912   0.686   1.209   3.383  0.3675  0.3693 -1.3346
   68MOL   H31925913   0.435   1.181   3.355 -0.4027  0.4225 -1.2910
   68MOL   H32025914   0.536   1.067   3.240 -3.0229 -0.9881 -0.7864
   68MOL   H32125915   0.450   1.201   3.191 -0.6384 -2.5896 -0.3570
   68MOL   H32225916   0.805   1.345   3.193  0.4094 -1.0461 -0.3188
   68MOL   H32325917   0.656   1.322   3.103  1.0213 -0.7947 -1.6498
   68MOL   H32425918   0.749   1.184   3.136  0.0214  1.2303 -0.2955
   68MOL   C32525919   0.431   1.615   3.611 -0.1862 -0.8541 -0.1184
   68MOL   C32625920   0.449   1.773   3.628 -0.3099 -0.0444 -0.0432
   68MOL   C32725921   0.318   1.829   3.679 -0.0580 -1.1143 -0.2964
   68MOL   O32825922   0.286   1.812   3.796 -0.6474 -0.3595 -0.2212
   68MOL   N32925923   0.245   1.900   3.590 -0.1008  0.1084  0.6417
   68MOL   C33025924   0.123   1.980   3.607  0.2857 -0.5066 -0.0396
   68MOL   C33125925   0.065   2.049   3.477  0.5064  0.5871  0.2699
   68MOL   C33225926   0.141   2.093   3.709 -0.4960  0.1157 -0.3336
   68MOL   H33325927   0.486   1.559   3.687  0.9556 -1.7163 -1.5586
   68MOL   H33425928   0.332   1.575   3.632 -1.4991  1.7878 -1.0752
   68MOL   H33525929   0.479   1.823   3.536  0.6193 -0.6903 -0.0942
   68MOL   H33625930   0.290   1.939   3.509 -0.7581 -3.6924 -1.6827
   68MOL   H33725931   0.042   1.919   3.647  0.8768 -1.5278 -0.3950
   68MOL   H33825932   0.144   2.085   3.412  1.8291 -1.1428  0.8730
   68MOL   H33925933   7.831   1.980   3.431 -1.0873  1.3603  1.5019
   68MOL   H34025934   0.016   2.142   3.506 -2.2647 -0.6029 -0.4837
   68MOL   H34125935   0.053   2.156   3.722 -0.6135 -0.0474 -0.3359
   68MOL   H34225936   0.227   2.155   3.683  0.8467 -1.8730 -0.7573
   68MOL   H34325937   0.163   2.058   3.810  1.7719  1.5407 -0.2944
   68MOL   C34425938   0.564   1.797   3.726  0.2480  0.5117 -0.7429
   68MOL   C34525939   0.597   1.944   3.756  0.2258  0.2820  1.1321
   68MOL   C34625940   0.673   1.942   3.885 -0.2943 -0.9957  0.0287
   68MOL   O34725941   0.624   1.993   3.986  0.0598 -0.5338  0.1953
   68MOL   N34825942   0.803   1.900   3.885  0.3802 -0.4490 -0.6293
   68MOL   C34925943   0.898   1.898   3.994 -0.0876 -0.0629  0.3951
   68MOL   C35025944   1.025   1.805   3.962  0.4538 -0.2594 -0.3944
   68MOL   C35125945   0.957   2.037   4.010  0.0723 -0.2221 -0.0157
   68MOL   H35225946   0.651   1.741   3.691  0.9903  2.3879 -2.0032
   68MOL   H35325947   0.534   1.743   3.816 -3.0372 -0.0557 -2.1036
   68MOL   H35425948   0.504   1.994   3.784  0.1710  0.8005  0.0644
   68MOL   H35525949   0.840   1.875   3.795 -1.7248 -3.8275 -0.6524
   68MOL   H35625950   0.843   1.874   4.085 -0.7443 -1.1663 -0.2750
   68MOL   H35725951   1.000   1.705   3.926  1.2367 -0.4649 -0.3884
   68MOL   H35825952   1.065   1.843   3.867 -1.4910 -1.0449 -1.5469
   68MOL   H35925953   1.092   1.802   4.048 -0.4517  2.0173  0.4352
   68MOL   H36025954   1.000   2.076   3.918  0.6402  2.4855  1.3291
   68MOL   H36125955   0.879   2.103   4.047 -0.6097 -1.4229  0.7077
   68MOL   H36225956   1.033   2.044   4.088 -1.9743 -1.8845  2.1711
   68MOL   C36325957   0.660   2.029   3.645 -0.3284 -0.2042 -0.1049
   68MOL   C36425958   0.740   2.161   3.666 -0.1625  0.5796  0.8458
   68MOL   C36525959   0.646   2.282   3.696 -0.1087 -0.0737  0.0790
   68MOL   O36625960   0.652   2.384   3.629 -0.2358 -0.5013 -0.0990
   68MOL   N36725961   0.575   2.277   3.809 -0.0770  0.0490  0.0604
   68MOL   C36825962   0.518   2.384   3.894  0.2131  0.1871  0.0213
   68MOL   C36925963   0.413   2.314   3.979 -0.2927 -0.4817 -1.0359
   68MOL   C37025964   0.625   2.453   3.967 -0.1236  0.1783  0.1548
   68MOL   H37125965   0.584   2.056   3.572  0.5172  3.0580  0.1543
   68MOL   H37225966   0.711   1.957   3.581  1.6332  1.4527 -0.4684
   68MOL   H37325967   0.794   2.175   3.573  2.3025 -3.5663  1.5260
   68MOL   H37425968   0.565   2.191   3.861 -3.2570  1.4208  1.8525
   68MOL   H37525969   0.476   2.464   3.832 -2.4311 -1.2220 -0.1181
   68MOL   H37625970   0.357   2.248   3.913 -2.9135 -0.1234  0.7544
   68MOL   H37725971   0.465   2.253   4.052  1.5795  3.0631  0.7060
   68MOL   H37825972   0.346   2.394   4.012  1.2152  0.4311 -0.1471
   68MOL   H37925973   0.717   2.465   3.910 -0.5487  3.3515  0.0508
   68MOL   H38025974   0.597   2.551   4.005 -1.5415  0.5752 -1.8613
   68MOL   H38125975   0.638   2.385   4.052 -0.4512  2.7530  2.3358
   68MOL   H38225976   0.820   2.142   3.738 -0.6283 -2.8787  0.5427
   69MOL     C125977   5.102   3.912   5.908 -0.2875  0.3419 -0.6419
   69MOL     C225978   5.176   3.885   6.044  0.1370 -0.6372  0.6511
   69MOL     C325979   5.120   3.749   6.091  0.2078 -0.1164 -0.3662
   69MOL     O425980   5.094   3.652   6.016 -0.4194  0.6197 -0.1925
   69MOL     N525981   5.119   3.738   6.222 -0.2066  0.5645 -0.1932
   69MOL     C625982   5.053   3.639   6.303  0.5413 -0.6093  0.5263
   69MOL     C725983   5.147   3.605   6.420 -0.4829  0.6591 -0.1983
   69MOL     C825984   4.925   3.704   6.368 -0.2089 -0.3863 -0.2838
   69MOL     H925985   5.124   3.828   5.843 -1.1327 -0.7736  0.4678
   69MOL    H1025986   5.123   4.006   5.858 -0.8705  0.1795 -1.2007
   69MOL    H1125987   5.157   3.975   6.102  1.5730  0.7161 -0.9369
   69MOL    H1225988   5.166   3.813   6.271  0.3633  1.1765 -1.6261
   69MOL    H1325989   5.023   3.552   6.245 -0.5170 -1.3998  2.2045
   69MOL    H1425990   5.149   3.685   6.494 -2.7963 -0.0317  0.6354
   69MOL    H1525991   5.254   3.596   6.400  0.0425  1.3898  2.0785
   69MOL    H1625992   5.116   3.513   6.469  0.5920  0.4732  0.1536
   69MOL    H1725993   4.864   3.630   6.421 -0.2265 -0.1399  0.0376
   69MOL    H1825994   4.957   3.791   6.425 -1.5083  0.7095 -1.1777
   69MOL    H1925995   4.863   3.744   6.288  0.3743  2.1699  0.4973
   69MOL    H2025996   4.994   3.910   5.925  0.1190  0.7753  2.3434
   69MOL    C2125997   5.334   3.875   6.032  0.3801 -0.3502 -0.0951
   69MOL    C2225998   5.403   3.768   5.936 -0.0721  0.1434  0.1206
   69MOL    C2325999   5.438   3.643   6.011  0.3783 -0.2868 -0.1279
   69MOL    O2426000   5.525   3.649   6.102  0.0595  0.2626 -0.1446
   69MOL    N2526001   5.365   3.537   5.987  0.4017  0.1841  0.8037
   69MOL    C2626002   5.389   3.412   6.061  0.5906 -0.0187  0.3274
   69MOL    C2726003   5.327   3.309   5.962  0.3501  0.2059  0.1122
   69MOL    C2826004   5.310   3.400   6.194  0.2201  0.3126  0.1001
   69MOL    H2926005   5.363   3.841   6.131 -0.4082  2.0974  1.0090
   69MOL    H3026006   5.378   3.975   6.023  0.7601 -0.4788  0.2945
   69MOL    H3126007   5.350   3.733   5.847  3.8024  0.9944 -2.6668
   69MOL    H3226008   5.280   3.537   5.931  1.2836 -0.6175 -0.5658
   69MOL    H3326009   5.496   3.388   6.066  0.6612  0.1372 -0.4458
   69MOL    H3426010   5.218   3.319   5.956  0.0970 -0.6204  2.6171
   69MOL    H3526011   5.361   3.213   6.002  1.9564  0.3393 -0.8948
   69MOL    H3626012   5.365   3.317   5.860  2.2276  0.5956  0.8400
   69MOL    H3726013   5.289   3.299   6.229  1.9769  0.3025  1.1815
   69MOL    H3826014   5.367   3.459   6.266 -1.2789 -0.1500  1.6943
   69MOL    H3926015   5.214   3.451   6.195 -0.1564 -0.3881 -0.1372
   69MOL    C4026016   5.541   3.823   5.879  0.1445 -0.5107 -0.2571
   69MOL    C4126017   5.520   3.935   5.778 -0.2650  0.1952  0.7641
   69MOL    C4226018   5.445   3.887   5.651  0.7124  0.2667  0.0556
   69MOL    O4326019   5.486   3.786   5.595  0.0805 -0.3499 -0.2831
   69MOL    N4426020   5.346   3.972   5.608 -0.3645 -0.7460 -0.2367
   69MOL    C4526021   5.261   3.949   5.495  0.1254 -0.1435  0.2538
   69MOL    C4626022   5.113   3.949   5.536  0.1529  0.8569  0.6861
   69MOL    C4726023   5.294   4.049   5.384 -1.2166  0.3567  0.0974
   69MOL    H4826024   5.602   3.741   5.841  2.1555  0.5557  0.5371
   69MOL    H4926025   5.588   3.870   5.966  2.1245  0.1624 -1.6412
   69MOL    H5026026   5.458   4.017   5.815  0.8167  0.1803  2.6626
   69MOL    H5126027   5.337   4.051   5.669  0.6552 -3.2122  3.2899
   69MOL    H5226028   5.284   3.849   5.457 -0.8220 -0.3464  0.2153
   69MOL    H5326029   5.062   3.915   5.446  3.3532 -0.9351 -0.5389
   69MOL    H5426030   5.079   4.047   5.569 -3.2912 -0.7547  2.1770
   69MOL    H5526031   5.088   3.876   5.613  0.0908 -0.6998 -0.7672
   69MOL    H5626032   5.401   4.060   5.369 -1.1673 -1.6074 -1.2181
   69MOL    H5726033   5.266   4.152   5.404 -1.4152  0.3019  0.1065
   69MOL    H5826034   5.240   4.022   5.293  0.0094 -2.7842  0.2480
   69MOL    C5926035   5.649   4.010   5.741 -0.4840  0.2276 -0.2875
   69MOL    C6026036   5.701   4.115   5.842  0.8382  0.1790 -0.9306
   69MOL    C6126037   5.605   4.241   5.861  0.5815  0.0351  0.3437
   69MOL    O6226038   5.499   4.231   5.920  0.2443  0.4748  0.0466
   69MOL    N6326039   5.632   4.354   5.793 -0.5276 -0.5932  0.0124
   69MOL    C6426040   5.557   4.481   5.797 -0.9565  0.0524  0.2017
   69MOL    C6526041   5.657   4.603   5.824  1.1635 -0.3533 -0.0733
   69MOL    C6626042   5.486   4.510   5.666 -0.7528 -0.0321 -1.1461
   69MOL    H6726043   5.729   3.939   5.722 -2.0273 -1.1732 -1.6704
   69MOL    H6826044   5.633   4.059   5.645  0.9329  0.8637 -0.2114
   69MOL    H6926045   5.699   4.071   5.941  0.4367  1.2266 -0.4583
   69MOL    H7026046   5.707   4.358   5.726 -0.4561 -2.5813 -0.0735
   69MOL    H7126047   5.476   4.476   5.870 -2.3173 -1.9393 -1.3814
   69MOL    H7226048   5.748   4.561   5.867  2.5292  1.3815 -1.1618
   69MOL    H7326049   5.686   4.667   5.741 -0.6061  1.8476  0.9719
   69MOL    H7426050   5.620   4.665   5.905 -2.7634 -1.3443 -1.0335
   69MOL    H7526051   5.430   4.422   5.635 -1.1361 -0.6228  1.1004
   69MOL    H7626052   5.423   4.598   5.677 -0.2263  0.3874 -1.4909
   69MOL    H7726053   5.562   4.522   5.589 -0.3902 -0.4458 -0.8595
   69MOL    C7826054   5.849   4.153   5.826 -0.4464  0.2277  0.3521
   69MOL    C7926055   5.898   4.237   5.952 -0.5142 -0.1635 -0.5067
   69MOL    C8026056   5.889   4.153   6.084  0.0704  0.1973 -0.0173
   69MOL    O8126057   5.856   4.210   6.190  0.1674  0.2335 -0.1165
   69MOL    N8226058   5.926   4.023   6.072 -0.0680  0.0862 -0.4053
   69MOL    C8326059   5.936   3.938   6.182  0.0206  0.1862 -0.2807
   69MOL    C8426060   5.848   3.814   6.155  0.3181 -0.4860  0.0626
   69MOL    C8526061   6.076   3.897   6.223  0.0153  1.3035 -0.6119
   69MOL    H8626062   5.875   4.207   5.735 -1.2641 -1.9388 -1.2409
   69MOL    H8726063   5.904   4.059   5.821  2.6160  2.0807 -2.7874
   69MOL    H8826064   5.837   4.327   5.961 -1.3300 -0.8958  1.7493
   69MOL    H8926065   5.943   3.985   5.980  1.0918 -1.7593  0.5224
   69MOL    H9026066   5.889   3.982   6.270  1.2835  2.0106 -0.5067
   69MOL    H9126067   5.743   3.839   6.141  0.0303 -2.9895 -2.8481
   69MOL    H9226068   5.876   3.761   6.064 -1.0091 -0.1877 -0.5320
   69MOL    H9326069   5.854   3.743   6.238  1.0031 -2.2183 -1.4333
   69MOL    H9426070   6.111   3.809   6.169 -0.8273  0.8084 -0.3579
   69MOL    H9526071   6.086   3.869   6.328 -0.3913  0.3813 -0.8148
   69MOL    H9626072   6.143   3.981   6.204 -0.0694  1.9267  1.6309
   69MOL    C9726073   6.038   4.298   5.932 -0.3783  0.8549 -0.0001
   69MOL    C9826074   6.081   4.409   6.045 -0.1669 -0.0872 -0.8285
   69MOL    C9926075   5.984   4.530   6.044  0.4079  0.3894  0.7686
   69MOL   O10026076   6.005   4.613   5.953  0.2668 -0.0241  0.0421
   69MOL   N10126077   5.900   4.541   6.148 -0.0164  0.2960  0.5729
   69MOL   C10226078   5.804   4.651   6.162  0.5679 -0.3961  0.7390
   69MOL   C10326079   5.666   4.590   6.185 -0.6039 -0.3931 -0.3236
   69MOL   C10426080   5.841   4.745   6.281  0.2618 -0.2052  0.1904
   69MOL   H10526081   6.040   4.337   5.830  0.4995 -1.9281 -1.1034
   69MOL   H10626082   6.112   4.218   5.929  0.4336  1.6359 -1.8881
   69MOL   H10726083   6.085   4.363   6.143  0.6011  0.2400 -0.7031
   69MOL   H10826084   5.903   4.465   6.215 -2.1491 -0.2693  0.0758
   69MOL   H10926085   5.804   4.712   6.072 -0.1527  0.9820  1.6554
   69MOL   H11026086   5.585   4.661   6.206 -0.9535 -0.6880 -0.6515
   69MOL   H11126087   5.638   4.528   6.099 -0.0360 -1.3539  0.1763
   69MOL   H11226088   5.676   4.534   6.278  1.9142 -1.6270 -1.3129
   69MOL   H11326089   5.813   4.694   6.373  0.4380  2.8066  1.9674
   69MOL   H11426090   5.800   4.845   6.271 -0.8907 -0.4474  2.2960
   69MOL   H11526091   5.947   4.769   6.273  0.0566  0.5673 -0.2055
   69MOL   C11626092   6.230   4.443   6.013  0.4112 -0.3141  0.1372
   69MOL   C11726093   6.331   4.505   6.115  0.6685 -0.4192  0.9982
   69MOL   C11826094   6.334   4.438   6.258  0.3267 -0.9472  0.1664
   69MOL   O11926095   6.245   4.465   6.339  0.0025 -0.3790  0.1508
   69MOL   N12026096   6.431   4.351   6.279  0.4033 -0.1366  0.4232
   69MOL   C12126097   6.453   4.278   6.400 -0.2829 -0.2350  0.1742
   69MOL   C12226098   6.413   4.137   6.370 -0.7710  0.3327  0.1053
   69MOL   C12326099   6.596   4.286   6.440  0.1025  0.5543  0.3353
   69MOL   H12426100   6.245   4.507   5.926  0.4409  0.1033  0.4467
   69MOL   H12526101   6.265   4.347   5.975  1.8828  0.2763 -0.0261
   69MOL   H12626102   6.429   4.480   6.074  0.8899 -1.4720  2.1306
   69MOL   H12726103   6.502   4.349   6.207 -2.3815  0.3579 -2.4886
   69MOL   H12826104   6.393   4.322   6.480  1.6159 -0.3675  1.6798
   69MOL   H12926105   6.389   4.073   6.455 -0.7356 -1.1419 -0.9620
   69MOL   H13026106   6.491   4.088   6.312  0.6286  0.9126  1.4743
   69MOL   H13126107   6.328   4.130   6.301  0.2763 -0.8491 -1.0855
   69MOL   H13226108   6.667   4.258   6.362 -1.3426  0.0400 -0.8262
   69MOL   H13326109   6.617   4.391   6.460  0.4292  0.8456 -1.4907
   69MOL   H13426110   6.607   4.226   6.531 -0.0201  2.0488  1.3506
   69MOL   C13526111   6.323   4.656   6.147  0.4486 -0.0649  0.6521
   69MOL   C13626112   6.381   4.734   6.028  0.0131 -0.3422 -0.0925
   69MOL   C13726113   6.295   4.857   6.006 -0.1801 -0.3626  0.2733
   69MOL   O13826114   6.343   4.968   6.025 -0.2838  0.2238 -0.3711
   69MOL   N13926115   6.178   4.838   5.945  0.4761  0.4089  0.4315
   69MOL   C14026116   6.097   4.950   5.895  0.2341 -0.1423  0.1100
   69MOL   C14126117   6.045   5.015   6.017  0.2946 -0.9380  0.1529
   69MOL   C14226118   5.994   4.906   5.791  0.4288  0.8163 -0.8704
   69MOL   H14326119   6.378   4.692   6.234  1.3125  0.2784 -0.0256
   69MOL   H14426120   6.218   4.674   6.166  0.4658 -1.5331  2.2297
   69MOL   H14526121   6.366   4.677   5.937 -1.7606 -1.3694  0.8171
   69MOL   H14626122   6.154   4.742   5.923  0.7188  0.6027 -0.6539
   69MOL   H14726123   6.160   5.023   5.843 -2.8011  2.9431  0.5904
   69MOL   H14826124   6.007   4.949   6.095 -1.2300  0.3413  0.5130
   69MOL   H14926125   6.121   5.083   6.055 -0.4394 -0.1321  0.1827
   69MOL   H15026126   5.959   5.075   5.987 -1.6115 -3.2311  0.8695
   69MOL   H15126127   5.918   4.841   5.834  1.0546  0.1208 -0.7988
   69MOL   H15226128   6.047   4.856   5.709  0.1884  3.6174 -2.7960
   69MOL   H15326129   5.938   4.990   5.748 -1.5432  0.0780  0.1838
   69MOL   C15426130   6.538   4.747   6.047  0.4784 -0.6441  0.0917
   69MOL   C15526131   6.624   4.849   5.955 -0.2707  0.3647 -0.3859
   69MOL   C15626132   6.603   4.836   5.802  0.0535  0.1761 -0.3264
   69MOL   O15726133   6.646   4.738   5.737 -0.0614 -0.1573 -0.2114
   69MOL   N15826134   6.536   4.929   5.742  0.0159 -0.6222 -0.2999
   69MOL   C15926135   6.497   4.935   5.601 -0.3873 -0.0995  0.1097
   69MOL   C16026136   6.363   4.865   5.576  0.7890  0.2605 -0.7879
   69MOL   C16126137   6.604   4.884   5.496  0.6702  0.5128 -0.0839
   69MOL   H16226138   6.574   4.644   6.043 -1.0408 -1.2044  0.6412
   69MOL   H16326139   6.569   4.767   6.149  1.0310 -0.8555 -0.0335
   69MOL   H16426140   6.592   4.946   5.993 -2.2274 -0.4626  0.1355
   69MOL   H16526141   6.491   4.995   5.803 -1.8646 -2.2711  0.1368
   69MOL   H16626142   6.488   5.043   5.586 -0.3600 -0.0037  0.7478
   69MOL   H16726143   6.371   4.762   5.611 -1.8013  0.2823 -0.0705
   69MOL   H16826144   6.278   4.917   5.620  1.1550  2.4163 -2.5178
   69MOL   H16926145   6.332   4.843   5.474 -0.6918 -0.5423 -0.1846
   69MOL   H17026146   6.706   4.901   5.531 -0.2388 -0.3092  3.1422
   69MOL   H17126147   6.583   4.917   5.395  0.7908  0.6328 -0.0680
   69MOL   H17226148   6.596   4.776   5.484  0.5152  0.5287 -0.1201
   69MOL   C17326149   6.773   4.826   5.988 -0.1400 -0.8277 -0.0666
   69MOL   C17426150   6.834   4.683   5.963  0.2084 -0.2277  0.2372
   69MOL   C17526151   6.967   4.708   5.880 -0.7037  0.7320  0.5994
   69MOL   O17626152   7.072   4.745   5.934  0.0782  0.4650  0.0297
   69MOL   N17726153   6.961   4.677   5.750  0.0986  0.1455 -0.5451
   69MOL   C17826154   7.068   4.671   5.644 -0.6573  0.1572 -0.8968
   69MOL   C17926155   7.145   4.537   5.652 -0.1887  0.1548  1.4607
   69MOL   C18026156   7.154   4.799   5.649  0.1604  0.6278  0.0698
   69MOL   H18126157   6.789   4.850   6.093 -3.6791 -1.3096  0.6275
   69MOL   H18226158   6.827   4.904   5.934 -2.8807  2.4595  1.7808
   69MOL   H18326159   6.766   4.619   5.908  0.6842  0.2410 -0.8972
   69MOL   H18426160   6.868   4.672   5.711 -0.4541  2.3018  0.4417
   69MOL   H18526161   7.034   4.669   5.541  1.3389  0.3159 -1.5775
   69MOL   H18626162   7.229   4.532   5.582 -1.3274  0.9981  0.0252
   69MOL   H18726163   7.084   4.450   5.626  1.1180 -0.1719 -0.6273
   69MOL   H18826164   7.185   4.527   5.753 -0.4198  0.2372  1.5574
   69MOL   H18926165   7.238   4.783   5.717 -1.6377 -0.6007  2.0713
   69MOL   H19026166   7.107   4.893   5.676 -0.2940  0.7196 -1.0437
   69MOL   H19126167   7.200   4.803   5.550 -0.0417 -0.6879 -0.0898
   69MOL   C19226168   6.862   4.612   6.097 -0.5130 -0.4110  0.2973
   69MOL   C19326169   6.894   4.460   6.069  0.4828  0.9234 -0.3193
   69MOL   C19426170   6.764   4.376   6.034  0.1048  0.6444  0.1107
   69MOL   O19526171   6.677   4.337   6.111  0.0786  0.4671 -0.0944
   69MOL   N19626172   6.759   4.347   5.898 -0.3788  0.2634 -0.2425
   69MOL   C19726173   6.658   4.288   5.816  0.6412  0.0499  0.6480
   69MOL   C19826174   6.561   4.390   5.755 -0.4484 -0.5726 -0.2643
   69MOL   C19926175   6.716   4.194   5.711 -0.6374 -1.0241 -0.1123
   69MOL   H20026176   6.779   4.613   6.169 -0.1218  1.6716  0.7505
   69MOL   H20126177   6.944   4.653   6.155 -1.0025 -0.7317  1.2308
   69MOL   H20226178   6.950   4.457   5.975 -0.5766 -1.7410 -0.9102
   69MOL   H20326179   6.851   4.356   5.856 -0.2281 -0.7946 -0.1697
   69MOL   H20426180   6.598   4.235   5.891  1.4851 -1.2258  0.4423
   69MOL   H20526181   6.598   4.421   5.657 -1.0228  0.5731 -0.1253
   69MOL   H20626182   6.535   4.472   5.821 -1.7562  0.2413 -1.7606
   69MOL   H20726183   6.472   4.329   5.735 -0.7045 -0.1336 -0.4769
   69MOL   H20826184   6.806   4.144   5.747 -1.1214 -2.4883 -0.8977
   69MOL   H20926185   6.753   4.239   5.619 -2.1357  0.2155 -0.1381
   69MOL   H21026186   6.652   4.107   5.694  0.1823 -1.5541 -0.4795
   69MOL   C21126187   6.967   4.401   6.193  0.4682 -0.3815 -0.1056
   69MOL   C21226188   7.114   4.450   6.209  0.1549 -0.0713  0.1628
   69MOL   C21326189   7.174   4.382   6.334 -0.1262  0.4017 -0.1467
   69MOL   O21426190   7.145   4.269   6.373  0.0195  1.0086 -0.3659
   69MOL   N21526191   7.278   4.446   6.395  0.5201 -0.0921 -0.2597
   69MOL   C21626192   7.356   4.393   6.501  0.0621  0.4878  0.4737
   69MOL   C21726193   7.321   4.488   6.614  0.1983 -0.4843 -0.4808
   69MOL   C21826194   7.503   4.379   6.469 -0.5420  0.2726  0.4771
   69MOL   H21926195   6.956   4.293   6.198 -3.7816 -0.1383 -2.0140
   69MOL   H22026196   6.910   4.433   6.280  0.1584 -1.4369  0.0853
   69MOL   H22126197   7.121   4.557   6.230 -0.2541  0.3918 -1.9267
   69MOL   H22226198   7.298   4.542   6.371 -0.0895  0.9385  3.0086
   69MOL   H22326199   7.319   4.292   6.521 -1.0999  0.8657  0.3054
   69MOL   H22426200   7.347   4.461   6.717 -1.0759  4.3673  1.2533
   69MOL   H22526201   7.353   4.589   6.591 -0.2253  0.1812  1.6605
   69MOL   H22626202   7.212   4.493   6.624 -0.1208 -3.0410 -2.2571
   69MOL   H22726203   7.571   4.461   6.491 -1.4267  1.3766 -0.8146
   69MOL   H22826204   7.522   4.345   6.367  1.7847 -0.7699  1.2328
   69MOL   H22926205   7.529   4.294   6.532  0.9657 -0.2128 -0.7679
   69MOL   C23026206   7.214   4.446   6.087  0.1216 -0.5172 -0.1743
   69MOL   C23126207   7.252   4.304   6.039  0.1466 -0.3717 -0.9350
   69MOL   C23226208   7.136   4.233   5.965  0.0677  0.5833  0.7574
   69MOL   O23326209   7.073   4.287   5.872 -0.3880 -0.2046  0.5765
   69MOL   N23426210   7.111   4.105   6.005  0.0158 -0.1337  0.0928
   69MOL   C23526211   7.027   4.012   5.926  0.1074 -0.2666 -0.3613
   69MOL   C23626212   7.101   3.980   5.790 -0.1947  0.7998 -0.5003
   69MOL   C23726213   7.011   3.883   6.006  0.6287  0.5385  0.2857
   69MOL   H23826214   7.309   4.492   6.114 -0.9933  1.8444 -0.2329
   69MOL   H23926215   7.172   4.498   6.001  0.6000 -1.7836 -1.1952
   69MOL   H24026216   7.294   4.250   6.124  0.8401 -0.9999 -1.6650
   69MOL   H24126217   7.148   4.066   6.090 -0.9161  0.2481  0.6818
   69MOL   H24226218   6.928   4.057   5.919  0.1022 -0.2627 -0.2593
   69MOL   H24326219   7.091   4.064   5.721 -0.5573 -0.2916 -1.7955
   69MOL   H24426220   7.207   3.967   5.809 -0.6177 -1.4795  0.4167
   69MOL   H24526221   7.051   3.896   5.743  0.1773  0.8926 -1.0643
   69MOL   H24626222   6.957   3.803   5.955  2.1525  0.1797 -0.7823
   69MOL   H24726223   6.965   3.898   6.104 -0.9433 -1.0976 -0.1764
   69MOL   H24826224   7.107   3.835   6.026  0.0313 -0.5316  0.6304
   69MOL   C24926225   7.365   4.331   5.938  0.4457 -0.5764 -0.5734
   69MOL   C25026226   7.428   4.203   5.875 -0.2352 -1.0241  0.2892
   69MOL   C25126227   7.500   4.133   5.983 -0.0173  0.0050  0.0071
   69MOL   O25226228   7.582   4.195   6.050  0.1164  0.6023 -0.5528
   69MOL   N25326229   7.469   3.998   5.999  0.2853  0.3240 -0.4847
   69MOL   C25426230   7.518   3.916   6.112  0.1704  0.6502  0.5159
   69MOL   C25526231   7.402   3.878   6.204  0.3415 -0.3029  0.9712
   69MOL   C25626232   7.599   3.804   6.062  0.1925 -0.3092 -0.2457
   69MOL   H25726233   7.439   4.400   5.977 -0.0062  1.4524 -3.1911
   69MOL   H25826234   7.319   4.379   5.851 -1.1269 -0.7979  0.1248
   69MOL   H25926235   7.350   4.140   5.833  0.3339 -1.5376  0.0032
   69MOL   H26026236   7.403   3.963   5.932 -0.4062 -1.8145  1.2418
   69MOL   H26126237   7.586   3.981   6.168  0.4775  0.6016  0.2071
   69MOL   H26226238   7.381   3.954   6.279  2.4970  0.1804  1.1232
   69MOL   H26326239   7.309   3.863   6.149 -0.9641 -2.5229  3.6576
   69MOL   H26426240   7.433   3.789   6.259 -0.0670 -0.8642  0.3036
   69MOL   H26526241   7.542   3.728   6.008 -1.1947  0.8028 -0.3752
   69MOL   H26626242   7.667   3.842   5.986  1.0117 -2.3696 -0.5876
   69MOL   H26726243   7.659   3.748   6.133 -1.6825  2.1167  3.3574
   69MOL   C26826244   7.525   4.241   5.753  0.2096  0.5744 -0.1961
   69MOL   C26926245   7.600   4.120   5.680 -0.1499 -0.3671  0.2192
   69MOL   C27026246   7.492   4.022   5.643  0.0326  0.0928  0.1957
   69MOL   O27126247   7.395   4.056   5.583  0.6569 -0.1456 -0.9341
   69MOL   N27226248   7.499   3.896   5.679  0.0078  0.2762  0.0918
   69MOL   C27326249   7.411   3.785   5.646 -0.0109  0.1117 -0.1619
   69MOL   C27426250   7.485   3.712   5.529 -0.0593  0.1991 -0.2431
   69MOL   C27526251   7.382   3.700   5.770 -0.1589  0.0673  0.1959
   69MOL   H27626252   7.469   4.284   5.670  0.8628 -0.2148 -1.0471
   69MOL   H27726253   7.595   4.314   5.792  0.1229  0.6482 -0.1762
   69MOL   H27826254   7.667   4.072   5.751 -2.6420 -0.7106  2.4070
   69MOL   H27926255   7.575   3.868   5.739 -0.5451 -1.3928  0.0270
   69MOL   H28026256   7.315   3.820   5.610 -0.8345  0.4324  2.2613
   69MOL   H28126257   7.463   3.761   5.435  0.5890  1.4243  0.2311
   69MOL   H28226258   7.592   3.698   5.544 -0.5275 -2.2116  1.2215
   69MOL   H28326259   7.442   3.614   5.506 -0.0934 -0.0671  0.9162
   69MOL   H28426260   7.281   3.659   5.763 -1.1521  2.5377 -0.6638
   69MOL   H28526261   7.457   3.622   5.783 -1.2290 -1.0739 -0.4485
   69MOL   H28626262   7.387   3.765   5.858 -0.2762  0.1571  0.1356
   69MOL   C28726263   7.674   4.174   5.554  0.0673  0.1864 -0.3735
   69MOL   C28826264   7.777   4.288   5.574  0.6585 -0.0039 -0.4116
   69MOL   C28926265   7.709   4.428   5.554  0.4904 -0.2500  0.7125
   69MOL   O29026266   7.642   4.442   5.451  0.2277 -0.5247  0.2645
   69MOL   N29126267   7.721   4.518   5.652  0.1897 -0.3488  0.1640
   69MOL   C29226268   7.653   4.652   5.655  0.4507  0.5299  0.0960
   69MOL   C29326269   7.715   4.732   5.541  0.0983 -0.0061 -0.5021
   69MOL   C29426270   7.503   4.642   5.638 -0.1429  0.6748 -0.1036
   69MOL   H29526271   7.717   4.085   5.508  1.2558 -0.2772  1.5974
   69MOL   H29626272   7.601   4.207   5.480 -0.1348 -0.5094 -0.4909
   69MOL   H29726273   7.804   4.286   5.679 -3.1523 -0.3085  0.6356
   69MOL   H29826274   7.788   4.503   5.725 -1.5628 -0.6689  1.7476
   69MOL   H29926275   7.677   4.714   5.742  1.0528  0.1200  0.2244
   69MOL   H30026276   7.672   4.829   5.516  0.7054 -0.1376 -2.0940
   69MOL   H30126277   7.820   4.757   5.558  0.2446  1.5217 -3.3873
   69MOL   H30226278   7.710   4.679   5.447  0.8020  1.2332 -1.2554
   69MOL   H30326279   7.458   4.581   5.716  1.3369 -1.2254 -0.6993
   69MOL   H30426280   7.465   4.744   5.628  0.6477  1.3026  2.8318
   69MOL   H30526281   7.474   4.594   5.545  0.0687  2.4738 -1.1261
   69MOL   C30626282   0.060   4.254   5.478 -0.0361 -0.4032  0.1696
   69MOL   C30726283   0.174   4.353   5.448  0.1427 -0.2538  0.2239
   69MOL   C30826284   0.251   4.298   5.324  0.8935 -0.4481  0.2851
   69MOL   O30926285   0.263   4.175   5.314  0.7520  0.2522  0.4403
   69MOL   N31026286   0.287   4.388   5.229  0.3025 -0.3047 -0.1975
   69MOL   C31126287   0.352   4.345   5.103 -0.2311 -0.2575  0.8316
   69MOL   C31226288   0.335   4.458   5.006 -0.2185  0.2060 -0.7055
   69MOL   C31326289   0.502   4.312   5.121  0.2136 -0.1128  0.5122
   69MOL   H31426290   0.111   4.168   5.522  0.2521  0.4587  1.5222
   69MOL   H31526291   0.014   4.242   5.380  1.2457 -0.8597 -0.3919
   69MOL   H31626292   0.119   4.443   5.421 -1.6103 -1.6593 -0.9621
   69MOL   H31726293   0.274   4.486   5.248 -0.8642 -0.3198 -0.8761
   69MOL   H31826294   0.298   4.262   5.056  0.1916 -0.2632  0.3445
   69MOL   H31926295   0.230   4.466   4.979 -0.3259  0.0701 -0.3291
   69MOL   H32026296   0.393   4.448   4.914  1.1714  0.8167  0.0897
   69MOL   H32126297   0.363   4.556   5.046 -2.7302  1.3041 -1.5613
   69MOL   H32226298   0.507   4.241   5.204 -2.7162  0.9036  1.6204
   69MOL   H32326299   0.562   4.403   5.132  2.8611 -1.4694 -2.1033
   69MOL   H32426300   0.547   4.265   5.034  0.5701  0.0749  0.5930
   69MOL   C32526301   0.249   4.357   5.585 -0.6422 -0.6519  0.0786
   69MOL   C32626302   0.348   4.481   5.603 -0.0347 -0.3757  0.6004
   69MOL   C32726303   0.484   4.458   5.542 -0.4909 -0.0695  0.0623
   69MOL   O32826304   0.528   4.539   5.462 -0.5169 -0.0092 -0.3031
   69MOL   N32926305   0.558   4.362   5.588  0.3241  0.6011  0.2737
   69MOL   C33026306   0.675   4.312   5.513  0.5887 -0.6376 -0.3201
   69MOL   C33126307   0.652   4.159   5.475  0.2136  0.3138  0.0558
   69MOL   C33226308   0.802   4.327   5.604  0.0157 -0.3918  0.0162
   69MOL   H33326309   0.311   4.268   5.596 -0.8315 -0.9799 -1.3871
   69MOL   H33426310   0.176   4.344   5.665 -1.7671 -0.2317 -0.8554
   69MOL   H33526311   0.363   4.493   5.710 -0.3578 -2.2094  0.8681
   69MOL   H33626312   0.514   4.294   5.649  1.4533 -0.8953 -0.5290
   69MOL   H33726313   0.683   4.361   5.416  1.8063  0.2004  0.2009
   69MOL   H33826314   0.640   4.089   5.557  0.5376  1.4473  1.1009
   69MOL   H33926315   0.551   4.162   5.436  0.0048 -2.4519  0.3463
   69MOL   H34026316   0.724   4.127   5.400  0.2939 -0.2948  0.3928
   69MOL   H34126317   0.810   4.245   5.675  0.3618 -0.5561 -0.2101
   69MOL   H34226318   0.799   4.418   5.663 -1.7108 -0.3041 -0.1814
   69MOL   H34326319   0.892   4.332   5.541  0.2629 -1.8953  0.2219
   69MOL   C34426320   0.284   4.610   5.545 -0.2454 -0.5340  0.3151
   69MOL   C34526321   0.332   4.736   5.614 -0.0183 -0.0761 -0.0685
   69MOL   C34626322   0.336   4.841   5.510 -0.7526 -0.4336  0.4144
   69MOL   O34726323   0.231   4.900   5.486 -0.0153 -0.3210 -0.2052
   69MOL   N34826324   0.445   4.861   5.440 -0.1993  0.4059 -0.8350
   69MOL   C34926325   0.470   4.938   5.321 -0.2145 -0.0317  0.3320
   69MOL   C35026326   0.585   5.032   5.343  0.3059 -0.7711 -0.3023
   69MOL   C35126327   0.508   4.847   5.211  0.7924  0.0395  0.4737
   69MOL   H35226328   0.177   4.599   5.563 -0.1721 -0.7714  0.6139
   69MOL   H35326329   0.302   4.606   5.438  0.2023  2.3421  0.2444
   69MOL   H35426330   0.436   4.728   5.648  0.5837  1.5471 -1.4239
   69MOL   H35526331   0.518   4.795   5.460 -0.8968  0.1230  0.8586
   69MOL   H35626332   0.379   4.995   5.305 -0.7442 -0.2416  2.4200
   69MOL   H35726333   0.679   4.993   5.383  0.2058  0.5780  1.3055
   69MOL   H35826334   0.619   5.090   5.257 -1.9853  0.2043 -0.5834
   69MOL   H35926335   0.561   5.110   5.416  1.7887 -1.4998  0.9977
   69MOL   H36026336   0.604   4.797   5.226 -0.3657 -3.1078 -2.0409
   69MOL   H36126337   0.432   4.769   5.216  2.4222 -1.6491 -0.3805
   69MOL   H36226338   0.503   4.884   5.108 -0.0267  0.4373  0.6509
   69MOL   C36326339   0.237   4.771   5.738 -0.4659 -0.4181 -0.4959
   69MOL   C36426340   0.275   4.901   5.824 -0.3900  0.0460  0.5916
   69MOL   C36526341   0.418   4.894   5.887 -1.1067  0.8657  0.5062
   69MOL   O36626342   0.465   4.784   5.923 -0.3768 -0.0933  0.7231
   69MOL   N36726343   0.481   5.009   5.887  0.1463  0.2958 -0.3956
   69MOL   C36826344   0.624   5.031   5.911  0.3506  0.1608  0.9912
   69MOL   C36926345   0.684   5.049   5.774  0.0167 -0.2579 -0.1699
   69MOL   C37026346   0.644   5.145   6.014  0.4196 -0.1481  0.5183
   69MOL   H37126347   0.243   4.686   5.806 -0.0558  0.1500  0.1851
   69MOL   H37226348   0.136   4.790   5.703 -1.2528 -0.8949  1.4517
   69MOL   H37326349   0.200   4.897   5.903 -0.0609 -0.1047  0.8981
   69MOL   H37426350   0.423   5.089   5.869 -1.9957 -1.1869 -0.3730
   69MOL   H37526351   0.671   4.943   5.955  0.6174 -0.4364 -0.4654
   69MOL   H37626352   0.659   4.970   5.704  1.6654  0.7198 -1.9027
   69MOL   H37726353   0.663   5.146   5.731  0.5221  0.0740  0.3283
   69MOL   H37826354   0.791   5.040   5.795 -0.4239 -1.2535  1.8453
   69MOL   H37926355   0.752   5.154   6.024  0.4648 -1.7571  1.8280
   69MOL   H38026356   0.600   5.235   5.971 -0.3451 -0.1001  1.3732
   69MOL   H38126357   0.600   5.127   6.112 -1.2106  1.3466  0.0946
   69MOL   H38226358   0.253   4.990   5.766  0.6417  0.3366  0.6393
   70MOL     C126359   5.561   4.502   2.942 -0.1125 -0.4721  0.1042
   70MOL     C226360   5.606   4.362   2.977  0.3522 -0.2469  0.2755
   70MOL     C326361   5.551   4.255   2.882  0.0803 -0.5662 -0.0031
   70MOL     O426362   5.560   4.266   2.764  0.2063  0.1566  0.1127
   70MOL     N526363   5.495   4.147   2.943  0.6182  0.4949  1.5064
   70MOL     C626364   5.428   4.035   2.878  0.1821 -0.3017 -0.2910
   70MOL     C726365   5.507   3.910   2.895  0.8788  0.1593 -0.0297
   70MOL     C826366   5.291   4.008   2.930  0.5944  0.1058  0.0606
   70MOL     H926367   5.453   4.505   2.953 -0.0589 -0.9904  0.7330
   70MOL    H1026368   5.588   4.531   2.840 -1.0375  3.2311  0.8178
   70MOL    H1126369   5.565   4.349   3.078 -0.0505  0.7414  0.2435
   70MOL    H1226370   5.475   4.155   3.042  1.6134 -1.1674  1.8609
   70MOL    H1326371   5.416   4.057   2.772  0.3878  0.3674 -0.1800
   70MOL    H1426372   5.520   3.869   2.995  2.9968  2.4645  0.6782
   70MOL    H1526373   5.608   3.936   2.862  1.8243 -0.4946  2.2578
   70MOL    H1626374   5.474   3.821   2.841 -1.0413 -0.3785  1.9763
   70MOL    H1726375   5.228   4.093   2.904 -2.3303 -1.7050  0.9817
   70MOL    H1826376   5.254   3.922   2.874 -0.5508 -0.2587  1.3404
   70MOL    H1926377   5.291   3.978   3.034 -1.4611 -1.0168 -0.2397
   70MOL    H2026378   5.607   4.574   3.010 -0.1475  0.6969 -1.0789
   70MOL    C2126379   5.761   4.342   2.975 -0.2310 -0.1131 -0.7380
   70MOL    C2226380   5.846   4.432   3.073  0.4098  0.3574 -0.3209
   70MOL    C2326381   5.994   4.403   3.069 -0.5164  0.5918  0.3593
   70MOL    O2426382   6.027   4.299   3.122 -0.4627  0.3097  0.1527
   70MOL    N2526383   6.070   4.499   3.018  0.2709  0.3609 -0.1719
   70MOL    C2626384   6.203   4.479   2.968 -0.0273  0.3879 -0.0651
   70MOL    C2726385   6.292   4.594   3.020 -0.2839  0.0450  0.0212
   70MOL    C2826386   6.213   4.471   2.812  0.2062  0.5075 -1.1460
   70MOL    H2926387   5.800   4.360   2.875  1.8127  1.2879  0.2677
   70MOL    H3026388   5.782   4.237   2.994 -0.0207  0.3568  1.7752
   70MOL    H3126389   5.834   4.536   3.044  0.3920  0.9254  1.6132
   70MOL    H3226390   6.023   4.589   3.013 -0.1683  0.2216  1.4568
   70MOL    H3326391   6.231   4.387   3.019 -0.6968  0.1556 -0.1111
   70MOL    H3426392   6.262   4.692   2.983  1.6167  0.4691 -0.4344
   70MOL    H3526393   6.396   4.582   2.991 -0.5559 -1.0726 -0.5020
   70MOL    H3626394   6.291   4.607   3.129 -3.8797  1.4934 -0.0987
   70MOL    H3726395   6.313   4.444   2.778 -0.7586 -1.3033 -2.7076
   70MOL    H3826396   6.146   4.398   2.766  1.9336 -0.7090 -1.7771
   70MOL    H3926397   6.184   4.568   2.773 -0.9449  0.9516  0.7848
   70MOL    C4026398   5.808   4.420   3.228  0.2221 -0.1584 -0.1528
   70MOL    C4126399   5.871   4.517   3.338  0.7310  0.1949 -0.0778
   70MOL    C4226400   5.856   4.663   3.307  0.4408  0.0223 -0.4747
   70MOL    O4326401   5.883   4.710   3.196  0.0797 -0.0036 -0.1984
   70MOL    N4426402   5.814   4.740   3.404 -0.7800  0.1649  0.2350
   70MOL    C4526403   5.799   4.881   3.391 -0.2082  0.1811  0.2448
   70MOL    C4626404   5.693   4.917   3.491 -0.0759 -0.4424  0.4304
   70MOL    C4726405   5.926   4.964   3.425 -0.8177 -0.4015 -0.4875
   70MOL    H4826406   5.824   4.321   3.271  0.4551 -0.9002 -1.8740
   70MOL    H4926407   5.701   4.437   3.237  0.4553  2.2471 -1.6167
   70MOL    H5026408   5.818   4.495   3.431  3.6624 -1.4777  1.3090
   70MOL    H5126409   5.784   4.701   3.492  0.0196 -1.0800 -0.0260
   70MOL    H5226410   5.760   4.908   3.293 -0.4694  1.1258  0.6040
   70MOL    H5326411   5.645   5.013   3.468  1.8317  0.9882  2.2421
   70MOL    H5426412   5.730   4.903   3.592 -0.5331  0.9776  0.8087
   70MOL    H5526413   5.613   4.844   3.499  0.4090 -0.7582  2.8212
   70MOL    H5626414   5.968   4.922   3.516 -1.5741  0.1235  0.1138
   70MOL    H5726415   5.905   5.070   3.444  1.3238  0.0444 -0.5330
   70MOL    H5826416   6.000   4.964   3.345 -0.7076  0.7533 -0.3949
   70MOL    C5926417   6.017   4.483   3.366  0.1123 -0.2335 -0.1980
   70MOL    C6026418   6.058   4.525   3.508 -1.0720  0.3596  0.3381
   70MOL    C6126419   6.207   4.562   3.506 -0.3183  0.0816 -0.5783
   70MOL    O6226420   6.283   4.474   3.507  0.2826  0.4995 -0.3195
   70MOL    N6326421   6.244   4.689   3.505 -0.6835 -0.0278  0.3149
   70MOL    C6426422   6.378   4.739   3.501 -0.8285 -0.3575  1.0754
   70MOL    C6526423   6.442   4.734   3.361  0.3725  0.3404  0.1562
   70MOL    C6626424   6.389   4.877   3.570  0.1880 -0.5592  0.2693
   70MOL    H6726425   6.041   4.380   3.339 -1.4897  0.2942 -3.9723
   70MOL    H6826426   6.077   4.542   3.296 -0.1260 -0.6175 -0.7337
   70MOL    H6926427   6.005   4.619   3.527 -1.6046  0.2264 -0.4606
   70MOL    H7026428   6.159   4.744   3.499 -0.6808 -0.0376  0.1737
   70MOL    H7126429   6.439   4.665   3.553  0.9209 -0.2806 -0.8070
   70MOL    H7226430   6.398   4.805   3.291  1.0940 -0.2001 -0.8572
   70MOL    H7326431   6.548   4.756   3.369  0.7092 -1.4725  0.8387
   70MOL    H7426432   6.430   4.635   3.317  0.3930  1.0555 -1.4832
   70MOL    H7526433   6.322   4.884   3.655  1.5204 -1.6867  1.4220
   70MOL    H7626434   6.489   4.890   3.610  0.1274  2.2321 -0.3995
   70MOL    H7726435   6.363   4.952   3.495  2.5030 -0.8365 -0.8429
   70MOL    C7826436   6.027   4.429   3.620 -0.1535 -0.8960  0.6453
   70MOL    C7926437   5.937   4.490   3.733  0.0288  0.0078 -0.4914
   70MOL    C8026438   5.794   4.537   3.700 -0.1904  0.0231  0.1077
   70MOL    O8126439   5.778   4.650   3.659 -0.1954 -0.8391  0.1324
   70MOL    N8226440   5.696   4.451   3.708 -0.0706  0.6188  0.1306
   70MOL    C8326441   5.553   4.470   3.673  0.1690  0.0030  0.1293
   70MOL    C8426442   5.488   4.340   3.647 -0.0384 -0.9425  0.9521
   70MOL    C8526443   5.480   4.547   3.785 -0.3168  0.2479 -0.7210
   70MOL    H8626444   6.116   4.392   3.670  0.5843 -1.5442 -1.1193
   70MOL    H8726445   5.973   4.342   3.584  0.1348 -0.1587 -1.6257
   70MOL    H8826446   5.997   4.577   3.758  0.0827  0.1454 -1.0958
   70MOL    H8926447   5.727   4.359   3.737  3.3492  1.7917  0.3500
   70MOL    H9026448   5.560   4.538   3.588  0.7040  0.2518  0.3677
   70MOL    H9126449   5.380   4.350   3.635  0.1459  0.2875  0.3294
   70MOL    H9226450   5.534   4.300   3.557  1.4106 -0.1752  1.3492
   70MOL    H9326451   5.506   4.256   3.715 -0.7535 -1.4782  0.4984
   70MOL    H9426452   5.507   4.526   3.889 -0.4239 -1.0197 -0.9481
   70MOL    H9526453   5.373   4.525   3.777 -0.1366 -0.5967 -0.8301
   70MOL    H9626454   5.482   4.654   3.762 -1.1791  0.8628  1.8681
   70MOL    C9726455   5.930   4.404   3.861 -0.4983 -0.5472 -0.4260
   70MOL    C9826456   5.907   4.478   3.997  0.2896 -0.3274  0.1432
   70MOL    C9926457   6.047   4.480   4.068 -0.4059 -0.1953  0.2213
   70MOL   O10026458   6.106   4.384   4.118  0.2035  0.4351 -0.2898
   70MOL   N10126459   6.115   4.599   4.066 -0.1656  0.2384  0.3486
   70MOL   C10226460   6.254   4.615   4.113 -0.0966  0.7229  0.2058
   70MOL   C10326461   6.299   4.722   4.009 -1.1077 -0.0265 -0.4958
   70MOL   C10426462   6.260   4.681   4.256  0.3242  0.5594  0.5043
   70MOL   H10526463   6.017   4.338   3.862 -1.9316 -2.4738  1.8241
   70MOL   H10626464   5.856   4.325   3.851 -2.5326  1.1562  0.5119
   70MOL   H10726465   5.870   4.578   3.977 -1.3647 -0.3170  2.9899
   70MOL   H10826466   6.066   4.675   4.020 -1.6171 -2.8226 -3.4605
   70MOL   H10926467   6.316   4.527   4.096 -0.7724  0.1934  0.4794
   70MOL   H11026468   6.324   4.665   3.919  0.4637 -2.3957  1.3868
   70MOL   H11126469   6.231   4.803   3.985  0.2504  0.8407 -1.5405
   70MOL   H11226470   6.402   4.753   4.026 -1.0029  0.8081 -2.4764
   70MOL   H11326471   6.200   4.771   4.269  0.8215  1.1560 -1.1882
   70MOL   H11426472   6.360   4.706   4.290  0.9058  2.9786 -2.7381
   70MOL   H11526473   6.214   4.606   4.320 -2.0221  0.5040 -1.1578
   70MOL   C11626474   5.791   4.419   4.074 -0.8331  0.9444  0.5080
   70MOL   C11726475   5.740   4.498   4.195 -0.3678  0.7756 -0.0609
   70MOL   C11826476   5.694   4.407   4.301 -0.7134  0.1148  0.5095
   70MOL   O11926477   5.584   4.355   4.295  0.2844 -0.2721  0.1729
   70MOL   N12026478   5.767   4.373   4.406  0.3558  0.0126 -0.2189
   70MOL   C12126479   5.739   4.285   4.522  0.3132  0.2057 -0.0526
   70MOL   C12226480   5.798   4.146   4.510 -0.5665 -0.3364 -0.3877
   70MOL   C12326481   5.752   4.365   4.651  0.0238 -0.4186 -0.1388
   70MOL   H12426482   5.819   4.319   4.106 -0.1555  1.5517  1.8188
   70MOL   H12526483   5.712   4.399   4.000  0.5069  0.3427 -0.7926
   70MOL   H12626484   5.823   4.551   4.242 -0.1550  0.7246 -0.3787
   70MOL   H12726485   5.857   4.419   4.414  0.2912 -0.1686  1.5848
   70MOL   H12826486   5.634   4.257   4.523  0.3992 -0.1660 -0.7444
   70MOL   H12926487   5.759   4.103   4.418  1.7882  1.1515 -2.1534
   70MOL   H13026488   5.771   4.085   4.596  0.7539  0.7059  0.7999
   70MOL   H13126489   5.905   4.164   4.511 -0.2900 -1.9119 -0.2111
   70MOL   H13226490   5.842   4.423   4.667 -0.5399  1.0306 -1.9816
   70MOL   H13326491   5.670   4.437   4.648  1.0526  0.7845  0.1716
   70MOL   H13426492   5.734   4.299   4.736  1.3990 -0.8957 -0.2080
   70MOL   C13526493   5.627   4.608   4.158  0.4938 -0.3859 -0.0634
   70MOL   C13626494   5.576   4.692   4.272 -0.5686  0.1141 -0.4903
   70MOL   C13726495   5.684   4.789   4.335 -0.6493  0.5470 -0.9966
   70MOL   O13826496   5.718   4.890   4.278 -0.5780 -0.1228  0.4901
   70MOL   N13926497   5.733   4.754   4.453 -0.0569  0.1075 -0.1762
   70MOL   C14026498   5.846   4.823   4.506  0.2699  0.6558 -0.0520
   70MOL   C14126499   5.968   4.786   4.418  0.2221  0.4635  0.1149
   70MOL   C14226500   5.859   4.787   4.653  0.3788  0.5035  0.4732
   70MOL   H14326501   5.549   4.551   4.107  2.2683 -0.5133 -2.7044
   70MOL   H14426502   5.666   4.676   4.082  2.6750  0.2626  1.5725
   70MOL   H14526503   5.554   4.624   4.354 -1.4479  0.9824  0.0133
   70MOL   H14626504   5.702   4.669   4.497 -1.6393  1.0725  0.6225
   70MOL   H14726505   5.835   4.931   4.500  0.3704  0.5761 -2.2290
   70MOL   H14826506   5.981   4.678   4.406  1.0565  0.5809 -0.0102
   70MOL   H14926507   5.962   4.834   4.321 -1.0845  1.8125  0.8439
   70MOL   H15026508   6.060   4.824   4.461 -0.2861  1.5188  0.2754
   70MOL   H15126509   5.929   4.846   4.710 -0.0980 -0.3744  2.0006
   70MOL   H15226510   5.892   4.683   4.664 -1.3102  0.0096  0.9952
   70MOL   H15326511   5.763   4.803   4.701  0.3450  0.0666  0.5571
   70MOL   C15426512   5.454   4.770   4.223 -0.1689 -0.0956  0.1128
   70MOL   C15526513   5.364   4.841   4.331  0.3562  0.0163  0.1408
   70MOL   C15626514   5.280   4.738   4.408  0.5489  0.2570 -0.1848
   70MOL   O15726515   5.184   4.684   4.349 -0.4376  0.1616  1.4692
   70MOL   N15826516   5.328   4.690   4.524 -0.1399 -0.3505  0.9561
   70MOL   C15926517   5.281   4.565   4.587  0.3384 -0.0537 -0.2759
   70MOL   C16026518   5.345   4.544   4.717 -0.1912  0.5645 -0.0020
   70MOL   C16126519   5.306   4.436   4.494 -0.3844  0.2497 -0.5270
   70MOL   H16226520   5.394   4.690   4.178  1.8197 -2.3462  1.3835
   70MOL   H16326521   5.481   4.838   4.142 -0.2155  0.1101  0.2720
   70MOL   H16426522   5.424   4.874   4.416 -1.3706  1.0913  0.9680
   70MOL   H16526523   5.391   4.753   4.572 -1.6252  1.9938 -0.0550
   70MOL   H16626524   5.174   4.563   4.605  0.1930 -0.2519 -1.1569
   70MOL   H16726525   5.454   4.552   4.713 -0.0234 -1.7565 -0.9991
   70MOL   H16826526   5.315   4.631   4.775  1.0647  1.6706 -1.0005
   70MOL   H16926527   5.310   4.450   4.760 -0.1785  1.1588  1.3574
   70MOL   H17026528   5.270   4.429   4.391 -0.7607  0.8504 -0.4393
   70MOL   H17126529   5.262   4.351   4.546 -0.9645  0.1049 -1.2338
   70MOL   H17226530   5.414   4.429   4.492 -0.3351  0.5636  0.9838
   70MOL   C17326531   5.277   4.956   4.268 -0.3750  0.6390  0.0299
   70MOL   C17426532   5.324   5.104   4.284  0.1970  0.1803  0.5913
   70MOL   C17526533   5.281   5.175   4.408  1.2921  0.1892 -0.0604
   70MOL   O17626534   5.358   5.191   4.499 -0.0044 -0.1594  0.2756
   70MOL   N17726535   5.158   5.222   4.407 -0.1872  0.1494  0.0465
   70MOL   C17826536   5.107   5.308   4.516 -0.8757 -0.0864  0.3730
   70MOL   C17926537   5.072   5.229   4.642 -0.0270  0.2767 -0.2817
   70MOL   C18026538   4.981   5.390   4.473  0.9410 -0.1020 -0.3370
   70MOL   H18126539   5.182   4.952   4.322  0.1957  0.2377  1.0098
   70MOL   H18226540   5.264   4.940   4.161 -1.2306 -0.2714  0.2559
   70MOL   H18326541   5.264   5.161   4.214  0.9608  0.8877  0.4999
   70MOL   H18426542   5.100   5.207   4.326  0.7582 -2.0244 -0.2641
   70MOL   H18526543   5.184   5.383   4.536  1.8235 -2.0303 -2.4026
   70MOL   H18626544   4.979   5.173   4.629  1.3254 -2.1245  0.0191
   70MOL   H18726545   5.056   5.288   4.731 -0.4696  0.3425 -0.4050
   70MOL   H18826546   5.149   5.155   4.666  0.3437  0.8011  0.1353
   70MOL   H18926547   4.924   5.415   4.563 -0.7804 -2.6314 -0.6617
   70MOL   H19026548   4.909   5.333   4.415  1.9342 -0.0246 -1.6495
   70MOL   H19126549   5.004   5.463   4.396  1.1017  0.2696  0.0581
   70MOL   C19226550   5.471   5.116   4.243  0.0620 -0.1365 -0.5677
   70MOL   C19326551   5.537   5.256   4.222  0.2830  0.4399  0.4842
   70MOL   C19426552   5.451   5.347   4.122 -0.5762  0.2270  0.4087
   70MOL   O19526553   5.375   5.301   4.034  0.3621  0.5544  0.5706
   70MOL   N19626554   5.462   5.479   4.143  0.2353 -0.0138  0.6897
   70MOL   C19726555   5.394   5.585   4.081  0.3607  0.3153  0.0793
   70MOL   C19826556   5.251   5.607   4.152 -0.2716 -0.1153 -0.3933
   70MOL   C19926557   5.476   5.712   4.098  0.2026  0.1668  0.1920
   70MOL   H20026558   5.496   5.063   4.151 -1.2363  0.8224 -1.4918
   70MOL   H20126559   5.526   5.053   4.313 -1.3266 -0.0223  0.6561
   70MOL   H20226560   5.533   5.309   4.317  2.2986 -1.7603  1.8507
   70MOL   H20326561   5.537   5.503   4.207  2.2393 -0.7204 -1.3531
   70MOL   H20426562   5.387   5.554   3.977 -0.5993 -3.4316  1.1777
   70MOL   H20526563   5.193   5.515   4.147 -1.2345  0.3883  1.1304
   70MOL   H20626564   5.189   5.676   4.095 -0.2492  0.7443  0.6000
   70MOL   H20726565   5.267   5.641   4.255  0.7514  0.2391 -0.6623
   70MOL   H20826566   5.579   5.698   4.065 -0.4586  0.8532 -2.3065
   70MOL   H20926567   5.471   5.754   4.199 -0.0264 -1.5617  0.9190
   70MOL   H21026568   5.434   5.791   4.035 -1.9689 -1.8423 -0.9297
   70MOL   C21126569   5.678   5.240   4.171  0.4508  0.8356 -0.5484
   70MOL   C21226570   5.790   5.307   4.246 -0.5492 -0.8707  0.6171
   70MOL   C21326571   5.782   5.465   4.247  0.1480 -0.1136 -0.3655
   70MOL   O21426572   5.687   5.523   4.299  0.1555 -0.1729 -0.4642
   70MOL   N21526573   5.886   5.533   4.197  0.2666 -0.0926 -0.0051
   70MOL   C21626574   5.901   5.675   4.165  0.0068 -0.9603 -0.1338
   70MOL   C21726575   6.001   5.697   4.047  0.1481  0.3226  0.0207
   70MOL   C21826576   5.948   5.752   4.282 -0.5291 -0.0928 -0.2090
   70MOL   H21926577   5.678   5.285   4.072 -0.1179  1.6650 -0.1831
   70MOL   H22026578   5.706   5.136   4.154 -3.2691 -0.3463 -0.0061
   70MOL   H22126579   5.875   5.276   4.185 -0.9775 -0.8911  0.0202
   70MOL   H22226580   5.966   5.477   4.170  0.5430  0.7340 -0.9390
   70MOL   H22326581   5.810   5.726   4.132  0.4339 -1.5364 -2.3240
   70MOL   H22426582   6.102   5.658   4.055 -1.1538 -2.8765  2.2544
   70MOL   H22526583   5.947   5.644   3.968 -0.2581 -0.6303  0.9233
   70MOL   H22626584   6.008   5.801   4.017  1.5848  0.4616  0.8287
   70MOL   H22726585   6.034   5.702   4.326 -1.3275  0.6914  2.3407
   70MOL   H22826586   5.866   5.757   4.353 -1.3915  0.0170 -1.2079
   70MOL   H22926587   5.983   5.854   4.262  0.8356 -0.2686  1.1609
   70MOL   C23026588   5.814   5.240   4.379 -0.0401 -0.1037 -0.3804
   70MOL   C23126589   5.758   5.300   4.514  0.2635  0.8957  0.5610
   70MOL   C23226590   5.738   5.182   4.611 -0.2485 -0.3451  0.3665
   70MOL   O23326591   5.838   5.139   4.666 -0.0560  1.0957  0.0708
   70MOL   N23426592   5.614   5.145   4.631 -0.4561  0.2326  0.8690
   70MOL   C23526593   5.558   5.059   4.735  1.1509  0.5209  0.2216
   70MOL   C23626594   5.492   5.151   4.849 -0.4851  0.2885  0.0006
   70MOL   C23726595   5.463   4.949   4.683 -0.4057 -0.3499 -1.0929
   70MOL   H23826596   5.922   5.237   4.394  0.4694 -0.7191 -3.8119
   70MOL   H23926597   5.784   5.136   4.377 -2.0348  0.4476 -0.2979
   70MOL   H24026598   5.658   5.341   4.501 -0.2248  0.3365  2.3291
   70MOL   H24126599   5.546   5.192   4.572 -0.6172  1.2770  1.8795
   70MOL   H24226600   5.639   5.013   4.793  0.3510  0.9453  1.7165
   70MOL   H24326601   5.438   5.094   4.924 -0.8807  1.1806  0.4082
   70MOL   H24426602   5.562   5.217   4.900  1.1955 -0.8834 -0.7646
   70MOL   H24526603   5.418   5.215   4.800 -0.4900  0.4292  0.1922
   70MOL   H24626604   5.522   4.866   4.643 -1.2960 -2.3785  1.6810
   70MOL   H24726605   5.388   4.986   4.613 -0.2038 -0.4650 -1.3752
   70MOL   H24826606   5.402   4.915   4.766  1.0069  0.0881  0.1546
   70MOL   C24926607   5.851   5.404   4.585 -0.2084  0.7407  0.4745
   70MOL   C25026608   5.797   5.467   4.714  0.1146 -0.7591  0.3774
   70MOL   C25126609   5.680   5.564   4.685 -0.2020  0.2649  0.2824
   70MOL   O25226610   5.694   5.674   4.633 -0.4888  0.8087 -0.1901
   70MOL   N25326611   5.555   5.518   4.717 -0.2257 -0.2412  0.4481
   70MOL   C25426612   5.426   5.577   4.682 -1.0085  0.2511  0.5461
   70MOL   C25526613   5.400   5.571   4.528  0.8427  0.5416  0.5583
   70MOL   C25626614   5.319   5.532   4.770  0.0962  0.6341 -0.0517
   70MOL   H25726615   5.869   5.482   4.510 -1.9678  0.4567 -0.2741
   70MOL   H25826616   5.954   5.374   4.604  0.7508  4.1553  1.0585
   70MOL   H25926617   5.751   5.402   4.788 -0.2008 -0.7724  0.1699
   70MOL   H26026618   5.551   5.450   4.792  3.0390 -0.1742  0.7472
   70MOL   H26126619   5.434   5.684   4.698 -1.7135  0.6226 -1.4948
   70MOL   H26226620   5.299   5.611   4.517  0.0717 -1.0704  1.6143
   70MOL   H26326621   5.470   5.631   4.470 -0.2932  1.6809  0.3310
   70MOL   H26426622   5.389   5.466   4.501 -0.5626 -0.0905  3.4445
   70MOL   H26526623   5.309   5.423   4.776  0.3193  0.6825  1.4571
   70MOL   H26626624   5.343   5.547   4.875 -1.2138  2.9119 -0.0667
   70MOL   H26726625   5.231   5.592   4.750 -0.4083 -0.1335 -0.1521
   70MOL   C26826626   5.904   5.551   4.788 -0.1387 -0.8616  0.2043
   70MOL   C26926627   5.979   5.472   4.901 -0.1952  0.0015  0.1715
   70MOL   C27026628   6.099   5.397   4.845 -0.1823  0.7088  0.2257
   70MOL   O27126629   6.207   5.452   4.837 -0.9266  0.3328 -0.4576
   70MOL   N27226630   6.088   5.268   4.820 -0.4872  0.6724  0.8251
   70MOL   C27326631   6.194   5.182   4.780 -0.3025  0.5513  0.8675
   70MOL   C27426632   6.177   5.042   4.850 -0.3684 -0.0189 -0.0835
   70MOL   C27526633   6.187   5.155   4.632  0.1781  0.6063 -1.2412
   70MOL   H27626634   5.989   5.572   4.723 -0.0209 -0.9905  0.3185
   70MOL   H27726635   5.866   5.651   4.809 -1.2700 -1.8717  3.1451
   70MOL   H27826636   5.918   5.392   4.942 -0.5310  0.3273  0.3114
   70MOL   H27926637   5.999   5.222   4.819 -0.3879  0.4679 -1.2531
   70MOL   H28026638   6.284   5.229   4.818 -1.6636  1.5512  2.9734
   70MOL   H28126639   6.078   4.999   4.831  0.3620 -1.4174 -0.8128
   70MOL   H28226640   6.252   4.971   4.816  0.7363  0.6472  0.9018
   70MOL   H28326641   6.185   5.049   4.959  1.6470  1.5687 -0.3034
   70MOL   H28426642   6.100   5.109   4.586 -0.8604  2.9325 -1.6411
   70MOL   H28526643   6.195   5.246   4.573 -2.6966  0.9766 -1.1245
   70MOL   H28626644   6.266   5.085   4.602 -1.5367 -2.2306  0.6462
   70MOL   C28726645   6.013   5.564   5.016 -0.1867 -0.2029 -0.1407
   70MOL   C28826646   6.091   5.509   5.138 -0.4493  0.4829 -0.2481
   70MOL   C28926647   6.021   5.393   5.210  0.2127  0.3100  0.3797
   70MOL   O29026648   5.910   5.405   5.257  0.7075  0.0228  0.2496
   70MOL   N29126649   6.080   5.272   5.210  0.2048 -0.2154 -0.1453
   70MOL   C29226650   6.019   5.151   5.261  0.2364  0.5423  0.6200
   70MOL   C29326651   5.926   5.094   5.156 -0.4858  0.8081 -0.8758
   70MOL   C29426652   6.113   5.039   5.298 -0.4854  0.4301 -0.3650
   70MOL   H29526653   6.065   5.650   4.974 -0.2620  0.1350  0.4573
   70MOL   H29626654   5.922   5.616   5.047 -0.0649  0.2227 -0.4994
   70MOL   H29726655   6.189   5.477   5.102 -0.6994 -1.9074  1.1208
   70MOL   H29826656   6.175   5.275   5.176 -0.1021  0.6941 -0.9606
   70MOL   H29926657   5.969   5.184   5.352 -1.3723 -1.6633  0.5952
   70MOL   H30026658   5.835   5.155   5.151 -0.9071  0.2527 -0.1967
   70MOL   H30126659   5.969   5.079   5.058  1.3370 -0.9850  0.1766
   70MOL   H30226660   5.888   4.998   5.190 -0.8348  1.3532  0.3287
   70MOL   H30326661   6.050   4.959   5.338 -1.3852  0.9794 -0.6481
   70MOL   H30426662   6.150   5.000   5.203  1.9511 -2.4571  1.6770
   70MOL   H30526663   6.199   5.068   5.358  0.4518  1.2179 -2.0510
   70MOL   C30626664   6.127   5.618   5.240 -0.3693  0.5054 -0.1309
   70MOL   C30726665   6.257   5.595   5.322 -0.4045 -0.7177 -0.1754
   70MOL   C30826666   6.268   5.454   5.390  0.2834  0.2226  0.5419
   70MOL   O30926667   6.335   5.366   5.335  0.0337  0.2846 -0.9058
   70MOL   N31026668   6.203   5.433   5.506  0.4061  0.6091 -0.2295
   70MOL   C31126669   6.206   5.298   5.572  1.0196 -0.2805  0.2877
   70MOL   C31226670   6.319   5.296   5.676 -1.1086  0.0657 -0.6556
   70MOL   C31326671   6.062   5.271   5.621 -0.3608 -0.0066 -0.3903
   70MOL   H31426672   6.135   5.717   5.195 -0.7260  1.0382  0.9686
   70MOL   H31526673   6.046   5.628   5.312 -0.0267  1.1284  0.1681
   70MOL   H31626674   6.341   5.601   5.252 -0.8341 -0.4738 -0.6703
   70MOL   H31726675   6.181   5.511   5.565  0.4430  2.2456 -2.3207
   70MOL   H31826676   6.230   5.216   5.504 -0.7438 -2.5473  2.2973
   70MOL   H31926677   6.311   5.369   5.756 -0.6857 -1.4255  0.7708
   70MOL   H32026678   6.420   5.309   5.637 -1.0756  0.2321 -0.5152
   70MOL   H32126679   6.319   5.195   5.717  0.8219  0.4605  0.3782
   70MOL   H32226680   6.053   5.162   5.628  0.5843 -0.0565  0.0614
   70MOL   H32326681   5.998   5.305   5.539  0.7280 -0.6133 -1.5127
   70MOL   H32426682   6.043   5.306   5.722 -0.2836  1.0562 -0.7458
   70MOL   C32526683   6.282   5.719   5.421  0.1754 -0.4483 -0.0256
   70MOL   C32626684   6.401   5.728   5.525 -0.0058 -0.1989  0.2626
   70MOL   C32726685   6.528   5.695   5.448  0.0967  0.5404 -0.4243
   70MOL   O32826686   6.583   5.777   5.374 -0.1596 -0.0672 -0.1015
   70MOL   N32926687   6.574   5.573   5.461  0.3311  0.7672  0.0327
   70MOL   C33026688   6.683   5.511   5.387  0.5078  0.8216  0.1494
   70MOL   C33126689   6.682   5.358   5.396  0.5622 -0.1976 -0.2859
   70MOL   C33226690   6.818   5.576   5.436  0.3071 -0.0507 -0.2146
   70MOL   H33326691   6.186   5.738   5.470  0.7919  0.0836  0.9998
   70MOL   H33426692   6.305   5.805   5.359 -2.1284  0.8714  0.8909
   70MOL   H33526693   6.388   5.655   5.605  1.7757 -1.8727 -0.9188
   70MOL   H33626694   6.518   5.509   5.516  0.4468 -0.0510 -0.7855
   70MOL   H33726695   6.660   5.545   5.286 -2.1365 -0.4944  0.2864
   70MOL   H33826696   6.678   5.327   5.500  0.5500  2.2431  0.4941
   70MOL   H33926697   6.596   5.316   5.344 -0.1122  0.8959 -0.0944
   70MOL   H34026698   6.774   5.315   5.358  1.4215  0.1543  1.3546
   70MOL   H34126699   6.906   5.535   5.387  0.5512  0.0213  0.1656
   70MOL   H34226700   6.827   5.547   5.541  0.2463  2.5186  0.5531
   70MOL   H34326701   6.823   5.684   5.418  0.7901 -0.0152  0.1291
   70MOL   C34426702   6.398   5.873   5.583 -0.5203 -0.2332 -0.3320
   70MOL   C34526703   6.488   5.887   5.710 -0.2416 -0.2651 -0.2597
   70MOL   C34626704   6.598   6.001   5.682  0.1244  0.2113 -0.2751
   70MOL   O34726705   6.594   6.105   5.748  0.5057  0.2815 -0.1836
   70MOL   N34826706   6.688   5.976   5.585  0.5570  0.7237  0.2565
   70MOL   C34926707   6.801   6.070   5.562  0.9571  0.2090 -0.1540
   70MOL   C35026708   6.895   6.074   5.672 -0.4386  0.9496 -0.7118
   70MOL   C35126709   6.878   6.011   5.441  0.5233 -0.2415  0.1125
   70MOL   H35226710   6.293   5.885   5.611 -0.8481 -0.9103 -1.2498
   70MOL   H35326711   6.431   5.943   5.506  0.9467  0.2667  0.7186
   70MOL   H35426712   6.536   5.790   5.719  0.0597 -0.1591 -0.7184
   70MOL   H35526713   6.706   5.881   5.558 -1.4201  0.4100 -0.0523
   70MOL   H35626714   6.771   6.174   5.552  0.1956  0.1463  1.3195
   70MOL   H35726715   6.839   6.126   5.750  0.1078  1.1504 -0.4525
   70MOL   H35826716   6.914   5.974   5.709  0.4584  1.2545 -0.3380
   70MOL   H35926717   6.984   6.134   5.657  0.3391  0.0674  0.3289
   70MOL   H36026718   6.963   6.070   5.406  0.9529 -0.1635  1.2787
   70MOL   H36126719   6.910   5.909   5.462 -0.2487 -0.1925  1.5488
   70MOL   H36226720   6.811   6.001   5.355  1.1120  2.0901 -0.6463
   70MOL   C36326721   6.411   5.900   5.842  0.2113 -0.1930  0.0253
   70MOL   C36426722   6.504   5.887   5.960 -0.2782 -0.6428 -0.2006
   70MOL   C36526723   6.546   5.742   5.992  0.1747 -0.0567  0.1727
   70MOL   O36626724   6.499   5.677   6.085  0.1255 -0.1002 -0.4278
   70MOL   N36726725   6.644   5.692   5.918 -0.4766 -0.1672  0.0153
   70MOL   C36826726   6.707   5.562   5.917 -0.3749  0.3442 -0.5507
   70MOL   C36926727   6.613   5.462   5.836 -0.4179  0.0774  0.4337
   70MOL   C37026728   6.842   5.574   5.855 -0.3705 -0.3183  0.6193
   70MOL   H37126729   6.335   5.822   5.851 -0.4127  0.3126 -0.7953
   70MOL   H37226730   6.358   5.995   5.852  1.5196  0.3453  2.2078
   70MOL   H37326731   6.439   5.923   6.039 -1.4315  0.7224 -1.7280
   70MOL   H37426732   6.673   5.752   5.842 -1.7601 -0.8354 -1.0093
   70MOL   H37526733   6.711   5.529   6.021  1.7777  1.2899 -0.3120
   70MOL   H37626734   6.533   5.435   5.905 -0.5064  1.2918  0.8310
   70MOL   H37726735   6.568   5.503   5.746 -0.3142 -1.0047 -0.1142
   70MOL   H37826736   6.656   5.366   5.810 -2.0115 -0.0176 -1.9490
   70MOL   H37926737   6.898   5.660   5.893 -1.6828  1.2549 -0.8898
   70MOL   H38026738   6.909   5.490   5.875 -2.0190 -1.4682  1.4143
   70MOL   H38126739   6.820   5.598   5.751  0.3919  5.3456  1.5864
   70MOL   H38226740   6.596   5.944   5.952 -0.4066 -0.6850 -2.2544
   71MOL     C126741   3.444   0.592   7.820 -0.7079 -0.4860 -0.1306
   71MOL     C226742   3.577   0.532   0.020 -0.0200 -0.4296 -0.2912
   71MOL     C326743   3.600   0.529   0.171  0.5474 -0.3608  0.5755
   71MOL     O426744   3.519   0.481   0.246 -0.3799  0.1714  0.1989
   71MOL     N526745   3.719   0.584   0.214  0.9702  1.0538 -0.5800
   71MOL     C626746   3.750   0.594   0.356 -0.2384 -0.0168  0.1885
   71MOL     C726747   3.779   0.459   0.417  0.2352  0.7393  0.7210
   71MOL     C826748   3.862   0.691   0.380  0.8106 -0.2541  0.1619
   71MOL     H926749   3.411   0.566   7.720 -1.0665 -1.1300  0.1506
   71MOL    H1026750   3.448   0.700   7.836 -0.5509 -0.8085  2.1981
   71MOL    H1126751   3.648   0.604   7.816 -0.9796  0.8215  0.2327
   71MOL    H1226752   3.793   0.597   0.147  1.2701  1.0722 -0.2524
   71MOL    H1326753   3.663   0.630   0.411 -0.6125 -0.7843  0.1180
   71MOL    H1426754   3.814   0.470   0.520  1.1997 -0.8131  0.5822
   71MOL    H1526755   3.863   0.410   0.369 -0.0688  1.1630 -0.2468
   71MOL    H1626756   3.699   0.385   0.411  0.7645  0.0350  2.1289
   71MOL    H1726757   3.861   0.726   0.484  0.2612  2.4297 -0.7119
   71MOL    H1826758   3.960   0.650   0.354  0.8481 -0.5118  0.6942
   71MOL    H1926759   3.849   0.786   0.328 -0.7677 -1.3877 -1.5388
   71MOL    H2026760   3.366   0.557   0.051 -0.2470 -1.8248 -0.2912
   71MOL    C2126761   3.599   0.389   7.787  0.0777  0.1843 -0.1752
   71MOL    C2226762   3.719   0.386   7.685 -0.0349  0.4453 -0.2043
   71MOL    C2326763   3.851   0.405   7.757 -0.2839 -0.0761  0.2950
   71MOL    O2426764   3.882   0.513   7.806  0.2340 -0.1672 -0.4259
   71MOL    N2526765   3.935   0.299   7.761 -0.4228  0.3109  0.0645
   71MOL    C2626766   4.061   0.292   7.836  0.4754 -0.7499 -0.3143
   71MOL    C2726767   4.046   0.306   0.156  0.5360 -0.0731  0.0637
   71MOL    C2826768   4.167   0.393   7.789 -0.1226  0.3297  0.2388
   71MOL    H2926769   3.510   0.362   7.731 -2.4429  2.6751  2.4239
   71MOL    H3026770   3.613   0.313   0.028  3.0464 -1.4677 -2.2441
   71MOL    H3126771   3.725   0.282   7.652  2.0554  0.5813 -0.2905
   71MOL    H3226772   3.899   0.209   7.733 -0.5902  0.1811  0.6770
   71MOL    H3326773   4.108   0.194   7.821 -0.6095 -1.2556 -0.5110
   71MOL    H3426774   4.132   0.273   0.214  0.1756  0.4174  0.9026
   71MOL    H3526775   3.956   0.263   0.199 -0.1454  0.3808 -0.8876
   71MOL    H3626776   4.034   0.412   0.183 -1.6191  0.2901 -2.1612
   71MOL    H3726777   4.264   0.364   7.830  0.7256  2.9227  0.1704
   71MOL    H3826778   4.186   0.405   7.682 -0.3129 -0.3353  0.1307
   71MOL    H3926779   4.152   0.495   7.824 -0.3557  0.2759  0.2947
   71MOL    C4026780   3.699   0.482   7.570 -0.2667 -0.5463 -0.0302
   71MOL    C4126781   3.728   0.442   7.423 -0.4605  0.0594  0.7199
   71MOL    C4226782   3.872   0.401   7.418  0.4058  0.3536  0.8467
   71MOL    O4326783   3.957   0.493   7.414 -0.2952 -0.2353 -0.0216
   71MOL    N4426784   3.910   0.271   7.426 -0.3597 -0.4821  0.9179
   71MOL    C4526785   4.042   0.213   7.411  0.0387 -0.3680  0.3433
   71MOL    C4626786   4.057   0.075   7.475 -0.2414 -0.2629  0.0841
   71MOL    C4726787   4.078   0.193   7.263 -0.2285  0.5364  0.0980
   71MOL    H4826788   3.755   0.572   7.595  1.8603 -2.3809  1.9856
   71MOL    H4926789   3.600   0.527   7.583 -1.8092 -3.2448 -1.9208
   71MOL    H5026790   3.669   0.353   7.401  0.9264 -0.0712 -2.7070
   71MOL    H5126791   3.836   0.203   7.435  0.6704 -1.6100  1.0395
   71MOL    H5226792   4.123   0.272   7.453  0.4523 -0.2077 -0.6665
   71MOL    H5326793   3.984   0.008   7.428 -1.7205  1.1197  0.3588
   71MOL    H5426794   4.043   0.082   7.583 -1.5466 -1.3359  0.0033
   71MOL    H5526795   4.163   0.053   7.461  0.0715 -0.1571  2.1354
   71MOL    H5626796   4.182   0.160   7.263  0.1241  1.6398  1.1950
   71MOL    H5726797   4.072   0.277   7.193  0.3831  0.2990 -0.2419
   71MOL    H5826798   4.033   0.107   7.213  0.2781 -0.1326  0.7890
   71MOL    C5926799   3.692   0.557   7.320 -0.2716  0.8871 -0.1004
   71MOL    C6026800   3.632   0.508   7.187  0.1543 -0.4573  0.5020
   71MOL    C6126801   3.492   0.448   7.220  0.1131  0.4077  0.3135
   71MOL    O6226802   3.471   0.326   7.228  0.9137  0.3975 -0.0056
   71MOL    N6326803   3.406   0.548   7.240 -0.0449 -0.0364 -0.8990
   71MOL    C6426804   3.273   0.537   7.286  0.4344  0.7332 -0.3423
   71MOL    C6526805   3.240   0.687   7.320 -0.5186 -0.0984 -0.2043
   71MOL    C6626806   3.181   0.460   7.194  0.8999  0.8742  0.4004
   71MOL    H6726807   3.620   0.619   7.373 -1.8586 -0.7181 -0.3456
   71MOL    H6826808   3.775   0.625   7.303 -0.0016  0.1707 -1.7965
   71MOL    H6926809   3.615   0.592   7.120 -1.1553 -1.9016 -1.0250
   71MOL    H7026810   3.457   0.635   7.242 -0.5889  0.2998 -1.3382
   71MOL    H7126811   3.277   0.486   7.382  1.7899  0.4197 -0.5594
   71MOL    H7226812   3.135   0.699   7.344 -0.7308 -1.0427 -0.6465
   71MOL    H7326813   3.302   0.706   7.407 -0.3163  0.7656 -0.5320
   71MOL    H7426814   3.265   0.762   7.244  2.3893  3.0120  3.5516
   71MOL    H7526815   3.203   0.353   7.192 -0.4151  0.6016  0.0526
   71MOL    H7626816   3.078   0.478   7.225 -0.0612  1.7168 -3.0071
   71MOL    H7726817   3.196   0.492   7.091  1.2649  2.5044  0.9495
   71MOL    C7826818   3.719   0.420   7.102 -0.3711 -0.8577  0.0579
   71MOL    C7926819   3.781   0.490   6.979  0.9114 -0.4507  0.0605
   71MOL    C8026820   3.901   0.420   6.923 -0.5258  0.4247  0.6275
   71MOL    O8126821   3.911   0.297   6.912 -0.6294  0.6658  0.8159
   71MOL    N8226822   4.001   0.492   6.881  0.3613  0.1080 -0.4798
   71MOL    C8326823   4.111   0.447   6.792  0.3249 -0.0900 -0.4376
   71MOL    C8426824   4.062   0.475   6.651  0.1474 -0.0126 -0.1799
   71MOL    C8526825   4.233   0.524   6.819 -0.6910  0.6774 -0.4001
   71MOL    H8626826   3.656   0.343   7.057 -0.6797  0.4539 -1.8311
   71MOL    H8726827   3.789   0.372   7.170 -0.2431  0.4541  0.8679
   71MOL    H8826828   3.810   0.587   7.018  1.6881 -0.8351  0.4448
   71MOL    H8926829   3.976   0.588   6.863  0.8621  0.7443  2.0054
   71MOL    H9026830   4.136   0.340   6.790  0.7828  0.0163 -0.7360
   71MOL    H9126831   4.096   0.574   6.621  0.5935  0.1578  0.8498
   71MOL    H9226832   4.096   0.403   6.577 -1.8575 -0.4019 -0.7672
   71MOL    H9326833   3.953   0.480   6.646  0.1851  1.4898  0.3452
   71MOL    H9426834   4.286   0.485   6.906 -1.4059 -2.6586 -1.3765
   71MOL    H9526835   4.222   0.630   6.841  0.7717  1.0291 -1.2983
   71MOL    H9626836   4.309   0.512   6.742 -0.2170 -2.7404  0.5278
   71MOL    C9726837   3.673   0.521   6.866  0.2644 -0.3070 -0.1214
   71MOL    C9826838   3.662   0.652   6.790 -0.4204 -0.3115  0.1464
   71MOL    C9926839   3.790   0.714   6.723  0.8172  0.2662  0.3074
   71MOL   O10026840   3.897   0.733   6.788 -0.1290 -0.7695 -0.3089
   71MOL   N10126841   3.777   0.728   6.587  0.1477 -0.2548  0.0637
   71MOL   C10226842   3.878   0.781   6.494 -0.6974  0.2476 -0.6363
   71MOL   C10326843   3.911   0.690   6.377 -0.5869  0.5448 -0.2295
   71MOL   C10426844   3.830   0.921   6.451 -0.2833  0.2607  0.4933
   71MOL   H10526845   3.575   0.500   6.907 -0.1210  0.0591 -0.8427
   71MOL   H10626846   3.676   0.445   6.788 -1.1616 -2.0868  1.5399
   71MOL   H10726847   3.604   0.624   6.702 -0.6079  1.9179 -0.4695
   71MOL   H10826848   3.687   0.698   6.551 -0.0384  1.4290 -0.9019
   71MOL   H10926849   3.963   0.804   6.558 -1.2204 -0.3644  0.2895
   71MOL   H11026850   3.994   0.723   6.315 -0.4126  0.6627  0.0659
   71MOL   H11126851   3.941   0.592   6.414 -2.8297 -0.0897  0.0034
   71MOL   H11226852   3.820   0.679   6.318  0.6142 -3.4446 -1.4549
   71MOL   H11326853   3.836   0.993   6.533 -1.3896  1.1137 -0.1510
   71MOL   H11426854   3.728   0.917   6.411  0.7253 -2.8417 -1.9570
   71MOL   H11526855   3.894   0.967   6.376 -0.3585  1.5918  1.2154
   71MOL   C11626856   3.562   0.755   6.853 -0.5314 -0.1337 -0.3288
   71MOL   C11726857   3.626   0.884   6.919 -0.2560  0.2978  0.5334
   71MOL   C11826858   3.692   0.854   7.054 -0.1502 -0.2813 -0.4612
   71MOL   O11926859   3.618   0.846   7.154 -0.0253  0.3482 -0.0933
   71MOL   N12026860   3.826   0.857   7.055 -0.3600 -0.2127 -0.0862
   71MOL   C12126861   3.922   0.862   7.172 -0.4405  0.0703  0.2193
   71MOL   C12226862   4.058   0.795   7.133 -0.2153 -0.3900  0.3175
   71MOL   C12326863   3.948   1.001   7.238  0.7720 -0.3680  0.2926
   71MOL   H12426864   3.500   0.703   6.926  1.0753 -1.3024  0.2277
   71MOL   H12526865   3.494   0.794   6.777  0.3808  3.6382  0.6898
   71MOL   H12626866   3.704   0.919   6.851 -1.6979  0.1575 -1.2547
   71MOL   H12726867   3.862   0.863   6.960 -0.9717 -1.5848 -0.4216
   71MOL   H12826868   3.882   0.784   7.237 -1.0604 -0.3831 -0.6811
   71MOL   H12926869   4.126   0.773   7.215  1.0697 -0.3723 -0.7339
   71MOL   H13026870   4.117   0.860   7.068 -0.2113 -1.6620 -0.9628
   71MOL   H13126871   4.044   0.706   7.071 -1.2706  0.6388 -0.9487
   71MOL   H13226872   3.989   1.081   7.176  1.0406 -0.4892  0.3149
   71MOL   H13326873   3.848   1.026   7.275  0.3894  0.4347 -1.2284
   71MOL   H13426874   4.005   0.989   7.330 -2.1535 -3.9413  1.7639
   71MOL   C13526875   3.518   1.003   6.935  0.2158  0.5423  0.1289
   71MOL   C13626876   3.556   1.136   7.006 -0.1346 -0.6154 -0.5284
   71MOL   C13726877   3.677   1.204   6.943 -0.8675  0.0807  0.2909
   71MOL   O13826878   3.740   1.161   6.848  0.7022 -0.2624  0.1583
   71MOL   N13926879   3.710   1.318   7.002  0.0238  0.4199  0.3172
   71MOL   C14026880   3.824   1.397   6.971  0.4867 -0.6817  0.2434
   71MOL   C14126881   3.894   1.463   7.090  0.5626  0.7736 -0.1621
   71MOL   C14226882   3.780   1.505   6.862 -0.0402  0.0136  0.0278
   71MOL   H14326883   3.437   0.962   6.995  0.0322  1.6094  0.6099
   71MOL   H14426884   3.470   1.027   6.840  2.2506  0.5680 -0.9053
   71MOL   H14526885   3.575   1.100   7.107 -0.7388 -0.7496 -0.4578
   71MOL   H14626886   3.667   1.343   7.090 -0.0325 -0.9486  0.6794
   71MOL   H14726887   3.898   1.329   6.928 -0.1980 -1.2875  0.0128
   71MOL   H14826888   3.978   1.519   7.048 -0.1712  2.1036  0.0921
   71MOL   H14926889   3.827   1.543   7.124 -0.6779  0.1981 -1.2154
   71MOL   H15026890   3.921   1.394   7.170  1.1392 -0.0879 -1.1014
   71MOL   H15126891   3.862   1.553   6.808 -0.6861 -1.0289 -1.9251
   71MOL   H15226892   3.730   1.582   6.920 -3.3837 -2.4896  0.6370
   71MOL   H15326893   3.716   1.459   6.786  1.7406 -0.1339 -1.4101
   71MOL   C15426894   3.432   1.234   7.011 -0.0778 -0.0835 -0.0245
   71MOL   C15526895   3.354   1.252   7.150 -0.0789 -0.8744 -0.1829
   71MOL   C15626896   3.432   1.356   7.231 -0.3064  0.7813 -0.3062
   71MOL   O15726897   3.558   1.364   7.228  0.3990  0.9436 -0.3776
   71MOL   N15826898   3.361   1.451   7.299 -0.0579  0.2820 -0.2596
   71MOL   C15926899   3.417   1.575   7.354  0.9365 -0.5745 -0.0495
   71MOL   C16026900   3.337   1.637   7.469  0.2037  0.2558 -0.0248
   71MOL   C16126901   3.436   1.682   7.244  0.5005  0.3772 -0.2143
   71MOL   H16226902   3.346   1.209   6.949 -0.2683 -0.5062  0.4063
   71MOL   H16326903   3.461   1.332   6.974  0.0648 -0.0021  0.2957
   71MOL   H16426904   3.255   1.295   7.132  1.1064  1.1062 -2.1629
   71MOL   H16526905   3.263   1.426   7.301 -0.5117  1.8670 -1.4159
   71MOL   H16626906   3.519   1.560   7.391  0.4658 -1.4363  0.9079
   71MOL   H16726907   3.310   1.567   7.548 -1.1048  0.8548  0.0707
   71MOL   H16826908   3.397   1.717   7.513  0.2567  0.5743 -0.6563
   71MOL   H16926909   3.246   1.686   7.434  0.9616  0.5480 -1.6662
   71MOL   H17026910   3.497   1.644   7.163  1.2966 -1.6289  1.2865
   71MOL   H17126911   3.489   1.773   7.271 -1.0010  1.0674  0.4587
   71MOL   H17226912   3.340   1.710   7.200 -0.1483 -0.8906  0.3766
   71MOL   C17326913   3.345   1.122   7.234  0.0504 -0.1525  0.2031
   71MOL   C17426914   3.257   1.119   7.358 -0.3684 -0.5055  0.2239
   71MOL   C17526915   3.114   1.067   7.322 -0.3437 -0.7901 -0.3060
   71MOL   O17626916   3.063   0.983   7.391 -0.1051 -0.3522  0.1717
   71MOL   N17726917   3.052   1.128   7.221 -0.2813 -0.2961  0.4174
   71MOL   C17826918   2.927   1.087   7.169  0.4125 -0.0632  0.2245
   71MOL   C17926919   2.932   0.953   7.095 -0.6366 -0.0875 -0.1678
   71MOL   C18026920   2.868   1.199   7.084  0.0982 -0.3377 -0.4301
   71MOL   H18126921   3.444   1.084   7.262  0.5924  0.4987 -0.8067
   71MOL   H18226922   3.318   1.040   7.168 -0.8966  0.6959 -0.4642
   71MOL   H18326923   3.235   1.222   7.386 -0.6255 -0.0615 -1.5398
   71MOL   H18426924   3.104   1.208   7.186  2.0352 -1.3074  1.4434
   71MOL   H18526925   2.853   1.077   7.249 -0.0835 -0.3539 -0.2710
   71MOL   H18626926   2.986   0.969   7.002  2.3819  0.5120  1.6376
   71MOL   H18726927   2.831   0.922   7.070 -1.0048  0.2019  0.9288
   71MOL   H18826928   2.981   0.874   7.152  1.4181  2.7073  2.0336
   71MOL   H18926929   2.780   1.165   7.029  0.7158 -0.0226 -1.6318
   71MOL   H19026930   2.942   1.235   7.012  0.7337  1.4324  1.0575
   71MOL   H19126931   2.837   1.283   7.147 -1.2691 -0.6076 -0.7245
   71MOL   C19226932   3.322   1.040   7.473  0.7431 -0.1042 -0.1534
   71MOL   C19326933   3.433   1.098   7.561  0.3980  0.1258 -0.2811
   71MOL   C19426934   3.506   0.978   7.632  0.5341  0.7527 -0.2886
   71MOL   O19526935   3.458   0.934   7.736 -0.4644  0.4698  0.6223
   71MOL   N19626936   3.628   0.946   7.591 -0.0501 -0.1673 -0.4803
   71MOL   C19726937   3.715   0.847   7.647  0.3682  0.2042 -0.4017
   71MOL   C19826938   3.842   0.819   7.561  0.2031  0.3767 -0.1228
   71MOL   C19926939   3.768   0.893   7.787 -0.0490 -0.1193 -0.2844
   71MOL   H20026940   3.347   0.939   7.442 -2.0562 -1.6025  2.1730
   71MOL   H20126941   3.240   1.028   7.544 -1.5542  1.1346 -2.5527
   71MOL   H20226942   3.501   1.138   7.485  0.4008  0.4164 -0.1291
   71MOL   H20326943   3.657   0.987   7.504  1.7460  0.1085  0.2370
   71MOL   H20426944   3.650   0.760   7.645  0.0924  0.3804  0.3875
   71MOL   H20526945   3.902   0.908   7.579  1.0279 -0.4043  1.0843
   71MOL   H20626946   3.833   0.813   7.453 -0.4594  0.7698 -0.0965
   71MOL   H20726947   3.899   0.738   7.607  1.8266  1.0291 -0.9437
   71MOL   H20826948   3.690   0.933   0.016 -0.1586 -1.5666  0.4743
   71MOL   H20926949   3.835   0.980   7.782  0.7093 -0.6312  0.8246
   71MOL   H21026950   3.826   0.823   0.011 -2.4811  0.0271  2.3066
   71MOL   C21126951   3.387   1.210   7.656  0.0847 -0.9115  0.1348
   71MOL   C21226952   3.503   1.266   7.747  0.4896 -0.4555 -0.3581
   71MOL   C21326953   3.619   1.317   7.666  0.4105 -0.1263  0.1477
   71MOL   O21426954   3.611   1.414   7.590 -0.0695  0.1412 -0.2180
   71MOL   N21526955   3.724   1.234   7.675 -0.7261  0.5395 -0.0194
   71MOL   C21626956   3.850   1.266   7.604  0.1646  0.1503 -0.3100
   71MOL   C21726957   3.822   1.243   7.455 -0.2649  0.6610 -0.0742
   71MOL   C21826958   3.971   1.213   7.677 -0.1281 -0.3173  0.0364
   71MOL   H21926959   3.299   1.181   7.712  1.1064 -1.4370  1.4751
   71MOL   H22026960   3.346   1.288   7.591  0.3660 -0.2509  0.7432
   71MOL   H22126961   3.534   1.197   7.826  1.7925  1.3812  0.7756
   71MOL   H22226962   3.718   1.151   7.732  0.7320  2.2175  2.6556
   71MOL   H22326963   3.870   1.372   7.619  3.1497 -0.0712 -2.3704
   71MOL   H22426964   3.773   1.146   7.452 -0.0269  0.5891 -1.8411
   71MOL   H22526965   3.752   1.317   7.418  0.3590  1.4295  0.2570
   71MOL   H22626966   3.916   1.242   7.401 -0.3839 -0.5487 -0.2720
   71MOL   H22726967   3.976   1.236   7.784 -1.1814  0.9550 -0.1830
   71MOL   H22826968   4.062   1.262   7.642 -0.6210 -0.8947 -2.0986
   71MOL   H22926969   3.989   1.108   7.653 -0.8230 -0.0597 -1.6555
   71MOL   C23026970   3.451   1.383   7.832 -0.3519 -0.1482  0.1624
   71MOL   C23126971   3.338   1.363   0.097  0.6157  0.1044  0.2891
   71MOL   C23226972   3.369   1.263   0.201 -0.7479 -0.1154  0.7117
   71MOL   O23326973   3.471   1.267   0.269 -0.4162 -0.2991 -0.3516
   71MOL   N23426974   3.282   1.159   0.200  0.3458  0.1368 -0.6257
   71MOL   C23526975   3.307   1.033   0.273 -0.6860  0.1582  0.6960
   71MOL   C23626976   3.165   0.989   0.328  0.1293  0.4700  0.2197
   71MOL   C23726977   3.380   0.921   0.189  0.7784  0.2587 -0.0792
   71MOL   H23826978   3.425   1.461   7.760  0.9778  2.6779  2.6296
   71MOL   H23926979   3.541   1.411   0.050 -0.1706 -0.8288  0.2251
   71MOL   H24026980   3.252   1.328   0.040  0.1540  0.3522  0.8360
   71MOL   H24126981   3.207   1.161   0.132  0.7425 -3.2532 -1.2543
   71MOL   H24226982   3.373   1.056   0.357 -0.0202  0.5611  0.0697
   71MOL   H24326983   3.116   1.059   0.396  1.5926  0.9386  0.8158
   71MOL   H24426984   3.100   0.989   0.241  0.0867 -1.8097  0.2392
   71MOL   H24526985   3.169   0.902   0.393  0.4160 -0.7993 -1.4807
   71MOL   H24626986   3.466   0.963   0.138  1.5235 -1.3654 -0.1993
   71MOL   H24726987   3.310   0.879   0.116 -0.1252  0.3229  0.7335
   71MOL   H24826988   3.416   0.849   0.262  0.0235 -0.0163  0.0280
   71MOL   C24926989   3.287   1.503   0.151 -0.8133  0.0813  0.1341
   71MOL   C25026990   3.137   1.541   0.112 -0.5158  0.2704 -1.2453
   71MOL   C25126991   3.046   1.449   0.194 -0.1195  0.0139 -0.2268
   71MOL   O25226992   3.011   1.343   0.144  0.0085 -0.0034 -0.0800
   71MOL   N25326993   3.017   1.480   0.317 -0.2453 -0.2762 -0.0724
   71MOL   C25426994   2.962   1.391   0.422  0.2797  0.0511  0.7007
   71MOL   C25526995   3.084   1.343   0.512  0.3260  0.3198 -0.8637
   71MOL   C25626996   2.846   1.462   0.493 -0.1340  0.5515 -0.5410
   71MOL   H25726997   3.349   1.585   0.114  1.0347 -1.8901 -1.2388
   71MOL   H25826998   3.300   1.506   0.259  2.9300 -0.1650 -0.2380
   71MOL   H25926999   3.118   1.643   0.146 -1.3861 -0.3697  0.2611
   71MOL   H26027000   3.042   1.571   0.352  0.4458 -1.8016  3.6459
   71MOL   H26127001   2.916   1.303   0.376 -0.3004  0.2878  0.8221
   71MOL   H26227002   3.136   1.261   0.463 -1.4156 -1.1196 -0.3934
   71MOL   H26327003   3.160   1.416   0.535 -0.8963  2.1460 -2.4999
   71MOL   H26427004   3.053   1.300   0.608  0.1364  1.5800 -0.3547
   71MOL   H26527005   2.875   1.546   0.555  4.1802 -1.3669  0.2360
   71MOL   H26627006   2.788   1.516   0.417  2.6731  1.0553 -2.4232
   71MOL   H26727007   2.774   1.400   0.546  0.4502  1.1801  1.0133
   71MOL   C26827008   3.107   1.537   7.798  0.6158 -0.4041  0.3142
   71MOL   C26927009   2.954   1.562   7.760 -0.9559  0.9150 -0.2146
   71MOL   C27027010   2.894   1.683   0.000  0.3780 -0.6354  0.5962
   71MOL   O27127011   2.922   1.796   7.796 -0.1599 -0.1123 -0.3429
   71MOL   N27227012   2.809   1.657   0.105 -0.1004 -0.4973  0.0208
   71MOL   C27327013   2.737   1.774   0.157 -0.0912 -0.1879  0.0995
   71MOL   C27427014   2.607   1.800   0.084 -0.3460 -0.2390 -0.3307
   71MOL   C27527015   2.721   1.770   0.314 -0.3711 -0.6878 -0.2534
   71MOL   H27627016   3.175   1.612   7.757 -0.0661 -0.3550 -0.7197
   71MOL   H27727017   3.153   1.451   7.749  1.2502  0.0838  0.0471
   71MOL   H27827018   2.905   1.470   7.792 -1.3407  1.2334  0.1160
   71MOL   H27927019   2.771   1.565   0.123 -4.1111  1.1609  0.5329
   71MOL   H28027020   2.794   1.867   0.153  1.4463 -0.9331  2.9128
   71MOL   H28127021   2.627   1.816   7.815  0.2399 -2.0076 -0.5024
   71MOL   H28227022   2.529   1.726   0.103 -1.7533  1.1412 -0.7103
   71MOL   H28327023   2.569   1.892   0.128  5.0296  1.9804  0.1313
   71MOL   H28427024   2.678   1.865   0.347 -0.7869 -0.1484 -2.2882
   71MOL   H28527025   2.658   1.689   0.353  1.6503 -0.9536  2.6208
   71MOL   H28627026   2.819   1.767   0.362 -0.1057  1.5738 -0.6069
   71MOL   C28727027   2.948   1.572   7.604  0.1239 -0.0858 -0.9880
   71MOL   C28827028   2.972   1.440   7.529 -0.4816  0.1510  0.2714
   71MOL   C28927029   2.996   1.461   7.371  0.5829 -0.4973 -0.6134
   71MOL   O29027030   3.084   1.397   7.322 -0.4705 -0.0176 -0.2656
   71MOL   N29127031   2.938   1.567   7.313 -0.2687  0.5246 -0.4835
   71MOL   C29227032   2.986   1.636   7.198  0.8554  0.2457  0.3072
   71MOL   C29327033   2.887   1.612   7.084  0.6341 -0.3634 -0.9092
   71MOL   C29427034   2.990   1.788   7.227  0.6170  0.3586  0.1554
   71MOL   H29527035   2.850   1.614   7.582 -0.1546  1.1875  2.3352
   71MOL   H29627036   3.021   1.648   7.578  1.0477 -0.8208 -0.6105
   71MOL   H29727037   3.075   1.417   7.555  0.2160 -0.4891 -2.7763
   71MOL   H29827038   2.861   1.623   7.348 -1.4007 -0.1736 -1.7888
   71MOL   H29927039   3.084   1.613   7.157  0.8108  0.0327  0.3184
   71MOL   H30027040   2.910   1.688   7.009  0.7373  0.4531 -0.0642
   71MOL   H30127041   2.919   1.521   7.033 -1.4718 -0.5583 -1.8988
   71MOL   H30227042   2.786   1.595   7.120  1.0393 -0.5786  0.1399
   71MOL   H30327043   2.896   1.821   7.270  0.8111  1.5469 -0.3056
   71MOL   H30427044   3.078   1.819   7.284  1.5210 -1.6400 -0.0867
   71MOL   H30527045   3.002   1.830   7.127 -0.9606  2.9627  1.0447
   71MOL   C30627046   2.895   1.313   7.560  0.0300 -0.3192  0.2167
   71MOL   C30727047   2.749   1.298   7.501 -0.8076 -0.9120  0.3965
   71MOL   C30827048   2.664   1.417   7.554  0.0246 -0.4287  0.8175
   71MOL   O30927049   2.635   1.435   7.672 -0.1027 -0.2779 -0.3191
   71MOL   N31027050   2.621   1.507   7.460  0.6634  0.4069  0.2909
   71MOL   C31127051   2.544   1.632   7.490 -0.6941 -0.2457  0.3748
   71MOL   C31227052   2.551   1.738   7.382  0.0535  0.2973  0.2213
   71MOL   C31327053   2.392   1.595   7.504 -0.1033  0.0602  0.4761
   71MOL   H31427054   2.950   1.223   7.531 -0.9907 -1.1276  0.7424
   71MOL   H31527055   2.875   1.313   7.667 -0.0615  2.9043  0.2303
   71MOL   H31627056   2.748   1.292   7.392  0.3407  2.1988  0.1654
   71MOL   H31727057   2.644   1.491   7.363 -1.1822 -1.8953  0.1970
   71MOL   H31827058   2.567   1.673   7.588 -1.8556  0.1977  0.4734
   71MOL   H31927059   2.487   1.821   7.412 -0.3323 -0.4559  1.5457
   71MOL   H32027060   2.525   1.693   7.286 -0.6975 -0.2271  0.6604
   71MOL   H32127061   2.653   1.776   7.381  0.3170 -0.4033 -1.5105
   71MOL   H32227062   2.341   1.688   7.526 -1.0071  0.4206 -2.9486
   71MOL   H32327063   2.383   1.536   7.596 -1.3114 -1.4705 -0.6086
   71MOL   H32427064   2.342   1.537   7.427  1.3761 -1.2518  0.4626
   71MOL   C32527065   2.689   1.159   7.539  0.1688 -0.1127  0.3233
   71MOL   C32627066   2.540   1.139   7.496 -0.1129  0.3596  0.3911
   71MOL   C32727067   2.501   1.155   7.347 -0.5165  0.2023  0.0240
   71MOL   O32827068   2.552   1.075   7.270  0.0385 -0.0552 -0.8596
   71MOL   N32927069   2.416   1.251   7.317  0.1091  0.1141  0.7336
   71MOL   C33027070   2.383   1.283   7.174  0.1254  0.1028 -0.3653
   71MOL   C33127071   2.490   1.388   7.129 -0.5235  0.5565 -0.0081
   71MOL   C33227072   2.241   1.349   7.164 -0.0874  0.6887  0.4098
   71MOL   H33327073   2.702   1.141   7.645  0.5640 -1.6120  0.0418
   71MOL   H33427074   2.753   1.082   7.497  0.7799  0.2173  0.6559
   71MOL   H33527075   2.482   1.214   7.549 -1.6029  1.1307 -2.1963
   71MOL   H33627076   2.386   1.310   7.392 -0.4274 -0.1591  0.7401
   71MOL   H33727077   2.386   1.197   7.107 -2.0685 -3.0358  3.3645
   71MOL   H33827078   2.482   1.477   7.192 -0.0514  0.1680  0.6139
   71MOL   H33927079   2.590   1.345   7.125 -0.9612 -0.2869 -2.0784
   71MOL   H34027080   2.472   1.416   7.025 -2.3269  0.7406  0.3242
   71MOL   H34127081   2.237   1.426   7.241 -1.1952  1.7820 -0.7302
   71MOL   H34227082   2.156   1.281   7.178 -0.0924  0.9470  1.7194
   71MOL   H34327083   2.224   1.407   7.074 -1.1464  3.6418  2.4237
   71MOL   C34427084   2.485   1.008   7.561 -0.3630 -0.2211  0.3876
   71MOL   C34527085   2.331   0.998   7.542  0.1928 -0.2461 -0.2536
   71MOL   C34627086   2.298   0.863   7.468  1.2056  1.1803 -0.8601
   71MOL   O34727087   2.282   0.760   7.529  0.0736 -0.6875 -0.0676
   71MOL   N34827088   2.295   0.875   7.334 -1.0185  0.2074  0.6835
   71MOL   C34927089   2.259   0.757   7.246 -0.4550 -0.1067  0.1951
   71MOL   C35027090   2.249   0.807   7.096 -0.1854  0.2265 -0.6506
   71MOL   C35127091   2.378   0.661   7.238  0.9620  0.0848  0.1761
   71MOL   H35227092   2.516   0.988   7.664  1.0923 -3.1736 -0.5666
   71MOL   H35327093   2.523   0.923   7.505 -1.9009 -0.7244  0.0733
   71MOL   H35427094   2.286   1.079   7.485  1.2525  0.7339  0.3053
   71MOL   H35527095   2.310   0.968   7.298 -0.5510  0.7732  2.3029
   71MOL   H35627096   2.171   0.704   7.280  0.2137 -0.0690  2.0227
   71MOL   H35727097   2.175   0.887   7.085 -0.3725  0.1614  0.0737
   71MOL   H35827098   2.344   0.844   7.060 -0.0414  1.0541  0.5223
   71MOL   H35927099   2.222   0.722   7.034  0.4532  1.1886 -2.2799
   71MOL   H36027100   2.394   0.604   7.330 -0.7757 -2.3465 -0.9590
   71MOL   H36127101   2.367   0.577   7.170  1.9958 -0.3452  0.5410
   71MOL   H36227102   2.470   0.714   7.214  0.5748  0.8376  0.3165
   71MOL   C36327103   2.244   0.996   7.677  0.2598 -0.1222  0.2211
   71MOL   C36427104   2.269   1.114   7.774  0.2231  0.4769  0.1682
   71MOL   C36527105   2.197   1.242   7.728 -0.8147  0.3965  0.2113
   71MOL   O36627106   2.198   1.277   7.608 -0.6766  0.4853 -0.9236
   71MOL   N36727107   2.140   1.318   7.821  0.0176 -0.0710  0.4199
   71MOL   C36827108   2.099   1.457   7.798 -0.1802 -0.0218 -0.4207
   71MOL   C36927109   1.973   1.467   7.716  0.1476  0.4639  0.1604
   71MOL   C37027110   2.068   1.524   0.100  0.1255  0.3600  0.0637
   71MOL   H37127111   2.266   0.909   7.738  2.5384  0.4160  0.2025
   71MOL   H37227112   2.137   0.993   7.658  0.6804 -1.2786 -2.1303
   71MOL   H37327113   2.377   1.124   7.789  0.2876  0.2043 -0.1190
   71MOL   H37427114   2.151   1.287   0.080  1.8863 -0.3344  0.1469
   71MOL   H37527115   2.182   1.510   7.751 -0.3132  0.0262 -0.6034
   71MOL   H37627116   1.913   1.553   7.746 -0.9126  0.8994 -2.9520
   71MOL   H37727117   1.997   1.479   7.610  0.0795 -1.6464 -0.1085
   71MOL   H37827118   1.902   1.384   7.722  0.4149  0.0909 -1.5195
   71MOL   H37927119   2.054   1.632   0.095  0.5684  0.3929 -0.5093
   71MOL   H38027120   1.991   1.462   0.147  0.5459  1.6607  2.4832
   71MOL   H38127121   2.156   1.515   0.163  2.4243  3.7041 -2.4886
   71MOL   H38227122   2.218   1.091   0.031 -1.1578 -0.0165 -0.7035
   72MOL     C127123   2.936   6.848   6.576  0.3868 -0.0942  0.3368
   72MOL     C227124   2.792   6.882   6.579 -0.3548 -0.5968  0.1698
   72MOL     C327125   2.706   6.753   6.586  0.5094  0.6907  0.5352
   72MOL     O427126   2.753   6.665   6.664  0.7741  0.0330 -0.1949
   72MOL     N527127   2.593   6.744   6.520 -0.1164  0.3802  0.5463
   72MOL     C627128   2.520   6.622   6.517  0.2291  0.3822  0.8965
   72MOL     C727129   2.398   6.632   6.607  0.5200 -0.5077  0.1769
   72MOL     C827130   2.477   6.585   6.374 -0.1539  0.0637 -0.4627
   72MOL     H927131   2.998   6.937   6.570  2.3340 -1.4811 -0.5337
   72MOL    H1027132   2.956   6.790   6.486  0.5476 -0.0199  0.3252
   72MOL    H1127133   2.772   6.926   6.482  1.0717  0.6746  0.4307
   72MOL    H1227134   2.560   6.811   6.452 -0.0792 -0.3384 -0.1897
   72MOL    H1327135   2.570   6.530   6.548 -0.9243 -0.1015  1.3701
   72MOL    H1427136   2.325   6.691   6.552 -0.1561  1.3342  2.9107
   72MOL    H1527137   2.408   6.674   6.708 -0.6245 -0.2454  0.1915
   72MOL    H1627138   2.356   6.532   6.619  0.5145 -0.4987  0.2311
   72MOL    H1727139   2.414   6.662   6.330 -0.0272  0.0471 -0.6734
   72MOL    H1827140   2.555   6.570   6.300 -0.9577  1.5211 -1.6243
   72MOL    H1927141   2.412   6.498   6.377 -1.2326  0.8763 -0.0173
   72MOL    H2027142   2.971   6.797   6.666  0.3658 -0.1404  0.3192
   72MOL    C2127143   2.764   6.972   6.711 -0.2695 -0.8096 -0.0629
   72MOL    C2227144   2.658   7.081   6.694  0.2558  0.0580 -0.2164
   72MOL    C2327145   2.710   7.194   6.607  0.6684 -0.1707  0.4547
   72MOL    O2427146   2.642   7.236   6.511 -0.1788  0.0455  0.0973
   72MOL    N2527147   2.834   7.242   6.627  0.1506  0.2730 -0.4491
   72MOL    C2627148   2.891   7.351   6.558  0.2586 -0.0895  0.0554
   72MOL    C2727149   2.951   7.306   6.424 -0.2233  0.2509 -0.2460
   72MOL    C2827150   2.998   7.417   6.638  0.2823 -0.1235 -0.0054
   72MOL    H2927151   2.860   7.010   6.746 -0.8640  1.1315 -0.5014
   72MOL    H3027152   2.735   6.905   6.793  1.1466 -3.8853 -1.9654
   72MOL    H3127153   2.573   7.041   6.638 -1.1920  1.8218  0.6516
   72MOL    H3227154   2.877   7.213   6.714  1.0843  1.7680 -0.3972
   72MOL    H3327155   2.808   7.421   6.550  0.5076  0.2207  0.1860
   72MOL    H3427156   2.994   7.206   6.437  0.1333  0.5655  1.1308
   72MOL    H3527157   3.041   7.361   6.396 -1.9482  2.4949 -1.5101
   72MOL    H3627158   2.871   7.314   6.350  0.4442 -0.1088 -1.0133
   72MOL    H3727159   2.961   7.431   6.739  0.0037  2.3408 -0.4144
   72MOL    H3827160   3.081   7.346   6.632  0.5351  0.3483 -2.5108
   72MOL    H3927161   3.026   7.515   6.600 -1.7339  0.6665  0.4819
   72MOL    C4027162   2.604   7.128   6.830 -0.6990 -0.3401  0.0733
   72MOL    C4127163   2.474   7.207   6.818  0.2399 -0.3053  0.4503
   72MOL    C4227164   2.449   7.296   6.942  0.5429  0.2953 -0.0518
   72MOL    O4327165   2.526   7.288   7.040  0.1464  0.6164  0.3028
   72MOL    N4427166   2.349   7.386   6.934  0.1928  0.3839  0.0070
   72MOL    C4527167   2.282   7.454   7.043  0.9696  0.0774  1.0428
   72MOL    C4627168   2.323   7.602   7.045  0.0449 -0.0558 -0.5141
   72MOL    C4727169   2.134   7.432   7.018  0.1999 -0.3885  0.3953
   72MOL    H4827170   2.686   7.169   6.889 -0.8102 -0.9560  0.6667
   72MOL    H4927171   2.583   7.041   6.892  0.1556  1.1884  2.6024
   72MOL    H5027172   2.488   7.282   6.741 -1.0183  0.9320  1.4108
   72MOL    H5127173   2.314   7.401   6.840  0.0622 -0.2794 -0.0470
   72MOL    H5227174   2.309   7.400   7.133  2.3939 -3.8429 -1.5840
   72MOL    H5327175   2.305   7.634   6.943 -1.6226 -1.2341 -0.6115
   72MOL    H5427176   2.429   7.618   7.066  0.3216 -1.7410 -0.5445
   72MOL    H5527177   2.263   7.662   7.113  1.4571  2.1916 -1.2085
   72MOL    H5627178   2.074   7.475   7.098 -0.9331  0.9215 -1.1113
   72MOL    H5727179   2.107   7.327   7.028  0.4268 -0.4296  0.5743
   72MOL    H5827180   2.091   7.473   6.926  0.2286 -1.1565  0.0354
   72MOL    C5927181   2.353   7.119   6.774 -0.3272 -0.1898  0.3370
   72MOL    C6027182   2.304   7.133   6.631 -0.1467  0.4217  0.0437
   72MOL    C6127183   2.255   7.274   6.600  0.1501  0.3894  0.1456
   72MOL    O6227184   2.170   7.331   6.667  0.4198  0.0771 -0.1753
   72MOL    N6327185   2.337   7.336   6.512 -0.9203  0.2977 -0.9724
   72MOL    C6427186   2.355   7.484   6.486  0.5719  0.3068 -0.9321
   72MOL    C6527187   2.487   7.497   6.405  0.1708  0.0282  0.2513
   72MOL    C6627188   2.235   7.544   6.413  0.3393  0.0350 -0.7168
   72MOL    H6727189   2.368   7.016   6.806 -1.5384 -0.4791  0.0186
   72MOL    H6827190   2.267   7.134   6.840  0.6096  1.2060  1.2584
   72MOL    H6927191   2.393   7.121   6.569  1.3879 -0.9469  2.4292
   72MOL    H7027192   2.418   7.278   6.494  1.0386  2.3518  0.9122
   72MOL    H7127193   2.369   7.534   6.583  1.7611 -1.0631 -0.3680
   72MOL    H7227194   2.496   7.450   6.308 -0.5608  1.8144 -0.6974
   72MOL    H7327195   2.508   7.602   6.384  1.6179 -0.4045 -0.5730
   72MOL    H7427196   2.567   7.460   6.470  0.5553  0.6357  0.1286
   72MOL    H7527197   2.155   7.560   6.484  1.5466 -1.4893  1.0322
   72MOL    H7627198   2.250   7.637   6.358  0.3397 -0.1774 -1.0803
   72MOL    H7727199   2.202   7.475   6.335  1.4092 -1.0862 -0.1947
   72MOL    C7827200   2.204   7.015   6.603 -0.1796  1.0007 -0.5974
   72MOL    C7927201   2.153   7.017   6.456 -0.0879  0.0568  0.1530
   72MOL    C8027202   2.267   6.982   6.352 -0.4191 -0.0137 -0.4049
   72MOL    O8127203   2.361   6.912   6.385 -0.2442  0.0064 -0.1002
   72MOL    N8227204   2.267   7.047   6.231 -0.3596 -0.3847 -0.2372
   72MOL    C8327205   2.361   7.033   6.118  0.0354 -0.2241  0.4204
   72MOL    C8427206   2.277   6.981   6.006 -0.2448 -0.1024  0.5295
   72MOL    C8527207   2.419   7.178   6.083  0.3842 -0.3962 -0.0706
   72MOL    H8627208   2.128   7.000   6.680  1.2353  1.5267  0.9212
   72MOL    H8727209   2.264   6.924   6.608  0.1605  1.3373  1.8977
   72MOL    H8827210   2.134   7.123   6.439  1.1326  0.5385  1.7075
   72MOL    H8927211   2.198   7.118   6.211  0.8063  1.2061  1.2044
   72MOL    H9027212   2.439   6.962   6.145  0.6764  0.9621  1.7620
   72MOL    H9127213   2.232   6.884   6.027  1.1949 -0.7702  0.5949
   72MOL    H9227214   2.198   7.054   5.989 -0.3239  0.0076  1.3465
   72MOL    H9327215   2.329   6.984   5.910  1.3200  1.2747  1.3816
   72MOL    H9427216   2.339   7.251   6.074  0.2935 -0.7052 -1.8829
   72MOL    H9527217   2.495   7.173   6.005 -0.0788 -0.2905 -0.5317
   72MOL    H9627218   2.472   7.215   6.171 -0.9617 -1.3175  1.1471
   72MOL    C9727219   2.025   6.931   6.439  0.2223  0.8974  0.4369
   72MOL    C9827220   1.890   7.007   6.439 -0.3707  0.8228 -0.0813
   72MOL    C9927221   1.873   7.092   6.315  0.2891  0.2377  0.4168
   72MOL   O10027222   1.970   7.124   6.242  0.6138 -0.2077  0.2429
   72MOL   N10127223   1.746   7.131   6.293 -0.2975 -0.0984 -0.3562
   72MOL   C10227224   1.709   7.206   6.173 -0.1345  0.0842 -0.2188
   72MOL   C10327225   1.634   7.125   6.066  0.3124 -0.1848 -0.3961
   72MOL   C10427226   1.643   7.341   6.214 -0.8971  0.0391 -0.2166
   72MOL   H10527227   2.021   6.843   6.502 -1.3996  0.6623  0.0450
   72MOL   H10627228   2.023   6.893   6.337 -3.0874 -1.2247  1.2018
   72MOL   H10727229   1.816   6.929   6.420 -0.5915  1.5187 -2.2002
   72MOL   H10827230   1.679   7.096   6.360 -0.6378  1.0613 -0.0662
   72MOL   H10927231   1.799   7.252   6.132  0.1303 -1.0902 -0.9732
   72MOL   H11027232   1.699   7.048   6.025 -1.3109 -1.4001 -0.7136
   72MOL   H11127233   1.533   7.097   6.095  1.1050 -1.6643  0.9788
   72MOL   H11227234   1.618   7.191   5.980 -0.5746 -0.4209 -0.4129
   72MOL   H11327235   1.612   7.406   6.132  0.6790  1.9006  0.6356
   72MOL   H11427236   1.725   7.397   6.259 -0.8536  1.8229 -2.3835
   72MOL   H11527237   1.561   7.322   6.282 -1.7741  2.4728 -0.5622
   72MOL   C11627238   1.859   7.084   6.568  0.0101  0.4297  0.7045
   72MOL   C11727239   1.810   6.993   6.679 -0.3688 -0.3089 -0.0539
   72MOL   C11827240   1.666   6.948   6.663 -0.2048  0.5483 -0.3458
   72MOL   O11927241   1.583   7.031   6.628 -0.0274  0.3372  0.3593
   72MOL   N12027242   1.643   6.815   6.674 -0.2680  0.1728 -0.2950
   72MOL   C12127243   1.517   6.740   6.658  0.1209  0.2732 -0.0300
   72MOL   C12227244   1.431   6.757   6.786  0.0504  1.0951  0.4807
   72MOL   C12327245   1.432   6.780   6.539  0.6259 -0.3115  0.0504
   72MOL   H12427246   1.793   7.170   6.555 -0.9140 -0.5135 -0.8922
   72MOL   H12527247   1.954   7.133   6.589  2.4932 -3.6109 -0.5782
   72MOL   H12627248   1.868   6.903   6.697  0.5936  0.3738  0.2992
   72MOL   H12727249   1.722   6.756   6.695 -1.2035 -0.4295  1.6003
   72MOL   H12827250   1.544   6.635   6.649  1.5228  0.5028  1.1914
   72MOL   H12927251   1.489   6.776   6.876  0.2212 -1.3149  0.9147
   72MOL   H13027252   1.376   6.667   6.813  0.3244  1.0237  0.8049
   72MOL   H13127253   1.370   6.847   6.780 -0.7700  0.5539  0.6818
   72MOL   H13227254   1.473   6.774   6.438  0.5125  2.0898 -0.1720
   72MOL   H13327255   1.348   6.711   6.536 -1.2560  1.9236  0.1090
   72MOL   H13427256   1.379   6.875   6.540 -1.4013 -1.3821 -1.3188
   72MOL   C13527257   1.816   7.082   6.808  0.2484 -0.2182 -0.0475
   72MOL   C13627258   1.845   7.018   6.942  0.1262 -0.4261  0.6912
   72MOL   C13727259   1.990   6.962   6.946 -0.8006 -1.0070  0.0440
   72MOL   O13827260   2.073   7.047   6.970  0.2959  0.0707 -0.1212
   72MOL   N13927261   2.015   6.831   6.921 -1.0838 -0.2723 -0.7910
   72MOL   C14027262   2.144   6.763   6.914  1.0881  0.1844  0.2666
   72MOL   C14127263   2.113   6.624   6.848 -0.0967 -0.6658  0.2068
   72MOL   C14227264   2.217   6.759   7.048 -0.0431  0.6768 -0.2858
   72MOL   H14327265   1.732   7.151   6.810  0.6548  0.2529  2.0560
   72MOL   H14427266   1.897   7.155   6.799  0.7107 -0.7146  0.0190
   72MOL   H14527267   1.767   6.943   6.953 -1.6737  1.3052  0.1294
   72MOL   H14627268   1.932   6.782   6.890 -0.1771 -1.7726 -0.8599
   72MOL   H14727269   2.204   6.813   6.838 -0.0186  0.1652 -0.6400
   72MOL   H14827270   2.186   6.546   6.868 -0.4361 -0.9798  0.2443
   72MOL   H14927271   2.024   6.571   6.883 -0.6128 -0.4033 -0.7027
   72MOL   H15027272   2.105   6.634   6.740 -0.5160  1.8649  0.4321
   72MOL   H15127273   2.170   6.679   7.105  0.5430  0.3059 -0.3141
   72MOL   H15227274   2.196   6.847   7.110 -1.2626  1.2056 -1.4202
   72MOL   H15327275   2.326   6.752   7.048  0.0014  1.0083  1.7699
   72MOL   C15427276   1.808   7.119   7.062  0.3039 -0.7744 -0.3266
   72MOL   C15527277   1.826   7.080   7.207 -0.3550  0.7587  0.0224
   72MOL   C15627278   1.740   6.957   7.234  0.3890 -0.1049  0.0565
   72MOL   O15727279   1.621   6.968   7.268  0.0122  0.5535 -0.0308
   72MOL   N15827280   1.804   6.843   7.224 -0.5141  0.1823  0.4981
   72MOL   C15927281   1.754   6.708   7.233 -0.2395  0.7856  0.3934
   72MOL   C16027282   1.885   6.616   7.218  0.4061  0.0977  0.2130
   72MOL   C16127283   1.650   6.675   7.127 -0.0774  0.9460  1.2730
   72MOL   H16227284   1.706   7.155   7.053  0.8630  1.3878  1.5383
   72MOL   H16327285   1.877   7.200   7.038 -0.8964  0.2415 -0.4121
   72MOL   H16427286   1.930   7.048   7.219 -1.4195 -2.7835  0.2799
   72MOL   H16527287   1.904   6.851   7.226 -0.2758 -2.3909  0.6886
   72MOL   H16627288   1.711   6.692   7.332  0.5707  0.6387  0.7322
   72MOL   H16727289   1.959   6.620   7.298  1.1716 -1.5483 -0.3982
   72MOL   H16827290   1.852   6.512   7.225  2.3067 -0.6087 -0.8508
   72MOL   H16927291   1.934   6.630   7.121 -2.1429  0.5450 -1.0313
   72MOL   H17027292   1.682   6.700   7.025 -2.2145  2.8331  1.0064
   72MOL   H17127293   1.567   6.746   7.131 -1.4822 -0.6550  0.7754
   72MOL   H17227294   1.617   6.572   7.121 -1.3895  1.4283 -0.4016
   72MOL   C17327295   1.815   7.197   7.297  0.1623  0.3240  0.6071
   72MOL   C17427296   1.794   7.172   7.450  0.0368 -0.3960  0.1393
   72MOL   C17527297   1.919   7.108   7.506  0.8606  0.1211  0.1551
   72MOL   O17627298   2.026   7.147   7.469  0.2691 -0.4488 -0.3162
   72MOL   N17727299   1.885   7.005   7.594  0.0226  0.7802  0.2958
   72MOL   C17827300   1.972   6.917   7.671 -0.2418 -0.1511 -0.3265
   72MOL   C17927301   1.895   6.799   7.719  0.1807  0.7519 -0.5028
   72MOL   C18027302   2.021   6.996   7.791 -0.2469 -0.1967 -0.0410
   72MOL   H18127303   1.719   7.236   7.264  0.7313 -0.9849 -2.8273
   72MOL   H18227304   1.892   7.272   7.280 -0.5254  0.6804 -1.0634
   72MOL   H18327305   1.705   7.113   7.467 -1.0038  1.5089  1.5028
   72MOL   H18427306   1.786   6.988   7.593 -0.1625  1.8043  0.5710
   72MOL   H18527307   2.069   6.902   7.623 -0.4689  0.7055 -1.0816
   72MOL   H18627308   1.840   6.749   7.640  0.5368  2.2665 -1.7471
   72MOL   H18727309   1.822   6.827   7.795 -1.0370 -1.0137 -1.0142
   72MOL   H18827310   1.961   6.729   7.771  1.0909  3.0707  1.6375
   72MOL   H18927311   2.050   7.097   7.762  1.7022 -1.0750 -1.2253
   72MOL   H19027312   2.103   6.955   0.013  0.2543 -0.3387 -0.8497
   72MOL   H19127313   1.946   7.000   0.034 -0.0337  0.1995  0.1457
   72MOL   C19227314   1.756   7.306   7.510 -0.3408  0.7168  0.3664
   72MOL   C19327315   1.740   7.318   7.662  0.5003 -0.7365  0.4036
   72MOL   C19427316   1.611   7.394   7.702  0.4268 -0.3257  0.0565
   72MOL   O19527317   1.577   7.490   7.640 -0.1307 -0.7282 -0.7286
   72MOL   N19627318   1.554   7.359   7.819  0.1170 -0.1866 -0.1032
   72MOL   C19727319   1.468   7.446   0.056 -1.1129  0.1519  0.0918
   72MOL   C19827320   1.391   7.354   0.146  0.2718 -0.1290 -0.3832
   72MOL   C19927321   1.547   7.544   0.142 -0.1530 -0.0469 -0.5979
   72MOL   H20027322   1.661   7.334   7.464 -0.2998  1.4569  0.7292
   72MOL   H20127323   1.819   7.383   7.466 -1.2258  0.4405 -1.4259
   72MOL   H20227324   1.729   7.215   7.697 -0.0593 -1.1692 -1.0342
   72MOL   H20327325   1.596   7.283   0.035  0.9151  1.1262  1.2063
   72MOL   H20427326   1.409   7.507   7.825  1.3187  1.3786 -0.9568
   72MOL   H20527327   1.460   7.312   0.220 -1.4097 -2.3199  0.0256
   72MOL   H20627328   1.331   7.274   0.101  0.2559  0.0583 -0.6879
   72MOL   H20727329   1.303   7.403   0.189  1.2562 -0.3493  1.9613
   72MOL   H20827330   1.614   7.596   0.074  0.5799  1.0892  0.9600
   72MOL   H20927331   1.606   7.489   0.215  0.0087 -0.3230 -0.9402
   72MOL   H21027332   1.486   7.612   0.202 -0.9784 -1.9147  0.6943
   72MOL   C21127333   1.871   7.376   7.715  0.5778 -0.4610  0.3188
   72MOL   C21227334   1.882   7.428   0.023  0.4996  0.1167 -0.2017
   72MOL   C21327335   1.870   7.305   0.114 -0.7177  0.1356  0.4786
   72MOL   O21427336   1.769   7.235   0.119 -0.0743 -0.6086 -0.1220
   72MOL   N21527337   1.971   7.281   0.200 -0.6627  0.5500  0.0547
   72MOL   C21627338   1.965   7.199   0.319 -0.2411 -0.3183  0.9493
   72MOL   C21727339   1.907   7.280   0.433 -0.4159  0.6672 -0.1052
   72MOL   C21827340   2.100   7.145   0.349 -0.3715  0.0473  0.5866
   72MOL   H21927341   1.891   7.463   7.652 -1.9246  0.1213  0.2916
   72MOL   H22027342   1.956   7.312   7.689  0.3836 -0.9196  0.8160
   72MOL   H22127343   1.802   7.493   0.061 -0.0615  0.5607 -2.1155
   72MOL   H22227344   2.051   7.339   0.176 -0.3674  0.0385 -0.1982
   72MOL   H22327345   1.901   7.112   0.309  0.2763 -0.3630 -2.3047
   72MOL   H22427346   1.903   7.229   0.529  0.2723 -0.2023 -0.5329
   72MOL   H22527347   1.963   7.370   0.459 -0.4330  1.0617 -1.4187
   72MOL   H22627348   1.807   7.318   0.417 -0.8942 -1.2854 -2.0526
   72MOL   H22727349   2.141   7.098   0.260 -1.6505  2.0554 -1.0932
   72MOL   H22827350   2.099   7.075   0.433 -0.5128  0.7413  1.1707
   72MOL   H22927351   2.171   7.221   0.381 -1.6925  3.2773 -3.6721
   72MOL   C23027352   2.016   7.508   0.042 -0.0891 -0.3028 -0.0632
   72MOL   C23127353   2.147   7.444   0.001  0.4280 -0.1944 -0.1185
   72MOL   C23227354   2.181   7.503   7.698 -0.4629  0.6388 -0.1465
   72MOL   O23327355   2.200   7.627   7.690 -0.2917 -0.1152  0.0008
   72MOL   N23427356   2.204   7.411   7.599 -0.0628  0.5302 -0.0010
   72MOL   C23527357   2.255   7.445   7.468  0.3595  0.4046 -1.2339
   72MOL   C23627358   2.353   7.344   7.415 -0.1581  0.1721  0.0060
   72MOL   C23727359   2.129   7.473   7.381 -0.1723  0.4279  0.1741
   72MOL   H23827360   2.022   7.521   0.151  2.7199 -1.7960  0.0011
   72MOL   H23927361   1.998   7.607   0.001 -5.3389 -0.7037  0.8915
   72MOL   H24027362   2.140   7.336   7.831 -0.4914 -0.1749  0.3921
   72MOL   H24127363   2.196   7.314   7.626 -0.0605  0.8250  1.0686
   72MOL   H24227364   2.305   7.542   7.476  0.1550  0.5506 -1.6702
   72MOL   H24327365   2.448   7.349   7.468  0.7377 -0.6872 -1.4922
   72MOL   H24427366   2.307   7.245   7.411 -1.2709  0.7269 -1.1956
   72MOL   H24527367   2.394   7.361   7.316 -4.0443  2.2781 -1.3170
   72MOL   H24627368   2.052   7.396   7.377 -2.4248  2.5604  1.3800
   72MOL   H24727369   2.159   7.501   7.279  2.0994  0.7785  0.9072
   72MOL   H24827370   2.080   7.564   7.417  2.0292  2.5343 -1.9135
   72MOL   C24927371   2.258   7.465   0.111  0.0465  0.2834  0.4853
   72MOL   C25027372   2.406   7.431   0.075  0.0894 -0.4915  0.4986
   72MOL   C25127373   2.412   7.284   0.039  0.3556  0.2306  0.2753
   72MOL   O25227374   2.343   7.204   0.107 -0.6284  0.7323 -0.6296
   72MOL   N25327375   2.495   7.250   7.771 -0.0199 -0.5444 -0.0630
   72MOL   C25427376   2.519   7.122   7.706  0.0991  0.2745  0.3780
   72MOL   C25527377   2.619   7.036   7.794  0.0108  0.2497 -0.3780
   72MOL   C25627378   2.388   7.055   7.669  0.8459  0.0256 -0.5597
   72MOL   H25727379   2.235   7.429   0.211  1.2464  1.4624  1.2127
   72MOL   H25827380   2.230   7.570   0.104  1.4730  0.4646 -3.6583
   72MOL   H25927381   2.442   7.490   7.828 -0.4212 -0.2823  0.4192
   72MOL   H26027382   2.546   7.328   7.733 -0.8216 -0.3473 -0.7510
   72MOL   H26127383   2.580   7.151   7.621  0.4336  0.1230  0.5642
   72MOL   H26227384   2.706   7.089   7.832 -2.1129  2.2679  1.8044
   72MOL   H26327385   2.560   7.005   0.044 -2.2598  2.8938 -0.9277
   72MOL   H26427386   2.643   6.944   7.741  2.5644  1.7799 -1.9232
   72MOL   H26527387   2.337   7.026   7.761  1.4215 -0.6973 -0.4682
   72MOL   H26627388   2.313   7.103   7.606 -2.7400 -2.9220  1.2385
   72MOL   H26727389   2.410   6.962   7.617 -0.7096 -1.1061  0.7521
   72MOL   C26827390   2.504   7.455   0.198  0.1096 -0.4012  0.9032
   72MOL   C26927391   2.567   7.595   0.213 -0.1130 -0.4432  0.7334
   72MOL   C27027392   2.460   7.693   0.253  0.7510 -0.1136  0.1169
   72MOL   O27127393   2.416   7.693   0.369 -1.1051 -0.0134  0.6967
   72MOL   N27227394   2.399   7.769   0.164 -0.4909 -0.5764  0.6020
   72MOL   C27327395   2.295   0.035   0.193 -0.4355  0.1381 -0.3895
   72MOL   C27427396   2.344   0.156   0.274 -0.8417  0.3045  0.4034
   72MOL   C27527397   2.224   0.073   0.064  1.1149 -0.7463  0.4071
   72MOL   H27627398   2.451   7.431   0.291 -2.7420  1.4294 -0.1813
   72MOL   H27727399   2.581   7.377   0.198 -0.1555 -0.6671  0.3267
   72MOL   H27827400   2.619   7.618   0.120  0.5800 -0.9365  0.9932
   72MOL   H27927401   2.413   7.765   0.064  0.6509  1.8836  0.6447
   72MOL   H28027402   2.219   7.831   0.260  0.1893 -0.8291 -0.2543
   72MOL   H28127403   2.431   0.200   0.226 -1.0163 -2.4356 -2.5904
   72MOL   H28227404   2.266   0.231   0.281  0.5170  1.7849 -0.2246
   72MOL   H28327405   2.385   0.133   0.373  0.8844  1.2985 -0.0620
   72MOL   H28427406   2.167   7.826   0.023 -0.9773  0.0672  1.5505
   72MOL   H28527407   2.155   0.156   0.081  1.7591 -0.1049 -0.0955
   72MOL   H28627408   2.292   0.109   7.823  0.8308 -1.0945 -0.0080
   72MOL   C28727409   2.683   7.594   0.311  0.2400  0.2278  0.2831
   72MOL   C28827410   2.769   7.719   0.303 -0.8705  0.0944  0.0157
   72MOL   C28927411   2.911   7.661   0.286 -0.1187  0.0044  0.7684
   72MOL   O29027412   2.966   7.604   0.381 -0.8218  0.5755  0.3431
   72MOL   N29127413   2.972   7.684   0.163 -0.4407  0.1552  0.7598
   72MOL   C29227414   3.098   7.640   0.108  0.4199 -0.3439 -0.3803
   72MOL   C29327415   3.085   7.638   7.787  0.0621  0.4306  0.1867
   72MOL   C29427416   3.214   7.737   0.148 -0.0285 -0.2982 -0.1302
   72MOL   H29527417   2.634   7.581   0.407 -1.6645 -0.0558 -0.6989
   72MOL   H29627418   2.740   7.503   0.291 -1.8278 -0.7202 -1.4819
   72MOL   H29727419   2.745   7.784   0.218 -1.5781  0.3038  0.3751
   72MOL   H29827420   2.912   7.745   0.109  0.0668  0.5919  0.6851
   72MOL   H29927421   3.124   7.536   0.128  0.9237 -0.0987  0.2742
   72MOL   H30027422   3.058   7.731   7.736 -3.6847 -0.4232  0.4411
   72MOL   H30127423   3.175   7.607   7.734 -2.0057 -0.8210 -2.7837
   72MOL   H30227424   3.009   7.563   7.766  0.3460 -0.6609  2.8850
   72MOL   H30327425   3.300   7.738   0.081  0.1551 -0.8322  0.0987
   72MOL   H30427426   3.176   0.003   0.153  0.0414 -0.1151 -2.6654
   72MOL   H30527427   3.246   7.709   0.248 -1.7262 -0.4834  0.3756
   72MOL   C30627428   2.756   7.809   0.429  0.2172  0.1190 -0.0054
   72MOL   C30727429   2.822   0.108   0.416  0.3871 -0.0443 -0.2364
   72MOL   C30827430   2.911   0.134   0.533  0.0509  0.2710  0.1788
   72MOL   O30927431   2.867   0.207   0.623 -0.3130 -0.0292 -0.1010
   72MOL   N31027432   3.027   0.066   0.538  0.6721 -0.5511  0.5929
   72MOL   C31127433   3.130   0.089   0.632 -0.3371 -0.4487 -0.2045
   72MOL   C31227434   3.233   7.815   0.648 -0.0391 -0.1682  0.3442
   72MOL   C31327435   3.196   0.225   0.598 -0.0926  0.3893  0.4860
   72MOL   H31427436   2.653   7.831   0.455  0.5898 -1.6889  3.2119
   72MOL   H31527437   2.786   7.753   0.518 -1.0435 -1.7151 -0.7045
   72MOL   H31627438   2.894   0.111   0.335 -0.6255 -1.4309 -1.2024
   72MOL   H31727439   3.037   0.003   0.459 -3.2469 -1.1856  0.5113
   72MOL   H31827440   3.078   0.111   0.725  2.8347 -0.4028  1.6602
   72MOL   H31927441   3.171   7.729   0.675  2.2789 -1.5114  1.5751
   72MOL   H32027442   3.292   0.007   0.735 -0.5706  0.5728  0.4719
   72MOL   H32127443   3.286   7.789   0.557 -3.9462 -4.3834 -0.9503
   72MOL   H32227444   3.127   0.307   0.617 -0.5808  0.2633 -0.6778
   72MOL   H32327445   3.231   0.224   0.495 -2.0181  2.9578 -0.2527
   72MOL   H32427446   3.282   0.233   0.664  1.7468 -0.2264 -1.7392
   72MOL   C32527447   2.716   0.218   0.379  0.0083 -0.3244 -0.1709
   72MOL   C32627448   2.778   0.362   0.361 -0.2321 -0.0202  0.2998
   72MOL   C32727449   2.890   0.373   0.245  0.5079 -0.1143 -0.0458
   72MOL   O32827450   2.857   0.388   0.125  0.0623  0.5487 -0.3649
   72MOL   N32927451   3.018   0.373   0.287  0.2599  0.0906  0.3387
   72MOL   C33027452   3.130   0.422   0.201  0.5536 -0.2305 -0.1553
   72MOL   C33127453   3.246   0.320   0.200 -0.3159  0.6166 -0.2567
   72MOL   C33227454   3.168   0.555   0.271 -0.0836 -0.1267 -0.4111
   72MOL   H33327455   2.638   0.216   0.455  0.1760  0.0184  0.0111
   72MOL   H33427456   2.658   0.184   0.293 -0.1986 -1.4423  0.4100
   72MOL   H33527457   2.815   0.383   0.462  1.7565  1.4702 -0.7172
   72MOL   H33627458   3.034   0.367   0.386 -0.8286 -2.7636  0.3749
   72MOL   H33727459   3.104   0.431   0.096  2.6441 -1.3604 -0.8147
   72MOL   H33827460   3.325   0.351   0.131  0.7492  0.0129  0.6837
   72MOL   H33927461   3.294   0.314   0.298 -0.6340 -0.7015 -0.1726
   72MOL   H34027462   3.213   0.221   0.171 -0.0511  0.1935  0.8575
   72MOL   H34127463   3.088   0.629   0.267 -1.2558 -1.3917 -0.5872
   72MOL   H34227464   3.249   0.603   0.216 -0.4206 -0.1898 -0.9758
   72MOL   H34327465   3.190   0.546   0.377 -3.0508  0.1141  0.2774
   72MOL   C34427466   2.675   0.466   0.326 -0.1431 -0.5473 -0.5306
   72MOL   C34527467   2.603   0.515   0.458 -0.4612  0.2753 -0.0390
   72MOL   C34627468   2.679   0.634   0.522 -0.2421  0.2563 -0.5254
   72MOL   O34727469   2.716   0.624   0.638 -0.5756  0.0785 -0.2601
   72MOL   N34827470   2.692   0.739   0.447  0.0895  0.6835 -0.2136
   72MOL   C34927471   2.713   0.873   0.490 -0.3184 -1.0849  0.2785
   72MOL   C35027472   2.853   0.929   0.451 -0.5765 -0.2889 -0.2700
   72MOL   C35127473   2.597   0.955   0.428 -0.9348  0.0135  0.0634
   72MOL   H35227474   2.605   0.418   0.257 -1.7233  0.8443  0.0918
   72MOL   H35327475   2.725   0.546   0.272 -0.4665 -1.7274 -2.6446
   72MOL   H35427476   2.595   0.430   0.526 -3.2081 -1.0826 -1.9501
   72MOL   H35527477   2.665   0.725   0.351 -0.3740 -0.7458  0.1092
   72MOL   H35627478   2.703   0.873   0.598 -0.1339 -2.6898  0.3107
   72MOL   H35727479   2.931   0.864   0.491  0.1634  0.9453  0.3136
   72MOL   H35827480   2.877   0.934   0.345 -0.8505  1.7411 -0.2484
   72MOL   H35927481   2.881   1.026   0.493  1.5380 -1.7352  1.7945
   72MOL   H36027482   2.507   0.941   0.488  0.8096 -0.7579  2.6168
   72MOL   H36127483   2.631   1.059   0.433  3.6752 -1.4355  1.8253
   72MOL   H36227484   2.572   0.941   0.323 -0.4614  0.0947 -0.0596
   72MOL   C36327485   2.451   0.535   0.436  0.5382 -0.0885  0.2199
   72MOL   C36427486   2.369   0.570   0.569  0.2661  0.2924  0.7732
   72MOL   C36527487   2.366   0.453   0.676  0.0035 -0.1255 -0.0741
   72MOL   O36627488   2.295   0.353   0.660 -0.0923 -1.2948  0.5251
   72MOL   N36727489   2.450   0.466   0.775 -0.1206  0.6541 -0.7554
   72MOL   C36827490   2.484   0.364   0.882  0.0581  0.5572  0.6032
   72MOL   C36927491   2.629   0.341   0.882 -0.4035  0.0699 -0.4951
   72MOL   C37027492   2.439   0.402   1.022  0.5367  0.1190  0.2303
   72MOL   H37127493   2.412   0.446   0.387  0.8997 -0.8314  1.2546
   72MOL   H37227494   2.440   0.615   0.363 -0.5871 -0.3708  0.0689
   72MOL   H37327495   2.271   0.605   0.538  0.5419  1.6452  1.3655
   72MOL   H37427496   2.514   0.544   0.772 -1.4780  1.9075  1.1063
   72MOL   H37527497   2.432   0.270   0.866  2.4664 -0.6132 -0.7584
   72MOL   H37627498   2.687   0.432   0.901  0.0777 -0.5314  1.0278
   72MOL   H37727499   2.654   0.255   0.944 -1.2601  1.1310  1.3685
   72MOL   H37827500   2.666   0.319   0.782  0.1527 -2.1807  0.1749
   72MOL   H37927501   2.480   0.500   1.046  0.1342  0.0829  1.0868
   72MOL   H38027502   2.332   0.426   1.025  0.6989  0.6082  2.5749
   72MOL   H38127503   2.473   0.331   1.097  0.6696 -0.7188 -0.6118
   72MOL   H38227504   2.403   0.655   0.629 -0.0683  0.5947  0.5340
   73MOL     C127505   1.524   4.357   0.703 -0.5698  0.0619 -0.3166
   73MOL     C227506   1.538   4.387   0.549 -0.3840 -0.0842 -0.4998
   73MOL     C327507   1.487   4.256   0.472  0.0982 -0.8537 -0.0316
   73MOL     O427508   1.373   4.242   0.429 -0.1028  0.5784  0.3509
   73MOL     N527509   1.582   4.163   0.468 -0.1671  0.1481  0.2692
   73MOL     C627510   1.564   4.025   0.405  0.1518  0.2629 -0.2553
   73MOL     C727511   1.706   3.974   0.375 -1.0542 -0.4846 -0.2919
   73MOL     C827512   1.490   3.928   0.503 -0.2233  0.2421  0.0405
   73MOL     H927513   1.440   4.293   0.730  0.2855 -1.6391 -1.5604
   73MOL    H1027514   1.523   4.443   0.769  1.3455  1.2880 -1.8471
   73MOL    H1127515   1.645   4.408   0.544 -0.6064  2.1736  3.0531
   73MOL    H1227516   1.673   4.175   0.510 -1.2734  1.3599  2.3624
   73MOL    H1327517   1.504   4.044   0.316  0.7976  2.0579 -0.3198
   73MOL    H1427518   1.777   3.989   0.457  0.7139 -1.9117 -1.5128
   73MOL    H1527519   1.747   4.036   0.296  0.8473  1.4204  2.0867
   73MOL    H1627520   1.713   3.871   0.340 -1.2148 -0.7210  0.3572
   73MOL    H1727521   1.526   3.826   0.488  0.6261  0.7558 -1.5832
   73MOL    H1827522   1.510   3.943   0.609  2.5903 -1.9651 -0.1242
   73MOL    H1927523   1.383   3.926   0.485 -0.2843 -0.8993  0.4742
   73MOL    H2027524   1.610   4.302   0.742 -1.0144 -0.3598  0.0714
   73MOL    C2127525   1.471   4.511   0.494  0.5286  0.3774  0.2733
   73MOL    C2227526   1.473   4.535   0.337 -0.5419  0.6207  0.7670
   73MOL    C2327527   1.613   4.508   0.273  0.5274  0.6342  0.4341
   73MOL    O2427528   1.709   4.573   0.308  0.2613  0.0583 -0.5382
   73MOL    N2527529   1.620   4.416   0.172  0.2510  0.3897  0.2231
   73MOL    C2627530   1.724   4.374   0.081  0.3467 -0.1300 -0.3618
   73MOL    C2727531   1.723   4.465   7.796  0.4484 -0.2696  0.0346
   73MOL    C2827532   1.695   4.229   0.033  0.1607  0.6149  0.2280
   73MOL    H2927533   1.522   4.596   0.539  0.1191  0.1787  1.1280
   73MOL    H3027534   1.367   4.510   0.527  0.3335 -0.2512 -0.3607
   73MOL    H3127535   1.407   4.455   0.305  0.6078 -0.3250  0.7397
   73MOL    H3227536   1.532   4.376   0.145  1.4860 -0.8488 -2.0780
   73MOL    H3327537   1.824   4.388   0.122  0.0688 -0.7863  0.5733
   73MOL    H3427538   1.636   4.434   7.738  0.9100 -0.7664 -0.3998
   73MOL    H3527539   1.804   4.458   7.724  0.1089 -2.4249 -0.1608
   73MOL    H3627540   1.716   4.570   7.826  2.5474 -0.4920  1.3759
   73MOL    H3727541   1.777   4.195   7.805  0.1048 -0.2841  0.6202
   73MOL    H3827542   1.679   4.160   0.116 -2.8293  0.2745 -0.6062
   73MOL    H3927543   1.610   4.225   7.802  1.6276  1.2106 -1.7237
   73MOL    C4027544   1.417   4.676   0.298 -1.0261 -0.0524 -0.5010
   73MOL    C4127545   1.255   4.679   0.287 -0.1936  0.2285 -0.5357
   73MOL    C4227546   1.203   4.628   0.155  0.4554 -0.5044 -0.1361
   73MOL    O4327547   1.247   4.673   0.051 -0.2114 -0.3947 -0.9499
   73MOL    N4427548   1.124   4.521   0.148 -0.4253 -0.2000 -0.4903
   73MOL    C4527549   1.124   4.435   0.033  0.0888 -0.3473  0.6197
   73MOL    C4627550   1.242   4.336   0.047  0.2579  0.1335  0.4273
   73MOL    C4727551   0.995   4.348   0.037  0.1684  0.0511 -0.4247
   73MOL    H4827552   1.466   4.719   0.211 -2.7740  0.8935 -1.0386
   73MOL    H4927553   1.441   4.758   0.365  0.7078 -0.8384 -0.1379
   73MOL    H5027554   1.222   4.615   0.369  0.8160  2.2535  1.4918
   73MOL    H5127555   1.096   4.484   0.238  1.8814 -0.3523  0.1996
   73MOL    H5227556   1.127   4.480   7.770 -1.2035  1.2829  1.2944
   73MOL    H5327557   1.335   4.392   0.054  1.0875 -1.1344 -0.2286
   73MOL    H5427558   1.247   4.268   7.799  0.0318  0.5541  0.0696
   73MOL    H5527559   1.232   4.281   0.140 -1.6864 -0.6942 -0.2522
   73MOL    H5627560   0.979   4.302   0.135 -2.0584  0.9408 -0.3351
   73MOL    H5727561   0.978   4.281   7.789 -0.0094 -0.0479 -0.3111
   73MOL    H5827562   0.909   4.413   0.025  0.5780  0.4365 -1.2532
   73MOL    C5927563   1.200   4.822   0.302  0.0429 -0.2400  0.6133
   73MOL    C6027564   1.047   4.843   0.325 -0.2909  0.4745  0.4430
   73MOL    C6127565   0.997   4.988   0.304  0.0762 -0.2051 -0.3128
   73MOL    O6227566   1.033   5.072   0.386 -0.0681  0.0785  0.0053
   73MOL    N6327567   0.936   5.010   0.187  0.3865 -1.3860 -0.1318
   73MOL    C6427568   0.891   5.137   0.130  0.1385 -0.4013  0.1154
   73MOL    C6527569   0.883   5.124   7.816 -0.0416 -0.0665 -0.4561
   73MOL    C6627570   0.760   5.178   0.189 -0.6009 -0.1585  0.0164
   73MOL    H6727571   1.249   4.876   0.383 -1.4290 -0.0280  1.3747
   73MOL    H6827572   1.236   4.885   0.220  0.9794 -1.8463 -0.2535
   73MOL    H6927573   0.995   4.777   0.255 -0.7639  1.1582  0.1454
   73MOL    H7027574   0.904   4.936   0.125  0.6842 -1.0397 -0.7048
   73MOL    H7127575   0.961   5.215   0.160 -1.6813  1.1317  0.4844
   73MOL    H7227576   0.790   5.089   7.770  0.2715 -0.8213 -0.5251
   73MOL    H7327577   0.891   5.221   7.767  3.0886 -0.0412  0.0147
   73MOL    H7427578   0.965   5.065   7.776 -0.9443 -2.8720  1.6847
   73MOL    H7527579   0.726   5.275   0.154 -3.3140 -0.6486  1.1680
   73MOL    H7627580   0.690   5.104   0.149 -1.8525  0.6570  0.6563
   73MOL    H7727581   0.764   5.185   0.298  0.6047  0.1582 -0.0393
   73MOL    C7827582   1.019   4.800   0.476 -0.2186 -1.1799  0.0624
   73MOL    C7927583   0.874   4.753   0.503 -1.2463  0.6675  0.1162
   73MOL    C8027584   0.854   4.611   0.450 -0.2503 -0.2954  0.6031
   73MOL    O8127585   0.926   4.564   0.362 -0.0854 -0.0080  0.2932
   73MOL    N8227586   0.768   4.529   0.502  0.5216  0.5652 -0.1631
   73MOL    C8327587   0.755   4.383   0.466  0.0249  0.2060  0.5533
   73MOL    C8427588   0.668   4.317   0.576  0.5493 -1.0402  0.2061
   73MOL    C8527589   0.682   4.358   0.328  0.4060  0.5097 -0.5839
   73MOL    H8627590   1.040   4.883   0.542 -0.4163  0.5843 -2.0364
   73MOL    H8727591   1.090   4.724   0.511  2.7510  1.8336  0.8436
   73MOL    H8827592   0.808   4.824   0.452 -0.7834  1.8992  1.1958
   73MOL    H8927593   0.711   4.562   0.579 -2.3853  0.8472 -2.3784
   73MOL    H9027594   0.849   4.329   0.470  1.4321  2.4538 -1.0196
   73MOL    H9127595   0.714   4.331   0.673  0.9586  1.6768 -0.3391
   73MOL    H9227596   0.568   4.361   0.577 -0.4896 -3.3436  0.4591
   73MOL    H9327597   0.638   4.215   0.554  0.4388 -0.9833  0.0878
   73MOL    H9427598   0.574   4.369   0.338  0.4528  2.5861 -2.0999
   73MOL    H9527599   0.701   4.256   0.297 -2.8675  0.5170 -2.8535
   73MOL    H9627600   0.719   4.420   0.246 -0.4032  0.4299 -1.0165
   73MOL    C9727601   0.833   4.775   0.653  0.1734  0.3869  0.9745
   73MOL    C9827602   0.916   4.713   0.773 -0.2495 -0.9387  0.2163
   73MOL    C9927603   0.906   4.561   0.779 -0.0792 -0.6528 -0.0370
   73MOL   O10027604   0.804   4.504   0.819 -0.5144  0.0769 -0.1943
   73MOL   N10127605   1.019   4.490   0.748 -0.2126  0.8406  0.2318
   73MOL   C10227606   1.044   4.344   0.761  0.2886  0.3607  0.7429
   73MOL   C10327607   1.145   4.299   0.653 -0.1559 -0.0577  0.0704
   73MOL   C10427608   1.084   4.310   0.902  0.4375 -0.8846 -0.3837
   73MOL   H10527609   0.727   4.752   0.669 -0.0036  1.1850  0.9428
   73MOL   H10627610   0.829   4.883   0.663 -0.0075  0.3701  1.0830
   73MOL   H10727611   1.016   4.751   0.752 -0.9954  0.3841 -1.0379
   73MOL   H10827612   1.101   4.549   0.745  1.6146 -1.4938  2.1411
   73MOL   H10927613   0.953   4.292   0.734 -0.8240  1.4095  2.3891
   73MOL   H11027614   1.104   4.311   0.553  2.3338  0.9035 -0.8644
   73MOL   H11127615   1.231   4.366   0.657  0.5821 -0.9602 -0.6852
   73MOL   H11227616   1.169   4.196   0.677  0.4426 -0.0516 -0.4894
   73MOL   H11327617   1.112   4.205   0.903  0.0149 -0.9958 -0.2532
   73MOL   H11427618   0.999   4.322   0.969  0.6468 -3.7492  0.4560
   73MOL   H11527619   1.173   4.360   0.940  0.0431 -0.2560 -0.2786
   73MOL   C11627620   0.857   4.770   0.902  0.0582  0.6971  0.2500
   73MOL   C11727621   0.955   4.850   0.986  0.1530 -0.0422 -0.6355
   73MOL   C11827622   0.895   4.902   1.115 -1.1845  0.3849 -0.1638
   73MOL   O11927623   0.789   4.966   1.121 -0.0686 -0.8402 -0.1435
   73MOL   N12027624   0.961   4.864   1.229  0.0953  0.4371  0.3529
   73MOL   C12127625   0.951   4.927   1.361  0.4586  0.8583 -0.0046
   73MOL   C12227626   0.878   4.834   1.463  0.3429 -0.2964 -0.2915
   73MOL   C12327627   1.089   4.961   1.411  0.1030  0.3281 -0.1238
   73MOL   H12427628   0.809   4.695   0.965  0.2683 -0.3246 -0.7828
   73MOL   H12527629   0.770   4.833   0.882 -1.1596 -0.5149  1.6117
   73MOL   H12627630   1.032   4.776   1.009  0.5334  0.6604  0.3855
   73MOL   H12727631   1.040   4.803   1.216 -2.9515 -3.0478 -2.5793
   73MOL   H12827632   0.889   5.016   1.359 -2.0531 -0.8632 -2.1015
   73MOL   H12927633   0.858   4.881   1.559 -0.2122 -1.6140  0.2583
   73MOL   H13027634   0.932   4.746   1.499 -0.0092  0.3563  1.8925
   73MOL   H13127635   0.782   4.803   1.423  0.3542 -0.2649 -0.3420
   73MOL   H13227636   1.142   5.033   1.349  0.1161  1.2335  0.9153
   73MOL   H13327637   1.101   4.996   1.513  0.6636 -1.4067  0.4271
   73MOL   H13427638   1.153   4.873   1.404 -0.2404  0.2347 -2.7542
   73MOL   C13527639   1.015   4.966   0.908  0.8652  0.1409  0.5649
   73MOL   C13627640   1.169   5.001   0.936  0.9848 -0.4375 -0.2564
   73MOL   C13727641   1.260   4.885   0.908 -0.2563  0.3051 -0.8264
   73MOL   O13827642   1.270   4.832   0.799  0.2173  0.3673 -0.1570
   73MOL   N13927643   1.333   4.850   1.016  0.4720  0.1909  0.5583
   73MOL   C14027644   1.427   4.741   1.029 -0.0796  0.2910 -0.5089
   73MOL   C14127645   1.569   4.779   0.963 -0.0221  0.5047  0.7289
   73MOL   C14227646   1.370   4.602   1.002 -0.5071 -0.8507  0.0143
   73MOL   H14327647   0.955   5.057   0.915  1.7823  0.6336  2.0748
   73MOL   H14427648   1.005   4.952   0.800 -1.8657  0.0051  0.8005
   73MOL   H14527649   1.170   5.032   1.040  2.3901  0.1677 -0.4464
   73MOL   H14627650   1.323   4.911   1.096 -0.9122 -1.1951  1.4812
   73MOL   H14727651   1.449   4.733   1.136 -0.0610 -0.1858 -0.5490
   73MOL   H14827652   1.543   4.807   0.861 -0.5356 -0.5117  0.5744
   73MOL   H14927653   1.616   4.868   1.005 -0.3685  0.2572  1.6555
   73MOL   H15027654   1.640   4.696   0.958  1.4716  1.7593  0.8111
   73MOL   H15127655   1.266   4.612   1.033 -0.0035  1.0425  1.2074
   73MOL   H15227656   1.408   4.520   1.063 -1.1315 -1.2339 -0.1173
   73MOL   H15327657   1.373   4.576   0.896  0.6443  1.0577 -0.4474
   73MOL   C15427658   1.222   5.120   0.846  0.1116  0.0866 -0.2691
   73MOL   C15527659   1.368   5.162   0.868 -0.0415  0.3302 -0.0921
   73MOL   C15627660   1.385   5.227   1.010  0.1424  0.1928  0.1181
   73MOL   O15727661   1.424   5.154   1.100  0.6477 -0.3588 -0.6548
   73MOL   N15827662   1.346   5.354   1.023 -0.7342  0.5239  0.1719
   73MOL   C15927663   1.397   5.434   1.128  0.9561 -0.1627  0.2855
   73MOL   C16027664   1.304   5.548   1.162  0.0450  0.4005 -0.4485
   73MOL   C16127665   1.542   5.487   1.095  0.7481 -0.0941  0.2428
   73MOL   H16227666   1.159   5.209   0.849  1.3359  1.0384 -1.6894
   73MOL   H16327667   1.209   5.093   0.741 -4.0108  0.3812  0.0782
   73MOL   H16427668   1.436   5.077   0.883 -0.9449 -0.6204 -1.2821
   73MOL   H16527669   1.322   5.412   0.944  1.1243  0.7731 -0.2350
   73MOL   H16627670   1.398   5.368   1.215  1.7315 -0.6803 -0.1173
   73MOL   H16727671   1.305   5.623   1.083 -2.6603  1.1704  0.1836
   73MOL   H16827672   1.201   5.516   1.176  0.1789  0.2029  0.0780
   73MOL   H16927673   1.341   5.592   1.254  0.8539 -0.5815 -0.3013
   73MOL   H17027674   1.533   5.551   1.008 -3.0472 -1.3780 -0.3820
   73MOL   H17127675   1.608   5.409   1.057  2.8759  2.1199 -0.7021
   73MOL   H17227676   1.584   5.540   1.180 -0.8673  1.0288  0.3609
   73MOL   C17327677   1.428   5.238   0.750  0.0720 -0.0899 -0.1145
   73MOL   C17427678   1.562   5.186   0.687  0.5571  0.2838 -0.1543
   73MOL   C17527679   1.689   5.216   0.768  0.2244 -0.2360 -0.4058
   73MOL   O17627680   1.784   5.275   0.721  0.5578 -0.5295  0.8049
   73MOL   N17727681   1.691   5.166   0.894  0.1367  0.4330  0.1764
   73MOL   C17827682   1.808   5.162   0.987  0.0737 -0.2140 -0.0272
   73MOL   C17927683   1.914   5.057   0.950  0.0862  0.2671  0.0607
   73MOL   C18027684   1.754   5.147   1.131  0.0618 -0.1941 -0.3515
   73MOL   H18127685   1.445   5.343   0.770  1.1396 -0.2559 -0.1204
   73MOL   H18227686   1.354   5.228   0.671 -0.6489  0.9313  0.4364
   73MOL   H18327687   1.574   5.235   0.591  0.7879 -2.2139 -1.4294
   73MOL   H18427688   1.618   5.101   0.918 -0.1720  0.6685 -0.1152
   73MOL   H18527689   1.860   5.258   0.989  0.7607 -0.5945  1.4205
   73MOL   H18627690   1.998   5.056   1.020  2.0110 -1.8070 -2.1937
   73MOL   H18727691   1.957   5.090   0.856 -0.2497  0.2817 -0.0895
   73MOL   H18827692   1.866   4.959   0.945  0.8300 -0.3039  2.9649
   73MOL   H18927693   1.834   5.160   1.203 -1.8089  0.5031  1.6728
   73MOL   H19027694   1.713   5.047   1.147 -1.0634  0.6542  2.3507
   73MOL   H19127695   1.675   5.218   1.156  0.2604 -0.1972  0.2881
   73MOL   C19227696   1.551   5.038   0.640  0.0591  0.2938  0.2534
   73MOL   C19327697   1.675   4.982   0.566  0.0848  0.7298  0.0091
   73MOL   C19427698   1.704   5.067   0.438  0.0511 -0.2856 -0.3745
   73MOL   O19527699   1.654   5.040   0.330 -0.2866 -0.3903  0.0279
   73MOL   N19627700   1.785   5.172   0.452 -0.1140  0.0748 -0.1052
   73MOL   C19727701   1.810   5.272   0.349 -0.1141  0.2108 -0.4032
   73MOL   C19827702   1.739   5.399   0.402  0.0975 -0.4290  0.5573
   73MOL   C19927703   1.956   5.282   0.328  0.2163  1.0125  0.2253
   73MOL   H20027704   1.462   5.024   0.580  0.2070  2.6664 -0.5912
   73MOL   H20127705   1.540   4.973   0.726 -0.1659 -0.2045 -0.1534
   73MOL   H20227706   1.760   5.003   0.631 -0.0821 -1.9608  1.1402
   73MOL   H20327707   1.833   5.185   0.540 -0.3186 -0.6772  0.1223
   73MOL   H20427708   1.762   5.247   0.255 -1.5822  1.2812  0.0510
   73MOL   H20527709   1.791   5.443   0.487  0.1468  0.8743 -0.1298
   73MOL   H20627710   1.633   5.372   0.412  0.1782 -1.2675 -0.7910
   73MOL   H20727711   1.737   5.476   0.324  1.4935 -0.8963  0.0653
   73MOL   H20827712   2.016   5.214   0.266 -1.0576 -1.1681  1.3274
   73MOL   H20927713   2.000   5.280   0.428 -0.9654 -2.9265  0.7679
   73MOL   H21027714   1.980   5.383   0.294 -1.7464  1.2045 -0.6586
   73MOL   C21127715   1.673   4.822   0.544  0.1405 -0.6870  0.2743
   73MOL   C21227716   1.818   4.757   0.545 -0.0769  0.4014  0.1238
   73MOL   C21327717   1.921   4.819   0.451 -0.2790 -0.0618  0.2829
   73MOL   O21427718   2.006   4.900   0.493 -0.8044 -0.3355  0.2129
   73MOL   N21527719   1.911   4.785   0.325  0.6497  0.4724  0.2817
   73MOL   C21627720   1.986   4.829   0.208 -0.2214 -0.2876 -0.6218
   73MOL   C21727721   1.933   4.748   0.088 -0.2674 -0.0276 -0.1448
   73MOL   C21827722   2.133   4.799   0.220 -0.0409  0.0706  0.5881
   73MOL   H21927723   1.626   4.796   0.449  1.1313  1.2657 -0.7647
   73MOL   H22027724   1.614   4.771   0.620  1.3100 -0.9545  1.0127
   73MOL   H22127725   1.798   4.656   0.509 -0.6221  0.9472 -1.1499
   73MOL   H22227726   1.842   4.715   0.300  1.4422 -0.6774  1.2494
   73MOL   H22327727   1.972   4.936   0.192 -1.9914 -0.6588 -1.7199
   73MOL   H22427728   1.989   4.772   7.834 -0.4476  3.1881  0.5524
   73MOL   H22527729   1.919   4.643   0.114 -0.6703 -0.4408 -1.9369
   73MOL   H22627730   1.827   4.767   0.069 -0.9603 -2.9113  0.5592
   73MOL   H22727731   2.171   4.700   0.245  2.9411  1.0758  0.2372
   73MOL   H22827732   2.170   4.861   0.302 -2.1734  1.1538  0.7508
   73MOL   H22927733   2.179   4.827   0.125 -2.0134  1.5624  0.0432
   73MOL   C23027734   1.864   4.733   0.691  0.0100  0.4769  0.6079
   73MOL   C23127735   1.960   4.613   0.698 -0.7990  0.1150  0.3418
   73MOL   C23227736   2.104   4.656   0.735 -0.1617  0.1165 -0.5441
   73MOL   O23327737   2.159   4.596   0.829  0.2818  0.6516  0.5317
   73MOL   N23427738   2.161   4.764   0.682  0.9413 -0.6389 -0.1957
   73MOL   C23527739   2.279   4.832   0.721 -0.1320  0.0086 -0.9133
   73MOL   C23627740   2.396   4.811   0.627  0.1561 -0.0375 -0.1024
   73MOL   C23727741   2.243   4.978   0.727  0.0731  0.1480  0.4368
   73MOL   H23827742   1.778   4.710   0.755 -0.9279  1.1721 -0.3825
   73MOL   H23927743   1.914   4.822   0.729 -0.6677  0.2157  2.1585
   73MOL   H24027744   1.979   4.581   0.595 -1.9241 -1.2188  0.5439
   73MOL   H24127745   2.103   4.809   0.613 -0.3489 -1.4492  0.3347
   73MOL   H24227746   2.302   4.811   0.826  1.5500 -0.9272 -1.4621
   73MOL   H24327747   2.363   4.842   0.528  0.9370  2.4510  0.3632
   73MOL   H24427748   2.483   4.877   0.641  0.4633 -0.2750 -0.8845
   73MOL   H24527749   2.422   4.707   0.611 -3.4840 -0.9313 -0.4892
   73MOL   H24627750   2.325   5.045   0.752  0.3060 -0.5075  1.4646
   73MOL   H24727751   2.162   4.997   0.799 -1.4831 -0.3079 -1.1549
   73MOL   H24827752   2.221   5.004   0.624  1.6607 -1.4020 -0.3145
   73MOL   C24927753   1.888   4.486   0.760  0.0344  0.0970  0.2821
   73MOL   C25027754   1.967   4.353   0.740 -0.3677  0.2633  0.1771
   73MOL   C25127755   1.923   4.297   0.608  0.2049 -0.1391 -0.8440
   73MOL   O25227756   1.817   4.237   0.592  0.6227  0.2257 -0.2588
   73MOL   N25327757   1.998   4.337   0.505 -0.5175  0.2809  0.4404
   73MOL   C25427758   1.983   4.310   0.365 -0.0337  0.2033 -0.1340
   73MOL   C25527759   2.076   4.408   0.280 -0.1440  0.1946 -0.4142
   73MOL   C25627760   2.021   4.168   0.332 -0.5864  0.4209 -0.6973
   73MOL   H25727761   1.781   4.475   0.741 -0.1963 -0.6036  1.8668
   73MOL   H25827762   1.877   4.509   0.866 -0.9767 -0.6118  0.3380
   73MOL   H25927763   2.074   4.371   0.725 -0.3976  1.6556  1.4951
   73MOL   H26027764   2.072   4.398   0.535 -0.2754 -0.6270  1.7835
   73MOL   H26127765   1.877   4.331   0.347  0.1864  0.5759 -1.0249
   73MOL   H26227766   2.177   4.402   0.319  0.0529  1.6818 -0.6553
   73MOL   H26327767   2.075   4.382   0.174 -2.3658 -0.2778 -0.3065
   73MOL   H26427768   2.054   4.514   0.279  0.8257  0.4153  1.0020
   73MOL   H26527769   1.978   4.092   0.397  2.1542 -0.7297 -0.1686
   73MOL   H26627770   1.980   4.142   0.235  0.1966  1.0585 -1.2076
   73MOL   H26727771   2.129   4.159   0.341 -0.7096 -0.4712 -0.1136
   73MOL   C26827772   1.952   4.254   0.861  0.2435  0.2957 -0.0323
   73MOL   C26927773   1.998   4.105   0.851 -0.2006  0.4691  0.1861
   73MOL   C27027774   2.036   4.068   0.994 -0.0365  0.4340 -0.0018
   73MOL   O27127775   1.965   4.096   1.096 -0.8730 -0.4762 -0.7039
   73MOL   N27227776   2.155   4.005   1.002 -0.2100  0.1412 -0.2373
   73MOL   C27327777   2.213   3.926   1.113  0.6147 -0.5866 -0.1782
   73MOL   C27427778   2.117   3.811   1.150 -0.8687 -0.9193  0.0990
   73MOL   C27527779   2.358   3.873   1.084  0.7002 -0.2328 -0.1250
   73MOL   H27627780   2.008   4.306   0.939  2.7853 -1.9689 -0.2415
   73MOL   H27727781   1.845   4.253   0.883 -0.2367  0.0103 -2.2736
   73MOL   H27827782   2.083   4.119   0.785 -1.2338  3.1675 -0.6695
   73MOL   H27927783   2.198   3.985   0.913 -0.5659 -4.3404  0.4792
   73MOL   H28027784   2.211   3.989   1.202  1.1618 -0.6232 -0.1372
   73MOL   H28127785   2.151   3.756   1.238 -0.2285  1.3784  1.3349
   73MOL   H28227786   2.020   3.847   1.182 -1.5150 -3.1087  0.6746
   73MOL   H28327787   2.108   3.751   1.060  2.1473  1.1037 -1.6753
   73MOL   H28427788   2.365   3.818   0.991 -1.8728 -2.5507  0.9781
   73MOL   H28527789   2.431   3.954   1.090  0.5482 -0.0780 -0.3945
   73MOL   H28627790   2.386   3.810   1.169 -0.1101  0.7700  0.9193
   73MOL   C28727791   1.890   4.007   0.803 -0.0214  0.0931 -0.2476
   73MOL   C28827792   1.923   3.862   0.797 -0.7423  0.3959 -0.0012
   73MOL   C28927793   2.042   3.825   0.706 -0.1712 -0.0829  0.4183
   73MOL   O29027794   2.082   3.898   0.616 -0.0001  0.3023 -0.3332
   73MOL   N29127795   2.096   3.707   0.727 -0.0357 -0.3342 -0.4606
   73MOL   C29227796   2.223   3.661   0.671 -0.1283  0.0472 -0.5293
   73MOL   C29327797   2.300   3.564   0.760 -0.1255  0.4253 -0.4043
   73MOL   C29427798   2.210   3.602   0.534  0.4098  0.2462  0.7789
   73MOL   H29527799   1.809   4.042   0.867 -0.0968  1.9380 -1.3197
   73MOL   H29627800   1.870   4.033   0.699 -1.8698  2.1300  0.5842
   73MOL   H29727801   1.948   3.825   0.897 -1.3727 -0.6003 -0.2095
   73MOL   H29827802   2.053   3.646   0.795  1.5908  0.1966  1.1170
   73MOL   H29927803   2.277   3.756   0.668  2.5889 -1.4085  1.0248
   73MOL   H30027804   2.252   3.466   0.769  2.0293 -0.5748  0.6734
   73MOL   H30127805   2.400   3.533   0.728  0.6302  2.2190  0.1414
   73MOL   H30227806   2.303   3.617   0.856 -0.7898 -0.3818  0.0755
   73MOL   H30327807   2.174   3.673   0.460  0.3896  0.1200  0.6690
   73MOL   H30427808   2.308   3.566   0.503 -1.0936 -2.8355 -0.6442
   73MOL   H30527809   2.145   3.514   0.539  0.0889  0.4553  0.3564
   73MOL   C30627810   1.795   3.791   0.744  0.8122 -0.0510 -0.1160
   73MOL   C30727811   1.775   3.640   0.752 -1.1011  0.1572  0.1547
   73MOL   C30827812   1.811   3.574   0.882 -0.6675 -0.6264  0.5592
   73MOL   O30927813   1.927   3.577   0.927 -0.5199  0.5372  0.1493
   73MOL   N31027814   1.706   3.533   0.958  0.0772 -0.9747  0.0217
   73MOL   C31127815   1.712   3.497   1.099  0.1522  0.3530 -0.0031
   73MOL   C31227816   1.722   3.626   1.185 -0.9121  0.1079 -0.4060
   73MOL   C31327817   1.584   3.421   1.121  0.1547  0.5007 -0.3462
   73MOL   H31427818   1.707   3.829   0.796 -0.3966  0.5566 -2.5407
   73MOL   H31527819   1.772   3.825   0.643 -2.8475 -0.6248  0.4489
   73MOL   H31627820   1.667   3.628   0.742 -1.5006  3.5858 -0.1931
   73MOL   H31727821   1.615   3.555   0.921 -0.0598  0.1112  0.9666
   73MOL   H31827822   1.801   3.436   1.115 -0.6849 -0.6579  0.9029
   73MOL   H31927823   1.810   3.686   1.161 -1.5262  0.6666 -1.2745
   73MOL   H32027824   1.706   3.621   1.293  0.8377  2.3726 -0.0075
   73MOL   H32127825   1.650   3.693   1.139 -0.4285  1.2331  0.4400
   73MOL   H32227826   1.593   3.365   1.214 -0.7290  1.0772  0.0993
   73MOL   H32327827   1.566   3.345   1.046  0.5659  1.1123 -1.0752
   73MOL   H32427828   1.495   3.484   1.120  1.0111  1.7171 -1.8738
   73MOL   C32527829   1.844   3.558   0.635 -0.2544 -0.8366  0.3962
   73MOL   C32627830   1.757   3.443   0.571 -0.0161 -0.7164 -0.5816
   73MOL   C32727831   1.654   3.507   0.484  0.4101  0.4213  0.4115
   73MOL   O32827832   1.695   3.587   0.398 -0.0259  0.0385  0.6291
   73MOL   N32927833   1.531   3.468   0.488  0.2527 -0.3604  0.1557
   73MOL   C33027834   1.436   3.467   0.368 -0.6531 -0.1268 -0.0364
   73MOL   C33127835   1.311   3.554   0.404  0.7948 -0.2749 -0.7700
   73MOL   C33227836   1.404   3.331   0.332  0.3055 -0.5278  0.1978
   73MOL   H33327837   1.926   3.506   0.686 -0.2592 -2.8998 -1.6227
   73MOL   H33427838   1.881   3.614   0.550  2.5636 -1.0163  1.4361
   73MOL   H33527839   1.695   3.391   0.644  1.4105 -0.4282  0.8573
   73MOL   H33627840   1.513   3.413   0.571  1.6026 -0.0813  0.6490
   73MOL   H33727841   1.482   3.512   0.280 -2.6317  0.0171 -1.0033
   73MOL   H33827842   1.262   3.512   0.492  1.3120  1.3511  0.3256
   73MOL   H33927843   1.334   3.661   0.412 -0.8442  0.1716 -1.8851
   73MOL   H34027844   1.238   3.557   0.324 -0.4262  2.9414  0.3744
   73MOL   H34127845   1.385   3.270   0.420  0.4363  0.9937  1.3153
   73MOL   H34227846   1.486   3.286   0.276  2.2102  1.2834  1.4358
   73MOL   H34327847   1.317   3.324   0.266 -0.4843  2.9392  0.7539
   73MOL   C34427848   1.840   3.338   0.486  0.1969  0.2201 -0.2555
   73MOL   C34527849   1.782   3.201   0.453  0.2750 -0.3154 -0.3229
   73MOL   C34627850   1.856   3.136   0.331 -0.7362 -0.0644  0.3175
   73MOL   O34727851   1.922   3.031   0.340  0.2133  0.1920  0.0046
   73MOL   N34827852   1.833   3.201   0.213  0.3517 -0.3450 -0.1286
   73MOL   C34927853   1.907   3.167   0.091 -0.3660 -0.1945 -0.3089
   73MOL   C35027854   1.822   3.058   0.030 -0.2183  0.4619  0.6772
   73MOL   C35127855   1.914   3.289   7.827 -0.3709  0.0370  0.5979
   73MOL   H35227856   1.937   3.318   0.531  0.2283  0.1445 -0.3547
   73MOL   H35327857   1.876   3.386   0.395  1.0509 -1.9636 -1.1178
   73MOL   H35427858   1.679   3.215   0.419  0.6306  1.1424 -0.8643
   73MOL   H35527859   1.774   3.284   0.216  0.2100 -0.4236 -0.6627
   73MOL   H35627860   2.006   3.128   0.115 -0.7709 -1.1850 -0.2162
   73MOL   H35727861   1.825   2.964   0.086  0.2774  0.0430 -0.0428
   73MOL   H35827862   1.721   3.098   0.029 -0.9772 -1.3947  0.6624
   73MOL   H35927863   1.860   3.047   7.765  0.0642  0.7414  0.7530
   73MOL   H36027864   1.967   3.375   0.032 -0.8486  1.6996 -2.1333
   73MOL   H36127865   1.951   3.258   7.730  3.2234 -1.6254  2.4136
   73MOL   H36227866   1.816   3.325   7.797  0.1665 -0.6511 -2.1483
   73MOL   C36327867   1.774   3.108   0.581  0.3814 -0.0150 -0.4481
   73MOL   C36427868   1.660   3.010   0.590  0.5977  0.1266  0.4323
   73MOL   C36527869   1.529   3.078   0.625 -0.2196  0.1681  0.2337
   73MOL   O36627870   1.520   3.201   0.633  0.3450 -0.0588 -0.0265
   73MOL   N36727871   1.430   3.004   0.657  0.4758 -0.6365 -0.5408
   73MOL   C36827872   1.295   3.048   0.697 -0.3507 -0.3687  0.1420
   73MOL   C36927873   1.189   2.938   0.684  0.6396  0.1464  0.4314
   73MOL   C37027874   1.302   3.100   0.843 -0.2494 -0.4863  0.1921
   73MOL   H37127875   1.776   3.167   0.673  0.1701 -1.9050  0.7921
   73MOL   H37227876   1.865   3.048   0.577 -0.0945 -0.9502  1.7843
   73MOL   H37327877   1.693   2.929   0.655 -0.6130 -0.0975  0.7692
   73MOL   H37427878   1.436   2.909   0.624  1.1600 -1.5221  2.0346
   73MOL   H37527879   1.267   3.121   0.621 -0.2464 -0.6686 -0.1849
   73MOL   H37627880   1.225   2.850   0.737  1.1271 -0.2483 -0.5345
   73MOL   H37727881   1.101   2.979   0.735  1.1184  1.6883  0.0535
   73MOL   H37827882   1.173   2.894   0.586  0.3920 -0.0056  0.5406
   73MOL   H37927883   1.216   3.159   0.873  1.1396  0.9508  1.3927
   73MOL   H38027884   1.315   3.019   0.915 -0.1301  0.8511  1.7005
   73MOL   H38127885   1.387   3.168   0.852 -0.3556  0.0662 -2.5251
   73MOL   H38227886   1.638   2.967   0.492 -0.4416 -0.7545  1.0468
   74MOL     C127887   2.219   4.273   5.785 -0.0511  0.6666 -0.8363
   74MOL     C227888   2.173   4.204   5.916 -0.5662 -0.1747 -0.1262
   74MOL     C327889   2.146   4.057   5.888  0.3102 -0.2440  0.2315
   74MOL     O427890   2.216   3.987   5.815  0.3159 -0.0982  0.4066
   74MOL     N527891   2.026   4.013   5.937 -0.8493 -0.6060  0.5364
   74MOL     C627892   1.996   3.868   5.950  0.2999 -0.8393 -0.1472
   74MOL     C727893   2.000   3.842   6.101 -0.3699 -0.4376  0.4926
   74MOL     C827894   1.853   3.846   5.898 -0.0406 -0.3502 -0.3400
   74MOL     H927895   2.300   4.219   5.736  0.0331  0.5641 -0.5799
   74MOL    H1027896   2.250   4.377   5.797  0.2843  0.6525 -1.5573
   74MOL    H1127897   2.081   4.257   5.941 -0.9598  0.7708 -3.2817
   74MOL    H1227898   1.960   4.079   5.976 -0.2413  0.2293  0.1660
   74MOL    H1327899   2.069   3.807   5.896  0.9786  0.0007 -0.1955
   74MOL    H1427900   1.946   3.922   6.152 -1.1939 -1.9570  2.0308
   74MOL    H1527901   2.101   3.839   6.140 -0.0401  2.1063 -0.0403
   74MOL    H1627902   1.948   3.752   6.133  0.2953 -1.1204 -0.3458
   74MOL    H1727903   1.843   3.859   5.790  0.4560  0.5815 -0.2824
   74MOL    H1827904   1.802   3.755   5.931  2.6956 -1.7541  0.1737
   74MOL    H1927905   1.788   3.919   5.946  1.0313  1.6266 -1.8549
   74MOL    H2027906   2.146   4.269   5.704 -1.9215  0.9280  0.7965
   74MOL    C2127907   2.270   4.210   6.035 -0.2675 -0.1076 -0.2896
   74MOL    C2227908   2.302   4.353   6.091  0.4195  0.3436 -0.0503
   74MOL    C2327909   2.446   4.354   6.144  0.5117  0.0077  0.8288
   74MOL    O2427910   2.532   4.417   6.079  0.9889  0.2980 -0.6926
   74MOL    N2527911   2.475   4.280   6.248  0.4947  0.0810 -0.3833
   74MOL    C2627912   2.605   4.258   6.305 -0.2326  1.0186 -0.4066
   74MOL    C2727913   2.647   4.116   6.277  0.4696  0.1959 -0.8424
   74MOL    C2827914   2.615   4.275   6.457 -0.6360  0.2691 -0.6107
   74MOL    H2927915   2.357   4.152   6.002 -0.2177 -0.3337  0.2370
   74MOL    H3027916   2.234   4.148   6.117  0.8779 -1.3443 -0.6959
   74MOL    H3127917   2.284   4.417   6.005  1.6024 -0.4533 -0.9038
   74MOL    H3227918   2.398   4.247   6.304  1.4878  0.6058  1.3325
   74MOL    H3327919   2.681   4.324   6.262  2.0502 -1.2960 -0.0676
   74MOL    H3427920   2.573   4.041   6.308 -0.6102  1.7180  0.3104
   74MOL    H3527921   2.737   4.086   6.331 -0.9961 -0.1703  1.4549
   74MOL    H3627922   2.670   4.099   6.172  0.3227 -1.2507 -0.6572
   74MOL    H3727923   2.589   4.377   6.483  2.2669  0.7432  0.5973
   74MOL    H3827924   2.551   4.217   6.524  1.2506 -1.4506 -0.2692
   74MOL    H3927925   2.713   4.246   6.493 -0.9878  0.5029  0.5664
   74MOL    C4027926   2.194   4.400   6.195 -0.1815  0.6203  0.7038
   74MOL    C4127927   2.211   4.548   6.242 -0.1611  0.0413  0.4704
   74MOL    C4227928   2.324   4.591   6.336 -0.3180 -0.4204  0.2913
   74MOL    O4327929   2.369   4.505   6.407 -0.3077 -0.5330  0.2801
   74MOL    N4427930   2.372   4.711   6.317  0.8641  0.0578 -0.1362
   74MOL    C4527931   2.479   4.779   6.390 -0.0046 -0.0681  0.1437
   74MOL    C4627932   2.613   4.707   6.392  0.7910 -0.1200 -0.6173
   74MOL    C4727933   2.492   4.920   6.337  0.1071  0.2047 -0.1913
   74MOL    H4827934   2.202   4.335   6.281  0.7470 -3.4773 -2.3243
   74MOL    H4927935   2.092   4.379   6.164  0.1328 -0.4039  0.3356
   74MOL    H5027936   2.241   4.599   6.151  3.1097 -1.5729  0.5314
   74MOL    H5127937   2.348   4.756   6.230  0.8881  1.3907  0.5240
   74MOL    H5227938   2.455   4.781   6.496 -1.4851 -2.1360 -0.1226
   74MOL    H5327939   2.689   4.779   6.422 -1.1978  1.6264  0.4223
   74MOL    H5427940   2.633   4.663   6.295 -1.7421  0.3970 -1.4145
   74MOL    H5527941   2.606   4.629   6.468 -1.9269  1.4835  0.8609
   74MOL    H5627942   2.407   4.983   6.362 -1.2038 -1.0724 -1.3197
   74MOL    H5727943   2.509   4.915   6.229  0.7798  0.9566 -0.1258
   74MOL    H5827944   2.574   4.978   6.380 -0.8195  0.7902  0.8074
   74MOL    C5927945   2.082   4.615   6.296 -0.3199 -0.4696  0.1049
   74MOL    C6027946   2.045   4.601   6.453 -0.2723  0.2263  0.7121
   74MOL    C6127947   2.023   4.454   6.497  0.6053  0.0254  0.2149
   74MOL    O6227948   1.925   4.398   6.455  0.1212  0.1997 -0.0843
   74MOL    N6327949   2.110   4.403   6.580 -0.6714  0.0051  0.5122
   74MOL    C6427950   2.134   4.269   6.619  0.1964  0.8071  0.0119
   74MOL    C6527951   2.281   4.236   6.593 -0.1199  0.3901 -0.8534
   74MOL    C6627952   2.106   4.251   6.767 -0.0639  0.3976  0.2444
   74MOL    H6727953   2.083   4.723   6.287 -0.4424 -0.6746 -2.8652
   74MOL    H6827954   1.994   4.591   6.235 -1.0276  2.0178  0.0882
   74MOL    H6927955   2.129   4.635   6.513 -2.2470  2.3484  2.3336
   74MOL    H7027956   2.187   4.463   6.606 -0.9896  0.6685 -0.0447
   74MOL    H7127957   2.075   4.193   6.568 -1.1190 -0.1581  2.8072
   74MOL    H7227958   2.341   4.286   6.669  2.9325 -1.5511 -1.8800
   74MOL    H7327959   2.302   4.130   6.606  2.1761  1.2590  3.5018
   74MOL    H7427960   2.322   4.254   6.494 -3.0253  0.0501 -2.1663
   74MOL    H7527961   2.183   4.283   6.837 -1.1880  0.9432  1.2609
   74MOL    H7627962   2.021   4.308   6.806  0.4041 -1.3868  4.0881
   74MOL    H7727963   2.080   4.148   6.790 -0.6367  0.4577 -0.1302
   74MOL    C7827964   1.940   4.703   6.496 -0.2716  0.5389  0.2596
   74MOL    C7927965   1.801   4.678   6.442 -0.0882  0.3439  0.8663
   74MOL    C8027966   1.704   4.646   6.555  0.3681 -0.9075  0.0413
   74MOL    O8127967   1.632   4.728   6.614  0.0097  0.1640  0.0629
   74MOL    N8227968   1.707   4.518   6.585 -0.3107 -0.2024  0.3831
   74MOL    C8327969   1.641   4.464   6.703 -0.4879  0.3418  0.1816
   74MOL    C8427970   1.637   4.309   6.701 -0.5052 -0.1796  0.3068
   74MOL    C8527971   1.699   4.518   6.836 -0.0725  0.9342  0.1982
   74MOL    H8627972   1.978   4.797   6.457  2.3985 -0.3520  0.5600
   74MOL    H8727973   1.954   4.717   6.603  0.3911 -0.4570  0.3158
   74MOL    H8827974   1.794   4.589   6.378  0.1328  0.6583  0.3997
   74MOL    H8927975   1.775   4.469   6.528 -0.9943 -0.0900 -0.5421
   74MOL    H9027976   1.535   4.489   6.701 -0.7248 -0.6716 -1.6189
   74MOL    H9127977   1.711   4.266   6.767  1.7067  2.8057 -0.1099
   74MOL    H9227978   1.545   4.268   6.743 -0.0589 -0.1290  1.3450
   74MOL    H9327979   1.654   4.263   6.603  0.3620 -1.9306  1.2483
   74MOL    H9427980   1.689   4.626   6.850  2.7300  0.9057  2.8257
   74MOL    H9527981   1.807   4.503   6.837 -0.4286 -1.8754 -0.3924
   74MOL    H9627982   1.648   4.471   6.920  0.3981 -2.8432 -1.5396
   74MOL    C9727983   1.756   4.794   6.349  0.3416  0.0727 -0.1003
   74MOL    C9827984   1.605   4.799   6.296  0.7511  0.4385  0.7949
   74MOL    C9927985   1.559   4.659   6.263  0.2968 -0.5730 -0.5929
   74MOL   O10027986   1.618   4.602   6.172 -0.0712 -0.3834 -1.1224
   74MOL   N10127987   1.449   4.615   6.326 -0.2888 -0.4932  0.1970
   74MOL   C10227988   1.381   4.493   6.291 -0.0827 -0.7598  0.0358
   74MOL   C10327989   1.326   4.432   6.417  0.9323  0.4229 -0.3073
   74MOL   C10427990   1.276   4.520   6.180  0.0441  0.2938  0.4439
   74MOL   H10527991   1.834   4.785   6.273  0.9164 -0.6670  0.5637
   74MOL   H10627992   1.779   4.887   6.400  0.2551  0.8758 -1.5030
   74MOL   H10727993   1.548   4.836   6.382 -1.2579  0.7135 -0.6314
   74MOL   H10827994   1.410   4.673   6.399 -2.8332 -2.8566  0.8002
   74MOL   H10927995   1.464   4.434   6.252 -0.1901  0.9462 -2.8491
   74MOL   H11027996   1.240   4.490   6.452  1.5000  1.8493 -1.2325
   74MOL   H11127997   1.297   4.329   6.398 -0.7097  0.4164  2.0629
   74MOL   H11227998   1.398   4.427   6.498 -0.5312 -1.3369  0.9129
   74MOL   H11327999   1.184   4.571   6.209 -0.5327  0.6642 -1.9225
   74MOL   H11428000   1.228   4.428   6.148 -2.7949  2.1316 -0.7863
   74MOL   H11528001   1.328   4.577   6.103  0.3373  0.0550  0.4647
   74MOL   C11628002   1.586   4.887   6.170 -0.1085 -0.0413 -0.4019
   74MOL   C11728003   1.559   5.036   6.218 -0.6199 -1.0150  0.5220
   74MOL   C11828004   1.414   5.064   6.268  0.2962  0.3140 -0.2119
   74MOL   O11928005   1.320   5.027   6.196  0.1186 -0.6425 -0.8808
   74MOL   N12028006   1.406   5.155   6.364 -0.4583 -0.0482 -0.2165
   74MOL   C12128007   1.275   5.209   6.414 -0.2522 -0.7537  0.1359
   74MOL   C12228008   1.282   5.227   6.569  0.4265 -0.5133 -0.3237
   74MOL   C12328009   1.239   5.337   6.339 -1.1987 -0.0023  0.2284
   74MOL   H12428010   1.508   4.848   6.105  0.2281  1.7498 -1.9226
   74MOL   H12528011   1.678   4.895   6.112 -0.4735  0.3362 -0.9320
   74MOL   H12628012   1.622   5.058   6.305 -1.8556  1.7216  0.7840
   74MOL   H12728013   1.492   5.173   6.414  0.0433 -0.1544 -1.0301
   74MOL   H12828014   1.189   5.144   6.404 -0.7253 -0.3217  1.3699
   74MOL   H12928015   1.363   5.292   6.600 -0.4906  1.0885 -1.1594
   74MOL   H13028016   1.290   5.125   6.605  0.5176 -0.4333 -0.1207
   74MOL   H13128017   1.192   5.270   6.612  1.3043  0.1934  0.8153
   74MOL   H13228018   1.328   5.399   6.326  0.7243 -2.1309  2.7230
   74MOL   H13328019   1.182   5.332   6.246 -0.0616  2.1359 -0.6181
   74MOL   H13428020   1.178   5.399   6.405 -1.0239 -0.5522  0.9098
   74MOL   C13528021   1.592   5.129   6.097  0.3169  0.5489 -0.0877
   74MOL   C13628022   1.598   5.277   6.122 -0.1979 -0.4541  0.0577
   74MOL   C13728023   1.707   5.311   6.231 -0.0571 -0.5081  0.4801
   74MOL   O13828024   1.679   5.324   6.346  0.9302 -0.1384  0.2463
   74MOL   N13928025   1.832   5.307   6.185 -0.2361  0.3818 -0.3029
   74MOL   C14028026   1.952   5.325   6.264  0.0718 -0.5157 -0.2120
   74MOL   C14128027   2.002   5.201   6.337 -0.6269 -0.2866  0.2892
   74MOL   C14228028   1.948   5.459   6.356  0.0371  0.5801  0.5299
   74MOL   H14328029   1.531   5.101   6.011  1.2135  2.3304 -1.3363
   74MOL   H14428030   1.692   5.099   6.064  0.0296 -3.1688  2.0768
   74MOL   H14528031   1.505   5.305   6.173 -0.7561 -0.7700 -0.7738
   74MOL   H14628032   1.853   5.283   6.089 -1.2085  1.3698 -0.7644
   74MOL   H14728033   2.039   5.345   6.201  0.0078 -1.1415 -0.4954
   74MOL   H14828034   1.937   5.180   6.422  2.1112 -1.5818  2.1514
   74MOL   H14928035   2.010   5.117   6.269  5.9021  0.0701  0.3124
   74MOL   H15028036   2.101   5.227   6.374 -1.5430 -0.7599  3.2100
   74MOL   H15128037   1.862   5.471   6.423 -1.6487 -2.0329 -1.0530
   74MOL   H15228038   1.928   5.541   6.288 -0.4275  0.3716  0.4122
   74MOL   H15328039   2.039   5.461   6.415  0.9259 -1.1124 -0.7353
   74MOL   C15428040   1.614   5.368   5.995  0.1096  0.1572 -1.3425
   74MOL   C15528041   1.492   5.388   5.909  0.0462 -0.5771 -0.1633
   74MOL   C15628042   1.367   5.421   5.987  0.0205 -1.4389 -0.0751
   74MOL   O15728043   1.368   5.522   6.057 -0.1043 -0.1179 -0.3303
   74MOL   N15828044   1.252   5.356   5.955 -0.0594 -0.4503 -0.5200
   74MOL   C15928045   1.122   5.418   5.977  0.7057 -0.1229  0.2170
   74MOL   C16028046   1.005   5.320   5.951  0.2585 -0.0748  0.1566
   74MOL   C16128047   1.093   5.534   5.879  0.6010  0.4410 -0.1430
   74MOL   H16228048   1.702   5.350   5.934  0.7505 -1.1468 -0.0662
   74MOL   H16328049   1.642   5.462   6.041 -1.1779 -1.4495  3.0496
   74MOL   H16428050   1.501   5.484   5.859  0.3053 -0.2316  0.5321
   74MOL   H16528051   1.261   5.271   5.900  0.4446 -1.8246  1.6233
   74MOL   H16628052   1.111   5.452   6.080 -0.8036  1.1682 -0.3674
   74MOL   H16728053   0.988   5.294   5.847 -2.2133  1.7216  0.0628
   74MOL   H16828054   1.016   5.229   6.010  0.4056  0.3341  0.7627
   74MOL   H16928055   0.916   5.365   5.994 -1.9483 -2.3281 -1.9090
   74MOL   H17028056   1.155   5.623   5.894 -1.4141  1.8778 -0.1052
   74MOL   H17128057   0.986   5.554   5.887  0.3473 -1.5771  2.1043
   74MOL   H17228058   1.109   5.502   5.776 -0.4971 -0.8060  0.0597
   74MOL   C17328059   1.477   5.271   5.802 -0.6793  0.2982  0.4930
   74MOL   C17428060   1.416   5.324   5.669  0.2122 -0.7070 -0.8974
   74MOL   C17528061   1.502   5.436   5.600  0.2849 -0.4385  0.3268
   74MOL   O17628062   1.609   5.407   5.549 -0.0729  0.1306 -0.7156
   74MOL   N17728063   1.445   5.553   5.595 -0.2362 -0.5100 -0.6591
   74MOL   C17828064   1.501   5.676   5.533 -0.3406 -0.0937 -0.6993
   74MOL   C17928065   1.482   5.673   5.385 -0.0442 -0.2449 -0.0864
   74MOL   C18028066   1.646   5.707   5.573 -0.1483  0.1601 -0.5642
   74MOL   H18128067   1.414   5.191   5.839  0.2011 -1.1140 -0.9884
   74MOL   H18228068   1.577   5.236   5.777 -0.5102 -0.5926  2.3249
   74MOL   H18328069   1.319   5.362   5.700  0.9404 -0.2599  0.9051
   74MOL   H18428070   1.348   5.559   5.623 -0.0230  0.7588 -0.1153
   74MOL   H18528071   1.442   5.758   5.574  1.5767  0.4205  1.1670
   74MOL   H18628072   1.503   5.773   5.348 -2.9655  0.7084  0.6218
   74MOL   H18728073   1.384   5.641   5.350 -0.6786  1.6416 -0.1115
   74MOL   H18828074   1.558   5.608   5.343  1.3034  1.0956  0.2207
   74MOL   H18928075   1.651   5.815   5.560 -2.8516  0.1832 -1.6569
   74MOL   H19028076   1.712   5.643   5.513 -0.0393  1.1261 -1.4834
   74MOL   H19128077   1.659   5.680   5.678  2.4010 -0.7457 -1.0701
   74MOL   C19228078   1.391   5.201   5.577 -0.7854 -0.1471  0.2577
   74MOL   C19328079   1.301   5.198   5.449  0.5247  0.4948  0.1387
   74MOL   C19428080   1.151   5.246   5.467  0.0675  0.2465 -0.2564
   74MOL   O19528081   1.105   5.228   5.586 -0.6020  0.6848 -0.1598
   74MOL   N19628082   1.092   5.293   5.356  0.2169 -0.4445  0.4831
   74MOL   C19728083   0.958   5.348   5.339  0.7727  0.2603  0.1466
   74MOL   C19828084   0.961   5.492   5.301  0.0951 -0.1236 -0.3586
   74MOL   C19928085   0.886   5.256   5.232  0.2250 -0.7077  0.5979
   74MOL   H20028086   1.350   5.116   5.631 -0.0438  1.5769  3.6587
   74MOL   H20128087   1.488   5.158   5.550 -0.7229 -0.2980  0.7223
   74MOL   H20228088   1.338   5.265   5.371 -2.1458  2.4453  0.4904
   74MOL   H20328089   1.141   5.271   5.270  0.0411  1.4785 -0.1309
   74MOL   H20428090   0.899   5.348   5.430  2.9330 -0.9289  1.5781
   74MOL   H20528091   0.998   5.499   5.198 -0.2438 -0.3099 -0.4920
   74MOL   H20628092   1.027   5.550   5.365 -0.8929 -0.1433  0.6916
   74MOL   H20728093   0.860   5.533   5.301 -0.5718 -1.6389  2.5383
   74MOL   H20828094   0.788   5.300   5.216 -0.2004 -0.8411  2.6297
   74MOL   H20928095   0.874   5.159   5.280 -1.7690 -0.7435  0.0545
   74MOL   H21028096   0.941   5.243   5.139 -2.2654 -3.9250 -0.5064
   74MOL   C21128097   1.292   5.053   5.395  0.0166  0.4395  0.2444
   74MOL   C21228098   1.253   5.029   5.247  0.1525  0.5111  0.6840
   74MOL   C21328099   1.328   5.135   5.153 -0.3135  0.0169 -0.2916
   74MOL   O21428100   1.266   5.243   5.130 -0.8114  0.3695  0.5805
   74MOL   N21528101   1.459   5.110   5.123  0.3657 -0.0613  0.0964
   74MOL   C21628102   1.541   5.212   5.053 -0.4325 -0.4527  0.3069
   74MOL   C21728103   1.647   5.139   4.970 -0.0340 -0.5580  0.1883
   74MOL   C21828104   1.610   5.308   5.154  0.5894 -0.5853 -0.1049
   74MOL   H21928105   1.230   4.992   5.461  1.7142 -2.5801 -0.8205
   74MOL   H22028106   1.391   5.009   5.408 -0.7294 -1.1565  0.7197
   74MOL   H22128107   1.149   5.062   5.241 -0.0826 -0.3967 -0.3000
   74MOL   H22228108   1.490   5.013   5.127 -2.9158 -1.1450  0.9876
   74MOL   H22328109   1.478   5.275   4.990  1.4291  1.8867  0.7208
   74MOL   H22428110   1.721   5.201   4.919 -1.0027  0.7617  0.3568
   74MOL   H22528111   1.697   5.070   5.039  0.0122 -0.1612  0.5502
   74MOL   H22628112   1.596   5.069   4.903 -1.0023  0.3599 -0.0490
   74MOL   H22728113   1.694   5.255   5.198  0.5999 -1.1847 -0.8468
   74MOL   H22828114   1.537   5.338   5.230  1.2673 -2.5124  1.3438
   74MOL   H22928115   1.651   5.398   5.108  2.0363  0.0798  2.3844
   74MOL   C23028116   1.264   4.887   5.195  0.1601 -0.3152 -0.7427
   74MOL   C23128117   1.169   4.823   5.092 -0.2234  0.7511 -0.1240
   74MOL   C23228118   1.025   4.845   5.121  0.0871  0.2910  1.0261
   74MOL   O23328119   0.968   4.935   5.066  0.2911 -0.2342 -0.3836
   74MOL   N23428120   0.984   4.775   5.231 -0.1381  0.2696  0.0793
   74MOL   C23528121   0.874   4.803   5.315 -0.5516 -0.1344  0.6754
   74MOL   C23628122   0.805   4.674   5.360  0.2637 -0.3999  0.2782
   74MOL   C23728123   0.934   4.885   5.436  0.7903  1.0112 -1.0481
   74MOL   H23828124   1.263   4.828   5.286  0.2716  1.1919  0.2414
   74MOL   H23928125   1.368   4.883   5.162  0.0864  0.7918 -1.1103
   74MOL   H24028126   1.180   4.717   5.116 -1.3170  0.7569  0.4309
   74MOL   H24128127   1.047   4.704   5.264 -2.9106 -1.8247  1.0923
   74MOL   H24228128   0.805   4.868   5.262  2.4869  1.0835 -1.9493
   74MOL   H24328129   0.717   4.695   5.420  0.5831  2.0641 -0.0930
   74MOL   H24428130   0.769   4.607   5.281  1.0828  0.8749 -1.2221
   74MOL   H24528131   0.870   4.619   5.428  2.1452  1.5085  0.0532
   74MOL   H24628132   1.002   4.967   5.416  1.6697  1.0550  1.8767
   74MOL   H24728133   0.999   4.819   5.494 -0.7756 -0.5092 -0.9787
   74MOL   H24828134   0.855   4.929   5.498  0.2375 -3.1433  1.4700
   74MOL   C24928135   1.222   4.835   4.948  0.2087  0.3132 -0.0001
   74MOL   C25028136   1.134   4.797   4.818  0.4216  0.0553 -0.4307
   74MOL   C25128137   1.046   4.687   4.842  0.5144 -0.2860  0.5298
   74MOL   O25228138   1.088   4.582   4.879 -0.2540  0.1746 -0.4964
   74MOL   N25328139   0.916   4.715   4.817 -0.4815 -0.1164 -0.0538
   74MOL   C25428140   0.808   4.625   4.831  1.0129  0.4182 -0.2380
   74MOL   C25528141   0.770   4.595   4.978  0.1290  0.6284  0.0609
   74MOL   C25628142   0.696   4.665   4.743 -0.1270 -0.2994  0.5525
   74MOL   H25728143   1.317   4.785   4.932  0.1559  0.3010 -0.2833
   74MOL   H25828144   1.254   4.938   4.938  0.5897  0.4468  2.2957
   74MOL   H25928145   1.070   4.882   4.795 -1.1912 -0.9639  0.1745
   74MOL   H26028146   0.889   4.808   4.789 -0.1072 -0.4606 -1.5987
   74MOL   H26128147   0.836   4.527   4.792 -2.2456 -0.6090 -0.1526
   74MOL   H26228148   0.693   4.661   5.017 -0.2848  0.4475 -0.4436
   74MOL   H26328149   0.733   4.493   4.986 -0.1403  0.7072 -0.1667
   74MOL   H26428150   0.858   4.585   5.042  0.2540  0.7906 -0.0855
   74MOL   H26528151   0.724   4.670   4.638 -0.2298 -2.4187  0.4042
   74MOL   H26628152   0.614   4.594   4.744  0.8379 -1.4381  1.5049
   74MOL   H26728153   0.650   4.763   4.757 -0.2491 -0.4694  1.3748
   74MOL   C26828154   1.226   4.790   4.694 -0.7017  0.0393 -0.5616
   74MOL   C26928155   1.232   4.914   4.598 -0.5436  0.7590 -0.5050
   74MOL   C27028156   1.282   5.025   4.686 -0.3913  0.0684  0.9306
   74MOL   O27128157   1.401   5.030   4.722 -0.4305 -0.5490 -0.4563
   74MOL   N27228158   1.198   5.131   4.710 -0.9207 -0.8433 -0.3273
   74MOL   C27328159   1.232   5.251   4.785  0.3220 -0.0686 -0.4319
   74MOL   C27428160   1.266   5.354   4.675 -0.2741 -0.6409 -0.3727
   74MOL   C27528161   1.112   5.296   4.878 -0.4252  0.2789  0.2856
   74MOL   H27628162   1.327   4.756   4.719 -0.6214 -0.6592 -1.8037
   74MOL   H27728163   1.180   4.718   4.626 -0.2484 -0.4525 -0.3515
   74MOL   H27828164   1.132   4.927   4.555 -0.4241 -0.8789 -1.3368
   74MOL   H27928165   1.098   5.121   4.694 -1.5610  3.8587 -0.0061
   74MOL   H28028166   1.324   5.230   4.839 -0.8195  0.4121  1.7235
   74MOL   H28128167   1.322   5.443   4.705 -0.4136 -0.5873 -0.2743
   74MOL   H28228168   1.331   5.304   4.603 -0.3831 -1.2515 -0.0544
   74MOL   H28328169   1.174   5.390   4.629 -1.1469 -2.1569  0.1612
   74MOL   H28428170   1.022   5.328   4.826 -1.0050 -0.3846  0.8822
   74MOL   H28528171   1.063   5.209   4.920  1.2418 -1.1518 -0.6269
   74MOL   H28628172   1.139   5.363   4.959 -1.5531 -0.5715  1.3671
   74MOL   C28728173   1.341   4.894   4.491 -1.1068 -0.2494 -0.0007
   74MOL   C28828174   1.374   4.991   4.378 -0.5976  0.0307  0.2231
   74MOL   C28928175   1.248   5.036   4.305  0.3845  0.2727  0.1978
   74MOL   O29028176   1.152   4.956   4.283  0.4084  0.1216 -0.2056
   74MOL   N29128177   1.242   5.164   4.258 -0.3359  0.5071  0.2573
   74MOL   C29228178   1.117   5.220   4.207 -0.4926 -0.4090 -0.1861
   74MOL   C29328179   1.032   5.278   4.322  0.1098  0.4064  0.1099
   74MOL   C29428180   1.143   5.321   4.096 -0.4176 -0.1622 -0.6338
   74MOL   H29528181   1.434   4.867   4.541 -0.4940  0.6272 -0.6495
   74MOL   H29628182   1.315   4.800   4.441  2.8736 -1.8858  0.8381
   74MOL   H29728183   1.420   5.085   4.409  1.1489 -0.1683 -1.5777
   74MOL   H29828184   1.333   5.207   4.255  0.3247 -0.6749  2.2982
   74MOL   H29928185   1.047   5.150   4.161  0.2584 -1.6150  0.4559
   74MOL   H30028186   1.000   5.196   4.387  1.4053 -0.9258 -0.9097
   74MOL   H30128187   1.083   5.352   4.384  0.1807  0.3785  0.0869
   74MOL   H30228188   0.944   5.328   4.283  0.1026 -0.1257 -0.5692
   74MOL   H30328189   1.045   5.356   4.062 -1.1418 -1.6993 -0.1854
   74MOL   H30428190   1.198   5.409   4.129 -0.9177  0.5090 -1.5532
   74MOL   H30528191   1.189   5.267   4.013 -1.0457 -3.5355  1.1349
   74MOL   C30628192   1.466   4.910   4.281  0.4645 -0.4326  0.5796
   74MOL   C30728193   1.559   4.989   4.191 -0.5744 -0.0718  0.3760
   74MOL   C30828194   1.629   4.895   4.091 -0.3506  0.2592  0.5439
   74MOL   O30928195   1.704   4.808   4.130  0.7523  0.1521  0.1727
   74MOL   N31028196   1.605   4.933   3.961 -0.2470  0.4471  0.4823
   74MOL   C31128197   1.667   4.873   3.848  0.3352  0.0525  0.6963
   74MOL   C31228198   1.579   4.890   3.735 -1.0715 -0.5315 -0.0163
   74MOL   C31328199   1.794   4.946   3.805 -0.4813  0.1741  0.1948
   74MOL   H31428200   1.530   4.838   4.333  0.5319 -0.6257  0.2300
   74MOL   H31528201   1.399   4.840   4.232 -1.1944  0.9258  0.8454
   74MOL   H31628202   1.496   5.049   4.126 -0.3352  0.5207  0.6831
   74MOL   H31728203   1.544   5.012   3.945 -2.5672 -0.6270  3.6971
   74MOL   H31828204   1.679   4.769   3.878  0.9719  0.2915  1.2767
   74MOL   H31928205   1.474   4.905   3.762 -1.1397  2.4020 -1.6542
   74MOL   H32028206   1.586   4.806   3.665  0.3721  0.6119 -1.2816
   74MOL   H32128207   1.604   4.984   3.685  0.2991 -1.5557 -1.3027
   74MOL   H32228208   1.786   5.054   3.790 -2.4654  0.2922  1.8175
   74MOL   H32328209   1.829   4.888   3.719 -0.9138 -0.9260  0.7418
   74MOL   H32428210   1.876   4.924   3.873 -0.8707  0.2746  0.7025
   74MOL   C32528211   1.672   5.064   4.273  0.3575 -0.1724 -0.4643
   74MOL   C32628212   1.717   5.206   4.220  0.7999 -0.0219  0.0226
   74MOL   C32728213   1.597   5.304   4.235  0.4390  0.3116 -0.0048
   74MOL   O32828214   1.488   5.270   4.189  0.1381 -0.1487  0.2589
   74MOL   N32928215   1.610   5.425   4.293  0.0057  0.0851 -0.3797
   74MOL   C33028216   1.509   5.528   4.277 -0.1741 -0.8200 -0.2527
   74MOL   C33128217   1.563   5.670   4.302 -0.0098 -0.7632 -0.1321
   74MOL   C33228218   1.390   5.511   4.376  0.8724 -0.2175  0.3678
   74MOL   H33328219   1.759   4.998   4.266 -1.4932 -2.5714 -1.7446
   74MOL   H33428220   1.642   5.062   4.378  1.0004 -0.4655 -0.2835
   74MOL   H33528221   1.734   5.196   4.113 -0.2127  2.9823 -0.4649
   74MOL   H33628222   1.689   5.451   4.351 -0.5659 -0.8879  0.8673
   74MOL   H33728223   1.468   5.520   4.176  0.6284  1.2378 -0.7647
   74MOL   H33828224   1.659   5.673   4.250  0.3233  2.5886  0.5710
   74MOL   H33928225   1.508   5.745   4.244  1.2790 -0.1851 -0.6395
   74MOL   H34028226   1.577   5.711   4.402 -1.3187 -0.3602 -0.0937
   74MOL   H34128227   1.303   5.571   4.353 -1.2219 -2.3043  2.5661
   74MOL   H34228228   1.422   5.537   4.477 -0.2773  1.1891  0.3720
   74MOL   H34328229   1.355   5.407   4.379  1.1629 -0.3130  0.5140
   74MOL   C34428230   1.843   5.268   4.280  0.1368  0.1891 -0.9252
   74MOL   C34528231   1.980   5.201   4.268 -0.2581 -0.8553 -0.1073
   74MOL   C34628232   2.029   5.185   4.120  0.0437 -1.1793 -0.2659
   74MOL   O34728233   1.989   5.255   4.030  0.5064 -0.1540 -0.3772
   74MOL   N34828234   2.116   5.084   4.098 -0.4173  0.2945  0.1854
   74MOL   C34928235   2.189   5.053   3.974 -0.9459 -1.0669 -0.1419
   74MOL   C35028236   2.328   5.110   3.976 -0.8947 -0.0605  0.1951
   74MOL   C35128237   2.180   4.904   3.950 -0.3335  0.1770  0.2227
   74MOL   H35228238   1.835   5.290   4.387 -1.1723 -0.0125 -0.9706
   74MOL   H35328239   1.864   5.359   4.223 -0.8227 -0.0306 -1.6378
   74MOL   H35428240   1.975   5.102   4.313 -0.3543 -0.1814  1.3815
   74MOL   H35528241   2.144   5.031   4.179 -2.4969 -1.4074 -0.1653
   74MOL   H35628242   2.124   5.092   3.895  0.1001 -0.7915 -0.8657
   74MOL   H35728243   2.370   5.101   3.876 -0.6978  1.9211  0.0889
   74MOL   H35828244   2.330   5.212   4.013  1.0635 -0.7599  2.0831
   74MOL   H35928245   2.385   5.049   4.046  0.6069  0.2443 -0.7371
   74MOL   H36028246   2.230   4.872   3.858  0.4620 -0.3616  0.8364
   74MOL   H36128247   2.235   4.849   4.026  0.6010  2.3603  1.1797
   74MOL   H36228248   2.082   4.857   3.958 -0.2514  0.3070  2.1541
   74MOL   C36328249   2.086   5.272   4.365  0.7508 -0.0708  0.0958
   74MOL   C36428250   2.232   5.222   4.356 -0.3794  0.6205 -0.1557
   74MOL   C36528251   2.248   5.084   4.421  0.0716  0.8186  1.3539
   74MOL   O36628252   2.223   4.980   4.354 -0.5356  0.1002  0.1518
   74MOL   N36728253   2.296   5.082   4.549 -0.1582  0.6212 -0.6181
   74MOL   C36828254   2.328   4.962   4.632 -0.2156 -0.2265 -0.6506
   74MOL   C36928255   2.480   4.946   4.654  0.2130  0.6562 -0.4032
   74MOL   C37028256   2.250   4.986   4.763  0.6752  0.0392 -0.3240
   74MOL   H37128257   2.051   5.248   4.466  0.2765  3.3620  0.7906
   74MOL   H37228258   2.080   5.379   4.350  2.1979  0.3327  2.1532
   74MOL   H37328259   2.316   5.284   4.389  2.4236 -2.5776 -1.0505
   74MOL   H37428260   2.298   5.167   4.603  0.6840  0.8337 -0.9873
   74MOL   H37528261   2.296   4.865   4.595 -0.8187 -1.0085  1.8288
   74MOL   H37628262   2.533   4.904   4.569 -3.2621  1.6450 -3.1898
   74MOL   H37728263   2.526   5.044   4.664  0.2143  0.8392 -2.0645
   74MOL   H37828264   2.502   4.875   4.734 -0.1777  1.2642  0.2543
   74MOL   H37928265   2.147   5.020   4.748  1.4912  3.0070  0.6235
   74MOL   H38028266   2.231   4.895   4.822  0.8659 -0.5844 -1.2151
   74MOL   H38128267   2.311   5.046   4.830 -0.5558  2.3481 -1.2323
   74MOL   H38228268   2.262   5.219   4.251  1.0635 -1.4836  0.2965
   75MOL     C128269   6.635   2.626   4.250 -0.4334 -0.1050 -0.6088
   75MOL     C228270   6.545   2.712   4.158 -0.1576  0.4021 -0.0648
   75MOL     C328271   6.579   2.860   4.182  0.3991  0.0977  0.4669
   75MOL     O428272   6.668   2.918   4.126  0.0394 -0.7061 -0.0378
   75MOL     N528273   6.511   2.926   4.270  0.4144  0.1077 -0.7068
   75MOL     C628274   6.553   3.062   4.327  0.0556  0.4338 -0.7803
   75MOL     C728275   6.542   3.178   4.227 -0.6811 -0.0576 -0.0967
   75MOL     C828276   6.467   3.076   4.448  0.6944 -0.3456 -0.7403
   75MOL     H928277   6.632   2.651   4.356  1.0055  0.7313 -0.7389
   75MOL    H1028278   6.739   2.645   4.221 -0.6876  1.0273 -0.8287
   75MOL    H1128279   6.443   2.693   4.191  0.4701 -0.4606  1.3873
   75MOL    H1228280   6.429   2.884   4.311  0.4719  0.0400 -0.6591
   75MOL    H1328281   6.658   3.061   4.356 -0.0844 -1.1200 -0.2952
   75MOL    H1428282   6.451   3.171   4.168  0.1499  2.1484 -1.7058
   75MOL    H1528283   6.625   3.180   4.157  0.6671 -0.2529  1.4530
   75MOL    H1628284   6.544   3.271   4.285 -1.1651 -0.8396  1.2125
   75MOL    H1728285   6.515   3.169   4.480 -0.3219 -0.5615  1.5268
   75MOL    H1828286   6.361   3.085   4.423  0.1841  0.0628  1.4336
   75MOL    H1928287   6.492   3.005   4.527 -0.4183  0.2864  0.1975
   75MOL    H2028288   6.613   2.521   4.235 -0.1578 -0.3062  0.3949
   75MOL    C2128289   6.566   2.673   4.012 -0.1203 -0.1159  0.7480
   75MOL    C2228290   6.448   2.717   3.918 -0.1266 -0.2191 -0.3382
   75MOL    C2328291   6.309   2.659   3.950  0.0634  0.2331  0.8002
   75MOL    O2428292   6.297   2.570   4.034  0.0398 -0.3929 -0.2491
   75MOL    N2528293   6.208   2.701   3.871  0.3738 -0.5639  0.2422
   75MOL    C2628294   6.075   2.644   3.879  1.0268  0.0696 -0.0229
   75MOL    C2728295   6.064   2.537   3.766  0.6195 -0.6318 -0.1878
   75MOL    C2828296   5.964   2.751   3.891 -0.3859  0.4425  0.1347
   75MOL    H2928297   6.582   2.565   4.003 -0.8615 -0.0830 -1.4135
   75MOL    H3028298   6.657   2.711   3.966 -0.5458  0.2092  0.1705
   75MOL    H3128299   6.424   2.820   3.945  1.5045  0.5440 -1.7364
   75MOL    H3228300   6.224   2.785   3.817 -1.3375 -1.7063 -2.1055
   75MOL    H3328301   6.065   2.594   3.975 -1.6228  1.6705  0.5802
   75MOL    H3428302   6.064   2.590   3.671 -0.3254  0.0313  0.1727
   75MOL    H3528303   5.975   2.474   3.770  1.5630 -1.9078  2.0189
   75MOL    H3628304   6.140   2.460   3.764  0.5050 -0.8545  2.5073
   75MOL    H3728305   5.945   2.807   3.800 -2.5222  2.2565  1.6623
   75MOL    H3828306   5.871   2.705   3.925  1.4179 -2.3075  1.5808
   75MOL    H3928307   5.976   2.812   3.980 -2.1669 -0.9797  1.3736
   75MOL    C4028308   6.497   2.695   3.765  0.2977 -0.0687  0.1696
   75MOL    C4128309   6.545   2.817   3.688  0.6161  0.1985 -0.5001
   75MOL    C4228310   6.437   2.924   3.692 -0.0957 -0.3480  0.3092
   75MOL    O4328311   6.329   2.909   3.639 -0.0413  0.0861 -0.0422
   75MOL    N4428312   6.459   3.036   3.749  0.3476  0.3306 -0.7003
   75MOL    C4528313   6.358   3.137   3.768  0.3839 -0.3767 -0.4127
   75MOL    C4628314   6.283   3.104   3.898 -0.3017 -0.7494 -0.1336
   75MOL    C4728315   6.431   3.275   3.776  0.4424  0.0278 -0.2722
   75MOL    H4828316   6.412   2.658   3.708 -1.2429  2.8219  0.4828
   75MOL    H4928317   6.567   2.612   3.763  0.1589 -0.1919  0.3697
   75MOL    H5028318   6.631   2.858   3.740  1.0583 -2.3628  0.8795
   75MOL    H5128319   6.548   3.044   3.797  0.7483 -2.6776 -0.8661
   75MOL    H5228320   6.290   3.150   3.683 -1.4078  1.3015  1.2239
   75MOL    H5328321   6.347   3.079   3.982  0.4134  2.2367  0.2757
   75MOL    H5428322   6.225   3.013   3.883 -0.0980 -0.4060 -3.3881
   75MOL    H5528323   6.203   3.173   3.926 -0.5635 -0.1040 -2.3566
   75MOL    H5628324   6.364   3.361   3.777 -1.5578 -1.4838 -0.4354
   75MOL    H5728325   6.498   3.280   3.690 -1.6094  0.0426 -1.9132
   75MOL    H5828326   6.489   3.274   3.868  1.1095 -1.3051 -0.7090
   75MOL    C5928327   6.581   2.787   3.538 -0.3824 -0.0370  0.1193
   75MOL    C6028328   6.701   2.874   3.490 -0.6205 -0.1686 -0.7135
   75MOL    C6128329   6.676   3.023   3.473 -0.8434 -0.3269 -0.6082
   75MOL    O6228330   6.728   3.104   3.553 -0.3776  0.2592 -0.2797
   75MOL    N6328331   6.583   3.054   3.379  0.5033 -0.0420  0.3185
   75MOL    C6428332   6.536   3.185   3.348 -0.0976  0.1197  0.1346
   75MOL    C6528333   6.588   3.232   3.212 -0.1831  0.5505 -1.0196
   75MOL    C6628334   6.386   3.176   3.343 -0.2577 -0.2279 -0.0698
   75MOL    H6728335   6.624   2.687   3.532  2.3520  0.9748  1.6762
   75MOL    H6828336   6.498   2.791   3.468 -0.1326  1.1859 -0.1296
   75MOL    H6928337   6.766   2.878   3.577 -1.5358  0.8870 -0.0571
   75MOL    H7028338   6.557   2.976   3.321  2.1643 -0.1260 -0.3218
   75MOL    H7128339   6.577   3.260   3.415 -0.6271 -0.0815  0.6824
   75MOL    H7228340   6.525   3.197   3.130  0.0712 -1.5186 -0.3610
   75MOL    H7328341   6.577   3.340   3.213  0.5946  0.6508 -2.0112
   75MOL    H7428342   6.693   3.210   3.189 -0.3472 -0.0176 -1.2541
   75MOL    H7528343   6.344   3.277   3.338 -0.2103 -0.1445  1.0595
   75MOL    H7628344   6.347   3.125   3.255  2.6120 -0.9642 -0.9753
   75MOL    H7728345   6.353   3.138   3.439  1.8940 -2.0878 -0.0113
   75MOL    C7828346   6.792   2.812   3.381 -0.6444  0.2544  0.2586
   75MOL    C7928347   6.938   2.845   3.379 -0.3663  0.5570 -0.0913
   75MOL    C8028348   7.005   2.780   3.495 -0.7158  0.9691  0.1601
   75MOL    O8128349   7.037   2.663   3.497  0.1564 -0.2390 -0.1571
   75MOL    N8228350   7.038   2.871   3.588 -0.0505  0.7264 -0.6381
   75MOL    C8328351   7.077   2.837   3.722 -0.2488  0.3071 -0.1023
   75MOL    C8428352   7.144   2.961   3.784  0.1049 -0.0100 -0.2461
   75MOL    C8528353   6.952   2.804   3.803  0.1807  0.0297  0.8134
   75MOL    H8628354   6.754   2.841   3.284 -0.8028  0.5738  0.4170
   75MOL    H8728355   6.783   2.703   3.377  2.8223 -0.1144  1.0819
   75MOL    H8828356   6.950   2.954   3.379 -1.4870  0.6897 -0.5014
   75MOL    H8928357   7.019   2.968   3.568 -0.6471  1.1932  1.9145
   75MOL    H9028358   7.156   2.761   3.726 -1.6609 -1.1551  0.7679
   75MOL    H9128359   7.185   2.936   3.881  0.2731  2.6479  0.4142
   75MOL    H9228360   7.221   3.005   3.720  1.4275 -2.2078 -0.2116
   75MOL    H9328361   7.079   3.042   3.818 -0.1018 -1.5219  3.1741
   75MOL    H9428362   6.987   2.759   3.895  1.1494  1.0265  0.9470
   75MOL    H9528363   6.900   2.719   3.759 -1.9578 -0.0228  3.3403
   75MOL    H9628364   6.889   2.890   3.825 -0.5684 -0.4704  0.6436
   75MOL    C9728365   6.996   2.810   3.244 -0.0945  0.6841  0.3207
   75MOL    C9828366   7.148   2.847   3.221 -0.0425  0.7054 -0.7364
   75MOL    C9928367   7.177   2.990   3.219  0.7669  0.2750 -0.0197
   75MOL   O10028368   7.100   3.071   3.169  0.0704 -0.3762 -0.1159
   75MOL   N10128369   7.278   3.022   3.293 -0.1623 -0.1227  0.4651
   75MOL   C10228370   7.337   3.150   3.317  0.2315  0.5393  0.4580
   75MOL   C10328371   7.301   3.192   3.458 -0.3106 -0.2161 -0.3092
   75MOL   C10428372   7.489   3.152   3.295 -0.3222  0.0259  0.2824
   75MOL   H10528373   6.926   2.859   3.176  0.2658  1.0171  0.1908
   75MOL   H10628374   6.977   2.705   3.224 -0.9099  0.9682 -0.4558
   75MOL   H10728375   7.189   2.802   3.312 -0.6757  2.1674  0.2944
   75MOL   H10828376   7.327   2.938   3.323  0.5277  0.2587  0.4268
   75MOL   H10928377   7.293   3.224   3.250 -0.6874  2.3266  2.9239
   75MOL   H11028378   7.329   3.296   3.474  2.7523 -1.0039 -0.2910
   75MOL   H11128379   7.193   3.185   3.473 -0.3664  0.1664 -0.5109
   75MOL   H11228380   7.335   3.124   3.536 -0.6089 -1.4432 -1.2365
   75MOL   H11328381   7.544   3.092   3.367  0.0150 -0.1037 -0.0788
   75MOL   H11428382   7.528   3.253   3.281 -0.4161 -0.0650 -0.6937
   75MOL   H11528383   7.524   3.095   3.208  2.1468 -1.0991  1.9491
   75MOL   C11628384   7.202   2.771   3.104 -0.3140 -0.2507 -0.6346
   75MOL   C11728385   7.183   2.830   2.967 -0.3153  0.1394  0.0682
   75MOL   C11828386   7.032   2.832   2.931 -0.5695 -0.8513  0.2452
   75MOL   O11928387   6.968   2.729   2.932  0.1765  0.0656  0.6291
   75MOL   N12028388   6.977   2.952   2.895  0.1845  0.3252 -0.2619
   75MOL   C12128389   6.845   2.978   2.847 -0.2572  0.0315 -0.0087
   75MOL   C12228390   6.763   3.049   2.945  0.7231 -0.4496  0.2510
   75MOL   C12328391   6.851   3.049   2.710  0.1249  0.3676 -0.6302
   75MOL   H12428392   7.156   2.672   3.106  0.4875 -0.6224  0.4814
   75MOL   H12528393   7.309   2.756   3.120  0.3035  3.7459 -0.5013
   75MOL   H12628394   7.227   2.927   2.944 -2.5816  0.9007 -1.1149
   75MOL   H12728395   7.034   3.032   2.917 -0.7810  1.0642 -0.4187
   75MOL   H12828396   6.792   2.883   2.844 -0.8621  0.1217  4.1478
   75MOL   H12928397   6.659   3.027   2.920  0.7149 -0.7185  0.5096
   75MOL   H13028398   6.780   3.156   2.950  0.7955 -0.4462 -0.0288
   75MOL   H13128399   6.780   3.007   3.044  1.8282  1.4817  0.8999
   75MOL   H13228400   6.750   3.059   2.671 -2.4144 -1.5745  4.8529
   75MOL   H13328401   6.903   3.143   2.726  1.2601 -0.0687 -1.6972
   75MOL   H13428402   6.903   2.981   2.642  1.0421  1.1875 -0.7627
   75MOL   C13528403   7.245   2.730   2.863  0.4497  0.8802 -0.7359
   75MOL   C13628404   7.242   2.774   2.718 -0.1137 -0.3103  0.1246
   75MOL   C13728405   7.351   2.877   2.686 -0.3092 -0.1628  0.1370
   75MOL   O13828406   7.468   2.861   2.723  0.3484 -0.0627 -0.1988
   75MOL   N13928407   7.302   2.989   2.621 -0.3113  0.6775  0.3436
   75MOL   C14028408   7.383   3.110   2.602  0.3288  0.2678 -0.2481
   75MOL   C14128409   7.294   3.230   2.649  0.5001  0.1238 -0.0401
   75MOL   C14228410   7.438   3.114   2.457  0.0451  0.0831  0.1237
   75MOL   H14328411   7.195   2.633   2.867  0.6322  0.8474  1.2956
   75MOL   H14428412   7.346   2.717   2.901  0.2270  1.6784  0.1511
   75MOL   H14528413   7.141   2.814   2.708 -0.0470  0.0747  0.9714
   75MOL   H14628414   7.217   2.971   2.570  0.5446  1.1530 -1.3065
   75MOL   H14728415   7.464   3.108   2.675 -1.0028 -0.1706  1.2565
   75MOL   H14828416   7.282   3.228   2.757  0.3543  0.3652 -0.0532
   75MOL   H14928417   7.346   3.324   2.630  2.4871 -0.8237  0.5795
   75MOL   H15028418   7.198   3.221   2.597  0.6454 -1.2408 -0.1006
   75MOL   H15128419   7.494   3.023   2.438 -2.0462 -1.3787  0.8701
   75MOL   H15228420   7.514   3.192   2.448 -2.1458  2.2268 -0.3394
   75MOL   H15328421   7.355   3.135   2.389 -0.8149  1.7440  1.6137
   75MOL   C15428422   7.240   2.654   2.621 -0.4482  0.0258 -0.5117
   75MOL   C15528423   7.126   2.637   2.525 -0.3270  0.3026 -0.4086
   75MOL   C15628424   7.126   2.743   2.412 -0.1863  0.5509 -0.0046
   75MOL   O15728425   7.060   2.848   2.420  0.0390  0.3044  1.0464
   75MOL   N15828426   7.202   2.714   2.306 -0.3258 -0.1250  0.1772
   75MOL   C15928427   7.237   2.795   2.191  0.5063 -0.0891  0.3872
   75MOL   C16028428   7.132   2.760   2.080  0.2957 -0.2225 -0.3130
   75MOL   C16128429   7.386   2.768   2.156  0.1411  0.1525  0.2555
   75MOL   H16228430   7.236   2.560   2.675 -0.2138  1.1728  1.5502
   75MOL   H16328431   7.330   2.652   2.559 -0.6467  1.3803 -0.8653
   75MOL   H16428432   7.160   2.542   2.485  2.1015  0.3064  1.5278
   75MOL   H16528433   7.259   2.630   2.316  0.9827  0.5342 -1.4285
   75MOL   H16628434   7.240   2.900   2.218 -0.8279 -0.6211  2.6797
   75MOL   H16728435   7.151   2.795   1.979 -1.5974 -0.5499 -0.7996
   75MOL   H16828436   7.092   2.659   2.080  0.1116 -0.1621  0.8081
   75MOL   H16928437   7.051   2.828   2.106  0.0414 -0.5769 -0.1814
   75MOL   H17028438   7.450   2.760   2.243 -0.0234 -2.9540  0.1363
   75MOL   H17128439   7.430   2.848   2.095 -1.0447  1.1782  0.7311
   75MOL   H17228440   7.400   2.683   2.090  2.7852 -0.3207  1.3328
   75MOL   C17328441   6.988   2.607   2.593 -0.2899  0.2492  0.0825
   75MOL   C17428442   6.874   2.592   2.495 -0.4798 -0.0172  0.1572
   75MOL   C17528443   6.888   2.479   2.392  0.2962  0.2505 -0.1877
   75MOL   O17628444   6.867   2.363   2.435  0.2053  0.3782  0.3564
   75MOL   N17728445   6.925   2.502   2.267  0.8679  0.2668  0.0188
   75MOL   C17828446   6.954   2.394   2.176 -0.0705 -0.0806  0.5056
   75MOL   C17928447   7.107   2.374   2.164 -0.0061 -0.5373  0.1765
   75MOL   C18028448   6.901   2.435   2.040  0.6051 -0.1786 -0.7730
   75MOL   H18128449   6.964   2.698   2.649 -0.3610  0.3554 -0.1209
   75MOL   H18228450   6.993   2.524   2.663 -2.1135 -2.8150 -3.3314
   75MOL   H18328451   6.885   2.682   2.435 -0.8439 -1.0852 -1.5660
   75MOL   H18428452   6.935   2.600   2.246  2.3855  0.2515  0.6106
   75MOL   H18528453   6.898   2.305   2.207 -0.9783  1.2248  2.7788
   75MOL   H18628454   7.120   2.296   2.089 -0.7568 -1.6231  1.1701
   75MOL   H18728455   7.145   2.336   2.259 -0.0828 -0.1306  0.3688
   75MOL   H18828456   7.160   2.467   2.142 -0.4982 -0.3598 -0.2566
   75MOL   H18928457   6.950   2.528   2.010  0.2790  0.3930  0.4262
   75MOL   H19028458   6.795   2.453   2.026  0.6698 -0.4956 -1.7030
   75MOL   H19128459   6.928   2.354   1.973 -1.4547 -1.6157  0.0873
   75MOL   C19228460   6.728   2.578   2.561  0.0242  0.1814  0.3373
   75MOL   C19328461   6.599   2.578   2.468 -0.4488  0.0299 -0.1758
   75MOL   C19428462   6.597   2.693   2.368  0.2174  0.5515 -0.5273
   75MOL   O19528463   6.586   2.805   2.414  0.2159  0.3165  0.2033
   75MOL   N19628464   6.616   2.667   2.239 -0.0771 -1.0584 -0.3831
   75MOL   C19728465   6.647   2.774   2.147  0.7555  0.0051  0.1959
   75MOL   C19828466   6.795   2.794   2.144  0.1451  0.2117  0.1490
   75MOL   C19928467   6.602   2.729   2.002  0.3959  0.2896  0.2226
   75MOL   H20028468   6.705   2.661   2.628  3.1564  0.2861  1.3647
   75MOL   H20128469   6.739   2.494   2.629  0.7532 -1.2156 -1.4838
   75MOL   H20228470   6.610   2.483   2.417  0.7751 -0.3335  0.7567
   75MOL   H20328471   6.626   2.574   2.201  1.0552 -0.5998 -1.2566
   75MOL   H20428472   6.599   2.869   2.173 -0.5402 -0.4928 -0.2995
   75MOL   H20528473   6.840   2.702   2.106 -1.0010 -1.3665  2.5609
   75MOL   H20628474   6.851   2.813   2.235  0.6862 -3.1703  0.5810
   75MOL   H20728475   6.818   2.874   2.072  0.1181 -0.1004 -0.2065
   75MOL   H20828476   6.638   2.628   1.982 -0.5785 -0.3100  1.3913
   75MOL   H20928477   6.653   2.790   1.928 -1.2158  2.1909  0.6362
   75MOL   H21028478   6.493   2.733   1.995  0.4384  0.5554 -0.2324
   75MOL   C21128479   6.472   2.565   2.555  0.3452 -0.3308  0.6538
   75MOL   C21228480   6.342   2.559   2.480  0.0655  0.4496 -0.2997
   75MOL   C21328481   6.337   2.430   2.391  0.7872  0.9585 -0.2999
   75MOL   O21428482   6.331   2.318   2.438  0.5140  0.4802 -0.3065
   75MOL   N21528483   6.367   2.454   2.261  0.7844  0.8376 -0.0975
   75MOL   C21628484   6.404   2.362   2.162 -0.1816 -1.0802  0.7161
   75MOL   C21728485   6.555   2.346   2.166 -0.1935 -0.1404  0.4827
   75MOL   C21828486   6.343   2.405   2.030 -0.2263 -0.0586 -0.2356
   75MOL   H21928487   6.461   2.651   2.620 -0.4313 -1.3210  1.8473
   75MOL   H22028488   6.492   2.479   2.618  2.7085 -2.0603 -2.2740
   75MOL   H22128489   6.321   2.648   2.422 -0.1730  1.8483  1.8819
   75MOL   H22228490   6.354   2.551   2.234 -0.8202  0.3063 -1.3120
   75MOL   H22328491   6.373   2.262   2.192 -0.3325 -0.6723  1.9424
   75MOL   H22428492   6.587   2.303   2.072  2.2827  0.2645  1.0994
   75MOL   H22528493   6.601   2.444   2.168 -1.0291  0.2542  0.4643
   75MOL   H22628494   6.590   2.286   2.251  2.0328 -0.5647 -0.7178
   75MOL   H22728495   6.345   2.514   2.032 -0.7079  0.0031 -1.8616
   75MOL   H22828496   6.240   2.370   2.030 -0.5365  0.8432 -0.1927
   75MOL   H22928497   6.404   2.380   1.943  0.4637  1.4455 -0.2036
   75MOL   C23028498   6.234   2.531   2.588  0.4508 -0.5389  0.8529
   75MOL   C23128499   6.087   2.535   2.535  0.4466 -0.5690  0.0173
   75MOL   C23228500   6.010   2.421   2.588  0.0138 -0.2412 -0.4564
   75MOL   O23328501   5.922   2.440   2.672  0.3210 -0.5742 -0.1581
   75MOL   N23428502   6.039   2.302   2.550  0.2347 -0.0131 -0.1711
   75MOL   C23528503   5.992   2.178   2.605  0.6079 -0.2782  0.5291
   75MOL   C23628504   5.877   2.123   2.530  0.5152 -0.3313  0.4364
   75MOL   C23728505   6.114   2.081   2.586 -0.5860  0.5243 -0.2212
   75MOL   H23828506   6.248   2.603   2.668 -0.7265 -1.2325  1.7132
   75MOL   H23928507   6.247   2.433   2.634 -0.6548 -1.2321 -0.2511
   75MOL   H24028508   6.089   2.520   2.427 -0.5840 -1.0458  0.0675
   75MOL   H24128509   6.117   2.299   2.486  0.2364 -0.1449 -0.1636
   75MOL   H24228510   5.974   2.189   2.712  2.6858 -0.8124  0.9569
   75MOL   H24328511   5.856   2.016   2.532  0.7257 -0.3760  0.2668
   75MOL   H24428512   5.785   2.173   2.559  1.2403  2.4286 -1.7436
   75MOL   H24528513   5.882   2.140   2.422 -1.1387 -0.2721  0.3614
   75MOL   H24628514   6.111   2.009   2.668  0.2905  0.5636 -0.1597
   75MOL   H24728515   6.212   2.126   2.597  0.3945 -2.0658  2.2847
   75MOL   H24828516   6.107   2.034   2.488 -1.2453  1.5920 -0.6924
   75MOL   C24928517   6.038   2.682   2.561 -0.9475  0.7563 -0.8120
   75MOL   C25028518   5.899   2.740   2.510 -0.5627  0.0863 -0.0412
   75MOL   C25128519   5.878   2.679   2.373 -0.3343 -0.6164  0.2989
   75MOL   O25228520   5.958   2.697   2.278 -0.2254  0.6487 -0.8515
   75MOL   N25328521   5.788   2.588   2.355  0.7241 -0.1000 -0.0255
   75MOL   C25428522   5.779   2.510   2.233 -0.3267 -0.2599 -0.6598
   75MOL   C25528523   5.905   2.427   2.198 -0.0162 -0.6731 -0.8993
   75MOL   C25628524   5.657   2.418   2.250 -0.6835 -0.5765 -0.9750
   75MOL   H25728525   6.117   2.756   2.543 -0.6608  0.5177 -0.5362
   75MOL   H25828526   6.029   2.699   2.669 -1.4143  2.6066 -1.1086
   75MOL   H25928527   5.831   2.694   2.581  1.1773  0.0163  1.6299
   75MOL   H26028528   5.733   2.558   2.435 -0.4588 -2.0005 -1.5145
   75MOL   H26128529   5.773   2.584   2.153  0.7134 -0.0568 -0.5628
   75MOL   H26228530   5.948   2.384   2.289  1.0867  0.5867 -0.8140
   75MOL   H26328531   5.897   2.355   2.117 -0.2615 -0.2189 -1.2808
   75MOL   H26428532   5.985   2.494   2.164 -1.0180  1.1301  0.2172
   75MOL   H26528533   5.682   2.342   2.324 -0.3349  1.1842  0.7600
   75MOL   H26628534   5.579   2.479   2.294 -0.6810 -1.2355 -0.0503
   75MOL   H26728535   5.622   2.383   2.153  0.1878  0.2448 -1.5999
   75MOL   C26828536   5.905   2.892   2.524 -0.1592 -0.2486  0.2464
   75MOL   C26928537   5.790   2.979   2.463 -0.1886 -0.3808  0.4662
   75MOL   C27028538   5.661   2.957   2.538 -0.5251  0.7268  0.3764
   75MOL   O27128539   5.649   2.998   2.655  0.1806  0.3288  0.0898
   75MOL   N27228540   5.562   2.892   2.473 -0.0192 -0.0616 -0.6493
   75MOL   C27328541   5.435   2.860   2.532 -0.3450 -0.3163  0.3871
   75MOL   C27428542   5.334   2.975   2.505 -0.2188  0.6868  0.8317
   75MOL   C27528543   5.380   2.730   2.484 -0.2155  0.5016  0.0736
   75MOL   H27628544   5.904   2.912   2.631  0.4780  1.5607 -0.0640
   75MOL   H27728545   5.996   2.941   2.490 -1.9774  2.3092 -1.1327
   75MOL   H27828546   5.772   2.963   2.357  0.6112 -2.7433  0.6357
   75MOL   H27928547   5.571   2.868   2.375  0.7182  1.8301 -1.0701
   75MOL   H28028548   5.443   2.837   2.638  0.0394  1.5180  0.7857
   75MOL   H28128549   5.368   3.065   2.557  0.8523  0.8630 -0.1437
   75MOL   H28228550   5.324   2.993   2.398 -0.1143 -1.3390  0.4608
   75MOL   H28328551   5.234   2.955   2.542 -1.4982  3.3032 -1.0633
   75MOL   H28428552   5.456   2.652   2.477  0.3039  0.9833  0.3114
   75MOL   H28528553   5.304   2.694   2.553  0.4249 -0.0410  0.5047
   75MOL   H28628554   5.335   2.734   2.385  1.8850 -4.2830 -1.2551
   75MOL   C28728555   5.831   3.131   2.480 -0.0758 -0.3077 -0.5657
   75MOL   C28828556   5.921   3.192   2.363  0.6474  0.0284 -0.0871
   75MOL   C28928557   6.070   3.157   2.382 -0.8188 -0.1291  0.2242
   75MOL   O29028558   6.141   3.204   2.471  0.1132  0.2483 -0.3174
   75MOL   N29128559   6.123   3.070   2.290  0.1962  0.0492 -0.2154
   75MOL   C29228560   6.263   3.029   2.265 -0.5646  0.1805  0.5273
   75MOL   C29328561   6.261   2.876   2.236  0.2790  0.1739  0.1961
   75MOL   C29428562   6.324   3.110   2.149 -0.0680 -0.2073  0.0820
   75MOL   H29528563   5.742   3.195   2.482 -0.2815 -0.5758 -1.0838
   75MOL   H29628564   5.872   3.149   2.579 -0.2938 -2.2799 -0.0920
   75MOL   H29728565   5.875   3.158   2.270 -0.2029  0.1571  0.2874
   75MOL   H29828566   6.062   2.994   2.265  1.8419 -1.3224 -0.1752
   75MOL   H29928567   6.330   3.058   2.346 -1.0024  2.3177  0.1555
   75MOL   H30028568   6.209   2.853   2.143  1.4832 -0.9102 -0.2178
   75MOL   H30128569   6.357   2.825   2.236 -0.8661 -2.0375  1.0867
   75MOL   H30228570   6.205   2.821   2.311 -0.1788  0.2410 -0.0925
   75MOL   H30328571   6.433   3.098   2.148 -0.2037 -1.4599  0.1142
   75MOL   H30428572   6.272   3.087   2.056 -2.1542  2.5134  0.5284
   75MOL   H30528573   6.300   3.215   2.166  2.7647  0.8027 -1.7229
   75MOL   C30628574   5.916   3.343   2.351 -0.4051  0.1798  0.0981
   75MOL   C30728575   5.964   3.389   2.210  0.2022 -0.3425 -0.9072
   75MOL   C30828576   6.007   3.539   2.221  0.2376  0.7223 -0.1948
   75MOL   O30928577   5.936   3.616   2.285 -0.2654  0.2228  0.2300
   75MOL   N31028578   6.113   3.576   2.150 -0.0871 -0.9006 -0.2594
   75MOL   C31128579   6.165   3.707   2.171 -0.9811  1.1655 -0.3401
   75MOL   C31228580   6.315   3.706   2.135  0.3227  0.2045 -0.1141
   75MOL   C31328581   6.074   3.809   2.085 -0.3575  0.3531  0.0749
   75MOL   H31428582   5.809   3.363   2.364 -0.5094  0.5256 -1.1932
   75MOL   H31528583   5.972   3.395   2.429 -0.7469  0.1833  0.3457
   75MOL   H31628584   6.049   3.324   2.189  0.1457 -0.9680  0.6901
   75MOL   H31728585   6.163   3.513   2.089  0.5950 -2.0042  1.4197
   75MOL   H31828586   6.159   3.731   2.278 -0.2114 -1.3869  0.2897
   75MOL   H31928587   6.364   3.802   2.154 -1.4174  1.2456 -0.7453
   75MOL   H32028588   6.331   3.685   2.029 -1.4695 -1.8359 -0.0052
   75MOL   H32128589   6.359   3.627   2.196 -2.0666 -0.6599  0.5278
   75MOL   H32228590   6.067   3.795   1.977 -0.0757 -0.8562  0.2079
   75MOL   H32328591   6.111   3.911   2.096 -0.0296  0.2734 -0.2842
   75MOL   H32428592   5.974   3.825   2.125 -0.6924 -3.1966  0.8516
   75MOL   C32528593   5.862   3.382   2.096 -0.2327  0.1205  0.4263
   75MOL   C32628594   5.915   3.307   1.967 -0.2545  0.3456  0.0768
   75MOL   C32728595   6.055   3.360   1.902  0.3305  0.1084 -0.3587
   75MOL   O32828596   6.160   3.356   1.966  0.0098  0.4250 -0.5530
   75MOL   N32928597   6.049   3.392   1.771  0.5771 -0.0213 -0.6804
   75MOL   C33028598   6.163   3.422   1.687 -0.7829  0.2414  0.2971
   75MOL   C33128599   6.129   3.542   1.605  0.1352  0.6850  0.2926
   75MOL   C33228600   6.192   3.293   1.599  0.7253 -0.0920 -0.0500
   75MOL   H33328601   5.838   3.484   2.068 -1.1008  0.0844  1.0163
   75MOL   H33428602   5.765   3.346   2.133 -0.9414  1.5563  0.0158
   75MOL   H33528603   5.838   3.330   1.894  1.2179  1.9111 -1.0192
   75MOL   H33628604   5.963   3.388   1.720 -0.1634 -0.3884  0.5617
   75MOL   H33728605   6.257   3.436   1.741 -0.8263 -1.4592  0.8451
   75MOL   H33828606   6.223   3.564   1.555  1.4265 -3.2789  0.8426
   75MOL   H33928607   6.044   3.539   1.537 -0.3981  1.4774  0.9058
   75MOL   H34028608   6.121   3.628   1.672  1.5176 -0.1934  1.6100
   75MOL   H34128609   6.093   3.268   1.560 -0.2409  1.5490  1.2999
   75MOL   H34228610   6.242   3.216   1.657  0.2837  0.5892  1.2513
   75MOL   H34328611   6.256   3.318   1.514 -1.0905  0.9430 -1.1529
   75MOL   C34428612   5.915   3.150   1.982  0.7231  0.0070  0.6953
   75MOL   C34528613   5.775   3.083   2.004 -0.4905  0.4022  0.0569
   75MOL   C34628614   5.674   3.130   1.900 -0.8875 -0.1705 -0.9730
   75MOL   O34728615   5.692   3.103   1.783 -0.0353  0.1780 -0.4700
   75MOL   N34828616   5.573   3.197   1.950  0.3960  0.0330  0.0567
   75MOL   C34928617   5.469   3.273   1.875  0.0073 -0.1228  0.3855
   75MOL   C35028618   5.335   3.221   1.922  0.9572  0.4482 -0.0622
   75MOL   C35128619   5.476   3.432   1.894 -0.3567  0.0713 -0.1321
   75MOL   H35228620   5.977   3.128   2.069  0.9748 -2.2693 -0.0090
   75MOL   H35328621   5.965   3.097   1.901 -0.7072  0.4768 -0.5096
   75MOL   H35428622   5.748   3.115   2.104 -0.9813  1.1681 -0.3101
   75MOL   H35528623   5.576   3.227   2.047 -0.4571 -1.0421  0.4349
   75MOL   H35628624   5.480   3.254   1.768  0.2094 -0.2740  0.4346
   75MOL   H35728625   5.249   3.279   1.889  1.0175 -0.5954 -2.1383
   75MOL   H35828626   5.315   3.119   1.888 -1.4088  0.9327 -0.2316
   75MOL   H35928627   5.354   3.203   2.027 -0.8292 -0.8843  0.0613
   75MOL   H36028628   5.379   3.482   1.889 -0.4279 -0.0076  0.3920
   75MOL   H36128629   5.528   3.465   1.984  0.7272 -0.8423 -0.4078
   75MOL   H36228630   5.541   3.464   1.813 -0.3180 -2.3846 -1.1015
   75MOL   C36328631   5.790   2.930   2.015 -0.1045  0.2550  0.0507
   75MOL   C36428632   5.667   2.841   1.987  0.3181  0.3734 -0.6558
   75MOL   C36528633   5.551   2.844   2.088 -0.2618  1.2261  0.0101
   75MOL   O36628634   5.575   2.831   2.209 -0.3508  0.0565 -0.1473
   75MOL   N36728635   5.425   2.871   2.044  0.8865  0.2715  1.0407
   75MOL   C36828636   5.296   2.827   2.112 -0.4287 -0.3617  0.4486
   75MOL   C36928637   5.184   2.888   2.039 -0.2960  0.2677 -0.2384
   75MOL   C37028638   5.281   2.673   2.127  0.0546  0.5133  0.3135
   75MOL   H37128639   5.809   2.912   2.121 -1.5903 -1.9524 -0.0385
   75MOL   H37228640   5.875   2.893   1.958 -1.8682 -2.1744 -1.0740
   75MOL   H37328641   5.689   2.734   1.997  2.9842  1.0815  1.8579
   75MOL   H37428642   5.414   2.899   1.948  0.7121 -2.3963  0.2479
   75MOL   H37528643   5.298   2.869   2.213  0.8617 -1.1030  0.7393
   75MOL   H37628644   5.202   2.996   2.044  0.9150  0.1431 -1.5184
   75MOL   H37728645   5.177   2.869   1.932 -1.3954 -1.0455  0.0566
   75MOL   H37828646   5.093   2.864   2.094  0.9984 -1.8903  1.0359
   75MOL   H37928647   5.281   2.615   2.035 -0.1354  0.3103  0.4412
   75MOL   H38028648   5.360   2.623   2.183 -1.6587 -0.2540  2.1095
   75MOL   H38128649   5.188   2.640   2.173 -1.3687  2.4313 -1.0787
   75MOL   H38228650   5.626   2.847   1.886 -1.5858 -0.0751  0.0653
   76MOL     C128651   6.908   4.109   0.803 -0.2048  0.7856  0.5029
   76MOL     C228652   6.778   4.151   0.881 -0.0848  0.7559  1.0971
   76MOL     C328653   6.713   4.279   0.837  0.0179 -0.0857  0.7285
   76MOL     O428654   6.618   4.286   0.761  0.0291  0.4983 -0.8056
   76MOL     N528655   6.768   4.391   0.877 -0.1820  0.1420 -0.3016
   76MOL     C628656   6.721   4.529   0.834  0.1366  0.4445 -0.2260
   76MOL     C728657   6.638   4.588   0.947  0.4985 -0.2249  0.0661
   76MOL     C828658   6.835   4.633   0.793  0.1644 -0.4510 -0.8249
   76MOL     H928659   6.884   4.066   0.705  0.8707 -1.3184  1.1183
   76MOL    H1028660   6.953   4.020   0.847  1.4171  0.6166 -1.4017
   76MOL    H1128661   6.797   4.174   0.986 -1.3836  3.1410  0.8442
   76MOL    H1228662   6.843   4.381   0.943  0.3716  0.2813 -0.9102
   76MOL    H1328663   6.667   4.526   0.739 -0.5130 -1.3151  0.1679
   76MOL    H1428664   6.550   4.531   0.974  0.3787  1.0418  2.4377
   76MOL    H1528665   6.604   4.689   0.921 -0.6597 -0.7603 -0.5012
   76MOL    H1628666   6.706   4.605   1.031  1.2988 -2.4456 -0.1020
   76MOL    H1728667   6.809   4.730   0.751  0.1945  1.0334  2.4177
   76MOL    H1828668   6.890   4.662   0.882 -0.1673  0.7510 -1.0063
   76MOL    H1928669   6.908   4.592   0.724  0.9097 -0.5552  0.0179
   76MOL    H2028670   6.990   4.180   0.811  2.0829 -1.6394 -0.4839
   76MOL    C2128671   6.673   4.034   0.890 -0.8806 -0.4342  0.0827
   76MOL    C2228672   6.567   4.044   1.001  0.1659  0.5249 -0.1280
   76MOL    C2328673   6.612   3.978   1.133 -0.0884 -0.6319  0.3800
   76MOL    O2428674   6.623   3.856   1.139  0.7065 -0.1089 -0.5797
   76MOL    N2528675   6.653   4.055   1.234 -0.1118 -0.1137 -0.0235
   76MOL    C2628676   6.725   4.006   1.354  0.0130 -0.3690  0.1108
   76MOL    C2728677   6.645   4.044   1.481 -0.4270  0.4429  0.7731
   76MOL    C2828678   6.870   4.048   1.363 -0.5404  1.0105  0.9226
   76MOL    H2928679   6.719   3.939   0.914  1.8649  0.5231 -1.1452
   76MOL    H3028680   6.629   4.015   0.792  1.1882 -1.4814 -0.6740
   76MOL    H3128681   6.548   4.150   1.019  0.7199  0.7609 -0.9222
   76MOL    H3228682   6.650   4.155   1.218 -2.3206  0.2864  2.5675
   76MOL    H3328683   6.728   3.897   1.362 -1.6639 -0.4117  0.4666
   76MOL    H3428684   6.609   4.146   1.491 -2.0891 -0.0795  0.2288
   76MOL    H3528685   6.705   4.024   1.570 -1.0636 -1.7234  0.7274
   76MOL    H3628686   6.560   3.976   1.480  1.7671 -2.4436 -2.9609
   76MOL    H3728687   6.873   4.156   1.348 -2.0085  1.0781  1.0402
   76MOL    H3828688   6.909   4.040   1.464  1.1245 -1.5031  0.1251
   76MOL    H3928689   6.945   4.003   1.298 -0.5047  2.2976  0.0673
   76MOL    C4028690   6.430   3.980   0.961 -0.1985  0.5996  0.4352
   76MOL    C4128691   6.348   4.048   0.853 -0.3649 -0.4113 -0.0956
   76MOL    C4228692   6.282   4.172   0.908 -0.2833 -0.3965  0.0661
   76MOL    O4328693   6.216   4.174   1.012  0.1741 -0.0219  0.2196
   76MOL    N4428694   6.281   4.274   0.826 -0.3996  0.3536 -0.0081
   76MOL    C4528695   6.241   4.409   0.853 -0.1809  0.0747  0.5175
   76MOL    C4628696   6.311   4.502   0.752  0.1451  0.2485 -0.6713
   76MOL    C4728697   6.090   4.419   0.832  0.3561  0.3687 -0.7881
   76MOL    H4828698   6.368   3.971   1.049  0.5004 -1.4063  0.7504
   76MOL    H4928699   6.456   3.879   0.931  1.3073  0.9412  0.5100
   76MOL    H5028700   6.424   4.078   0.780  0.0447  0.0557  0.5145
   76MOL    H5128701   6.326   4.254   0.738 -1.1441 -2.1330  0.1335
   76MOL    H5228702   6.277   4.432   0.953 -1.6174  1.4955  0.7313
   76MOL    H5328703   6.418   4.483   0.747 -0.0167 -1.7602  2.2981
   76MOL    H5428704   6.282   4.606   0.767 -0.8579 -0.4732  2.6054
   76MOL    H5528705   6.288   4.480   0.647  2.4601 -0.7411 -0.9893
   76MOL    H5628706   6.048   4.371   0.921  0.6619 -1.1813 -1.4521
   76MOL    H5728707   6.047   4.372   0.744 -0.3155 -0.6697  0.0779
   76MOL    H5828708   6.050   4.519   0.846 -0.3972 -0.0762  0.3341
   76MOL    C5928709   6.243   3.959   0.784  0.2773  0.5686 -0.1723
   76MOL    C6028710   6.117   3.896   0.860 -0.1103  0.3700  0.5405
   76MOL    C6128711   6.163   3.786   0.959 -0.4181 -0.2381  0.1831
   76MOL    O6228712   6.200   3.672   0.920  0.3190 -0.1206  0.1217
   76MOL    N6328713   6.163   3.814   1.089  0.1703 -0.0106  0.6801
   76MOL    C6428714   6.190   3.731   1.198 -0.2596  0.5752 -0.3694
   76MOL    C6528715   6.305   3.794   1.281  0.6163 -0.3471 -0.0900
   76MOL    C6628716   6.051   3.711   1.260 -0.0686  0.1553 -0.0240
   76MOL    H6728717   6.203   4.013   0.699 -2.6256  0.2907  0.9586
   76MOL    H6828718   6.293   3.873   0.740  0.9929  0.7792  0.2132
   76MOL    H6928719   6.070   3.979   0.914 -0.3320  1.0922 -0.7262
   76MOL    H7028720   6.128   3.906   1.108 -0.6927 -0.1116 -0.3708
   76MOL    H7128721   6.226   3.636   1.157  1.1429  1.1189 -0.4383
   76MOL    H7228722   6.395   3.820   1.226 -0.4562 -0.2287 -1.8304
   76MOL    H7328723   6.272   3.893   1.310  0.6081 -0.8626  1.7620
   76MOL    H7428724   6.325   3.722   1.361  0.2161  1.0763  1.3042
   76MOL    H7528725   5.985   3.655   1.194  0.9800 -1.9932  0.7242
   76MOL    H7628726   6.058   3.652   1.351 -1.0179 -1.5943 -1.0696
   76MOL    H7728727   6.005   3.808   1.282 -2.4227 -0.9642  0.1572
   76MOL    C7828728   6.013   3.837   0.774 -0.1154  0.2682  0.1577
   76MOL    C7928729   5.887   3.772   0.849 -0.1703  0.0520 -0.5470
   76MOL    C8028730   5.812   3.888   0.909  0.4788  0.2090  0.3059
   76MOL    O8128731   5.822   3.909   1.030 -0.1241 -0.6117  0.3974
   76MOL    N8228732   5.754   3.980   0.828 -0.0569 -0.4525 -0.4628
   76MOL    C8328733   5.713   4.117   0.879 -0.3412 -0.3070  0.4209
   76MOL    C8428734   5.826   4.221   0.845 -0.0711  0.4548 -0.2277
   76MOL    C8528735   5.581   4.149   0.805  0.3204 -0.4427  0.1338
   76MOL    H8628736   6.052   3.756   0.712  0.2848 -1.0999  2.1540
   76MOL    H8728737   5.981   3.915   0.704 -0.5680 -0.2255 -0.1903
   76MOL    H8828738   5.912   3.709   0.935  0.8303  2.5158  1.0136
   76MOL    H8928739   5.749   3.961   0.729 -3.6789 -1.7733 -0.0841
   76MOL    H9028740   5.691   4.111   0.986 -1.5764 -0.3165  0.1762
   76MOL    H9128741   5.874   4.204   0.748  0.5836  1.4496 -0.0972
   76MOL    H9228742   5.788   4.323   0.854  2.7362  1.5959 -0.8441
   76MOL    H9328743   5.902   4.226   0.923  2.0887 -1.0534 -2.1659
   76MOL    H9428744   5.589   4.146   0.697  0.2384 -1.2915  0.1504
   76MOL    H9528745   5.540   4.248   0.822  0.0057 -0.4412 -0.6411
   76MOL    H9628746   5.498   4.080   0.824  0.3085 -0.5445 -0.2899
   76MOL    C9728747   5.793   3.692   0.756 -0.4486 -0.1441 -0.2740
   76MOL    C9828748   5.812   3.539   0.756 -0.0098  0.2642 -1.0877
   76MOL    C9928749   5.748   3.481   0.879  0.5719 -0.1004  0.4070
   76MOL   O10028750   5.822   3.477   0.976  0.1234 -0.2207 -0.3680
   76MOL   N10128751   5.624   3.441   0.880 -0.5159 -0.0014 -0.5483
   76MOL   C10228752   5.567   3.353   0.989  0.5054  0.3435 -0.3743
   76MOL   C10328753   5.415   3.364   0.989 -0.9031  0.0183 -0.3948
   76MOL   C10428754   5.612   3.206   0.981  0.0314 -0.3473 -0.0233
   76MOL   H10528755   5.819   3.721   0.654 -0.8481  1.7538  0.1425
   76MOL   H10628756   5.689   3.723   0.773  0.0513  0.1728  2.4134
   76MOL   H10728757   5.748   3.509   0.672 -0.8032  2.5326 -1.3162
   76MOL   H10828758   5.566   3.477   0.805 -2.4589  1.8737  1.7669
   76MOL   H10928759   5.602   3.391   1.086  1.7366 -1.3402 -0.1401
   76MOL   H11028760   5.381   3.328   0.892  3.2457 -1.7208 -1.2832
   76MOL   H11128761   5.364   3.301   1.062 -0.0736 -0.9705 -0.6616
   76MOL   H11228762   5.389   3.470   0.998  1.0210  0.4133  0.7618
   76MOL   H11328763   5.553   3.141   1.047 -0.6324  0.6260  0.3666
   76MOL   H11428764   5.710   3.215   1.027 -0.8323 -0.9891  2.0294
   76MOL   H11528765   5.611   3.182   0.875 -2.1430 -0.5044  0.0069
   76MOL   C11628766   5.958   3.486   0.740  0.4913  0.2671 -0.3276
   76MOL   C11728767   5.980   3.330   0.726  0.3772  0.2228 -0.1740
   76MOL   C11828768   6.001   3.244   0.851 -0.4113  0.2202 -0.3006
   76MOL   O11928769   5.976   3.123   0.850  0.7696 -0.3639  0.4141
   76MOL   N12028770   6.054   3.296   0.965  0.6264 -0.5014  0.1431
   76MOL   C12128771   6.093   3.224   1.086  0.5452 -0.5721 -0.2510
   76MOL   C12228772   6.219   3.142   1.052 -0.1595  0.4426 -0.2614
   76MOL   C12328773   6.103   3.323   1.205  0.6101  0.2934 -0.8706
   76MOL   H12428774   6.013   3.525   0.826  1.0530  0.2771 -0.6905
   76MOL   H12528775   5.997   3.539   0.653  1.0836 -1.7122 -1.3177
   76MOL   H12628776   5.890   3.290   0.680  0.9191 -0.8154 -0.3520
   76MOL   H12728777   6.066   3.396   0.968 -1.6675 -0.0502 -2.6987
   76MOL   H12828778   6.009   3.156   1.106 -0.9228  0.6234 -2.1949
   76MOL   H12928779   6.300   3.203   1.012  0.5794 -1.9731 -2.6006
   76MOL   H13028780   6.196   3.070   0.973  2.2639 -2.3291  1.4713
   76MOL   H13128781   6.252   3.084   1.137  0.4157  1.3169  0.1177
   76MOL   H13228782   6.136   3.272   1.295 -1.5687 -0.3098 -0.3810
   76MOL   H13328783   6.174   3.403   1.184 -0.2444  1.3375  0.1029
   76MOL   H13428784   6.015   3.383   1.230  0.9481  1.0890 -1.5637
   76MOL   C13528785   6.098   3.311   0.623  0.1212  0.1218 -0.2407
   76MOL   C13628786   6.145   3.168   0.586  0.5467  0.2934 -0.4032
   76MOL   C13728787   6.026   3.087   0.526  0.1350  0.8049 -0.2099
   76MOL   O13828788   5.968   3.130   0.426  0.2145 -0.6957  0.6412
   76MOL   N13928789   5.998   2.969   0.590 -0.6155  0.0427 -0.0240
   76MOL   C14028790   5.876   2.891   0.575 -0.1981  0.5554  0.0340
   76MOL   C14128791   5.794   2.913   0.704 -0.5927 -0.1067  0.6477
   76MOL   C14228792   5.902   2.750   0.530 -0.4337 -0.3264 -0.0651
   76MOL   H14328793   6.186   3.358   0.666 -0.5831  0.5337  0.7561
   76MOL   H14428794   6.081   3.366   0.530 -2.7716 -1.3192 -0.6334
   76MOL   H14528795   6.181   3.113   0.673 -2.9539 -0.8321  0.4038
   76MOL   H14628796   6.057   2.952   0.670  0.4633 -0.1733 -0.8546
   76MOL   H14728797   5.809   2.929   0.499 -2.1673 -2.0750  0.3882
   76MOL   H14828798   5.852   2.872   0.787 -0.9389 -0.6818  0.6089
   76MOL   H14928799   5.773   3.019   0.714 -2.2335 -0.3869  0.2865
   76MOL   H15028800   5.695   2.867   0.706  0.1282 -1.6499  2.1366
   76MOL   H15128801   5.912   2.752   0.422  1.3128  0.7955  0.1031
   76MOL   H15228802   5.822   2.679   0.554 -1.0566  0.6109  0.6529
   76MOL   H15328803   5.991   2.710   0.579  0.5093  2.0947  0.2525
   76MOL   C15428804   6.248   3.181   0.477  0.3390  0.5644  0.5486
   76MOL   C15528805   6.327   3.058   0.441  0.1667  0.2750 -0.4825
   76MOL   C15628806   6.476   3.100   0.423  0.0930 -0.1487  0.4876
   76MOL   O15728807   6.513   3.214   0.387  0.0550  0.0139 -0.8407
   76MOL   N15828808   6.559   2.996   0.439  0.2331  0.1100  0.1391
   76MOL   C15928809   6.700   3.010   0.418  0.0421 -0.0210  1.0719
   76MOL   C16028810   6.753   2.910   0.311  0.0405 -0.4808  0.5972
   76MOL   C16128811   6.776   3.006   0.550 -0.2516 -0.3945  0.3906
   76MOL   H16228812   6.321   3.249   0.523 -0.3494  1.5621  0.1886
   76MOL   H16328813   6.205   3.218   0.384 -0.7455  1.6333  1.4474
   76MOL   H16428814   6.339   2.993   0.527  2.3491  0.4086 -0.6455
   76MOL   H16528815   6.514   2.912   0.473 -4.4202  1.1018 -3.0627
   76MOL   H16628816   6.722   3.105   0.369 -2.3611  0.4330  0.8033
   76MOL   H16728817   6.726   2.936   0.209  1.1054 -0.0112  0.4247
   76MOL   H16828818   6.860   2.891   0.305 -0.0025 -0.0125 -2.5252
   76MOL   H16928819   6.708   2.812   0.325 -2.1615  0.1972 -1.4808
   76MOL   H17028820   6.882   3.028   0.544 -0.3600 -0.6163 -2.6149
   76MOL   H17128821   6.766   2.908   0.598 -0.0944  0.4706  2.2674
   76MOL   H17228822   6.736   3.073   0.627  0.8050  2.2919 -1.3248
   76MOL   C17328823   6.271   2.976   0.319  0.0637 -0.1886  0.3175
   76MOL   C17428824   6.290   3.045   0.180  0.6854  0.0204  0.6640
   76MOL   C17528825   6.419   3.015   0.106 -0.2446 -0.3055  0.0951
   76MOL   O17628826   6.467   2.904   0.103 -0.4447  0.0741 -0.1216
   76MOL   N17728827   6.469   3.109   0.024  0.2395  0.0484  0.4695
   76MOL   C17828828   6.581   3.095   7.773 -0.3505  0.7038  0.7919
   76MOL   C17928829   6.702   3.165   7.825  0.3675  0.2297  0.1937
   76MOL   C18028830   6.541   3.121   7.630  0.3019 -0.8993  0.3375
   76MOL   H18128831   6.166   2.958   0.338  0.2421 -1.0896  0.4780
   76MOL   H18228832   6.329   2.885   0.306 -1.0324 -0.6493 -1.3985
   76MOL   H18328833   6.296   3.153   0.194  0.0397  0.0386  0.8196
   76MOL   H18428834   6.423   3.199   0.024 -0.4854 -0.2958  2.0727
   76MOL   H18528835   6.609   2.990   7.782  0.3356  0.6837 -1.1475
   76MOL   H18628836   6.735   3.139   0.089 -0.0662  2.4709  0.9448
   76MOL   H18728837   6.685   3.272   0.001 -1.7422  0.2161 -2.3139
   76MOL   H18828838   6.790   3.156   7.761  0.5643 -0.1992  0.5212
   76MOL   H18928839   6.623   3.112   7.558 -0.4264  1.8383 -0.8858
   76MOL   H19028840   6.492   3.219   7.633 -0.2600 -1.1918  0.8977
   76MOL   H19128841   6.458   3.055   7.606  0.5159 -0.8525 -0.5334
   76MOL   C19228842   6.173   3.005   0.080  0.4529 -0.3873 -0.5177
   76MOL   C19328843   6.161   2.855   0.038  0.2969  0.3825  0.7595
   76MOL   C19428844   6.204   2.827   7.729  0.4794  0.0140 -0.5169
   76MOL   O19528845   6.124   2.848   7.639  0.0116 -0.9192 -0.4307
   76MOL   N19628846   6.327   2.779   7.703  0.3345 -0.3680 -0.7757
   76MOL   C19728847   6.383   2.739   7.574  0.7357 -0.0489  0.9015
   76MOL   C19828848   6.530   2.751   7.566  0.7832  0.1943  0.1577
   76MOL   C19928849   6.341   2.602   7.550  0.1907  0.3899  0.7498
   76MOL   H20028850   6.168   3.069   7.828 -1.2545 -1.2343 -1.0563
   76MOL   H20128851   6.079   3.021   0.133 -0.0050 -2.3094 -0.7386
   76MOL   H20228852   6.237   2.802   0.096  0.8873  0.8463  0.4219
   76MOL   H20328853   6.381   2.766   7.788  0.3051  3.5039 -0.0868
   76MOL   H20428854   6.334   2.793   7.493  0.5546  0.8443  1.5951
   76MOL   H20528855   6.554   2.734   7.461  0.3681  2.8359 -0.3932
   76MOL   H20628856   6.585   2.682   7.630  2.6525  0.3906 -1.1987
   76MOL   H20728857   6.551   2.854   7.594 -0.2267 -0.0037  1.7104
   76MOL   H20828858   6.233   2.604   7.535 -0.0324  1.1249  2.3746
   76MOL   H20928859   6.366   2.524   7.622 -1.8554 -1.0261  0.0003
   76MOL   H21028860   6.382   2.555   7.460 -1.6760 -1.4174  0.7789
   76MOL   C21128861   6.024   2.792   0.063 -0.4240 -0.1700 -0.3557
   76MOL   C21228862   5.995   2.640   0.016 -0.0792 -0.6394 -0.5125
   76MOL   C21328863   6.084   2.539   0.098 -0.5564 -0.6052  0.3678
   76MOL   O21428864   6.088   2.545   0.223  0.6630 -0.0989 -0.1142
   76MOL   N21528865   6.148   2.439   0.029 -0.4006 -0.0794  0.6086
   76MOL   C21628866   6.208   2.314   0.082  0.3326 -0.0746 -0.4891
   76MOL   C21728867   6.349   2.299   0.024  0.5573  0.1274 -0.2117
   76MOL   C21828868   6.115   2.189   0.065 -0.2925  0.6253 -0.2202
   76MOL   H21928869   5.946   2.849   0.011 -2.2431 -0.5622  1.8718
   76MOL   H22028870   6.002   2.774   0.168 -0.8394  0.8719 -0.2596
   76MOL   H22128871   6.039   2.632   7.752 -2.0774  0.9769 -1.5572
   76MOL   H22228872   6.122   2.439   7.768  1.2479 -1.1003  0.1355
   76MOL   H22328873   6.223   2.344   0.186 -2.5230  1.2926 -0.4390
   76MOL   H22428874   6.339   2.268   7.757  0.8108 -0.9464  0.0776
   76MOL   H22528875   6.419   2.383   0.028  1.1407 -0.3213 -0.8607
   76MOL   H22628876   6.393   2.218   0.082  1.9237  0.9022 -0.1343
   76MOL   H22728877   6.152   2.106   0.125  0.3376  2.2136  1.6356
   76MOL   H22828878   6.118   2.152   7.799 -0.1025 -0.9731  0.3523
   76MOL   H22928879   6.009   2.204   0.088  0.1318  0.7130  1.8031
   76MOL   C23028880   5.842   2.619   0.024 -0.1762 -0.2881  0.4345
   76MOL   C23128881   5.795   2.500   7.790 -0.5953 -0.0025 -0.3694
   76MOL   C23228882   5.653   2.453   7.823 -0.0841 -0.0317 -0.9294
   76MOL   O23328883   5.568   2.538   0.001 -0.5651 -0.1800  0.5511
   76MOL   N23428884   5.626   2.320   7.827 -0.0568 -0.3124  0.0949
   76MOL   C23528885   5.493   2.258   7.836 -0.6153  0.0928 -0.6859
   76MOL   C23628886   5.478   2.129   7.758  0.1015  0.5565  0.8454
   76MOL   C23728887   5.472   2.237   0.150  1.0962  0.2261  0.1958
   76MOL   H23828888   5.789   2.703   7.815  1.5407  0.1511 -0.7922
   76MOL   H23928889   5.818   2.623   0.131  0.9093  2.5888  0.6005
   76MOL   H24028890   5.863   2.419   7.816 -0.0099  1.1297  1.7597
   76MOL   H24128891   5.703   2.260   7.800 -1.0065 -0.9884 -1.1698
   76MOL   H24228892   5.416   2.327   7.800  0.1885  0.2776 -2.0759
   76MOL   H24328893   5.562   2.060   7.755 -2.2293 -2.2949 -0.4179
   76MOL   H24428894   5.388   2.071   7.772 -0.1879  0.4563 -1.2756
   76MOL   H24528895   5.480   2.168   7.656  1.5615 -2.7950 -0.4693
   76MOL   H24628896   5.370   2.205   0.173  0.9188  1.0212  0.5417
   76MOL   H24728897   5.468   2.334   0.199 -1.0032 -0.4689  1.4757
   76MOL   H24828898   5.549   2.173   0.192  0.7559 -0.9432 -0.8987
   76MOL   C24928899   5.801   2.525   7.635  0.0828  0.1184  0.0846
   76MOL   C25028900   5.808   2.399   7.542  0.1263 -0.1427  0.6391
   76MOL   C25128901   5.914   2.299   7.575 -0.4272  0.6220  0.4976
   76MOL   O25228902   6.013   2.341   7.632  0.0260  0.5535 -0.1944
   76MOL   N25328903   5.878   2.171   7.551  0.2980  0.3005  0.2712
   76MOL   C25428904   5.962   2.050   7.545 -0.4878  0.5986  0.1030
   76MOL   C25528905   5.927   1.952   7.657 -0.4550 -0.0977  0.1373
   76MOL   C25628906   5.948   1.991   7.405 -0.7455 -0.0806 -1.3079
   76MOL   H25728907   5.888   2.586   7.609 -0.4167  0.3498 -1.0464
   76MOL   H25828908   5.714   2.580   7.602  0.7315  0.5258 -0.9793
   76MOL   H25928909   5.711   2.354   7.563 -0.1012 -0.5823 -1.2780
   76MOL   H26028910   5.785   2.147   7.520  0.3050  0.8521 -0.1978
   76MOL   H26128911   6.070   2.061   7.557 -0.7358  2.2385  0.9691
   76MOL   H26228912   5.831   1.983   7.699 -0.9464 -0.1013 -0.9687
   76MOL   H26328913   5.904   1.851   7.625  0.6374  0.7364 -3.4809
   76MOL   H26428914   5.990   1.953   7.746  0.2313 -0.3206 -0.3429
   76MOL   H26528915   5.851   1.948   7.380 -0.4416 -0.9207 -1.0627
   76MOL   H26628916   5.978   2.060   7.325  0.9531 -3.3978 -3.6661
   76MOL   H26728917   6.010   1.903   7.388  0.2630  0.2643  0.4773
   76MOL   C26828918   5.819   2.448   7.396  0.1647  0.2612  0.8559
   76MOL   C26928919   5.763   2.353   7.283  0.9474 -0.0755  0.3068
   76MOL   C27028920   5.616   2.341   7.303 -0.3883  0.4849 -0.1157
   76MOL   O27128921   5.569   2.230   7.334 -0.4098 -0.4665 -0.0161
   76MOL   N27228922   5.544   2.445   7.274 -0.1317 -0.5822  0.1402
   76MOL   C27328923   5.400   2.459   7.272  0.3976 -0.0885  0.9492
   76MOL   C27428924   5.353   2.565   7.385  0.1448 -0.6769  0.0305
   76MOL   C27528925   5.354   2.482   7.128 -0.2738  0.4261  0.4992
   76MOL   H27628926   5.767   2.543   7.393  1.4774  0.9506 -0.9909
   76MOL   H27728927   5.924   2.459   7.372  0.2901 -0.4308  1.0814
   76MOL   H27828928   5.810   2.256   7.295 -0.6048 -0.7171  1.4562
   76MOL   H27928929   5.603   2.525   7.255 -0.5236 -0.5135 -0.7864
   76MOL   H28028930   5.348   2.365   7.290 -0.0759  0.0580  0.3558
   76MOL   H28128931   5.388   2.532   7.483 -0.0138 -2.7634 -0.5785
   76MOL   H28228932   5.393   2.662   7.357 -1.2870  0.5097  1.8926
   76MOL   H28328933   5.245   2.577   7.372 -0.1940 -0.7777  2.3891
   76MOL   H28428934   5.247   2.498   7.121 -0.1392  0.8663 -0.6574
   76MOL   H28528935   5.399   2.575   7.092 -0.7545  1.3791  2.2994
   76MOL   H28628936   5.396   2.408   7.060  2.3290  3.0298 -0.8508
   76MOL   C28728937   5.805   2.418   7.138 -0.4618  0.2761  0.4605
   76MOL   C28828938   5.761   2.338   7.014 -0.4147 -0.4992  0.0850
   76MOL   C28928939   5.829   2.198   7.002 -0.1972 -0.2085 -0.2166
   76MOL   O29028940   5.949   2.187   6.984  0.0784 -0.2558  0.0957
   76MOL   N29128941   5.743   2.096   7.014 -0.1790 -0.5333  0.2682
   76MOL   C29228942   5.787   1.954   6.990  0.1382  0.3161 -0.0968
   76MOL   C29328943   5.677   1.871   7.041 -0.1316  0.3034  0.3979
   76MOL   C29428944   5.804   1.929   6.845  0.0306  0.0497 -0.4616
   76MOL   H29528945   5.791   2.526   7.132 -0.1891  0.3213  0.6112
   76MOL   H29628946   5.913   2.414   7.142 -0.2855 -0.7869 -3.3245
   76MOL   H29728947   5.654   2.320   7.021 -0.1538 -1.7844  0.8508
   76MOL   H29828948   5.643   2.110   7.006 -0.2093 -0.7477  0.2805
   76MOL   H29928949   5.873   1.926   7.050  0.3345 -0.4143 -0.7094
   76MOL   H30028950   5.699   1.776   6.992 -1.0053 -2.1251  4.5621
   76MOL   H30128951   5.676   1.851   7.148  2.9717  1.3572  0.6835
   76MOL   H30228952   5.588   1.910   6.993 -1.1667 -3.3926 -0.8271
   76MOL   H30328953   5.712   1.934   6.787  0.8402  1.7451 -1.6515
   76MOL   H30428954   5.880   1.993   6.800 -0.8140  2.2247  1.1854
   76MOL   H30528955   5.830   1.825   6.824 -2.3561 -0.6728 -0.0267
   76MOL   C30628956   5.773   2.428   6.892 -0.2261 -0.1377 -0.6388
   76MOL   C30728957   5.703   2.393   6.755 -0.0081 -0.3711 -0.1881
   76MOL   C30828958   5.554   2.338   6.759  0.3285 -0.0062  0.2055
   76MOL   O30928959   5.534   2.220   6.794  0.0319 -0.0394 -0.1760
   76MOL   N31028960   5.455   2.424   6.718 -0.1744  0.6631  0.7686
   76MOL   C31128961   5.311   2.405   6.684 -0.6766 -0.2424  0.3128
   76MOL   C31228962   5.250   2.535   6.624 -0.2325 -0.0126 -0.3441
   76MOL   C31328963   5.297   2.287   6.589 -0.2081  0.0183 -0.1086
   76MOL   H31428964   5.736   2.523   6.927  0.6039 -1.0007  2.7329
   76MOL   H31528965   5.878   2.444   6.864 -0.9543  1.7210 -2.4236
   76MOL   H31628966   5.686   2.491   6.711  0.2454 -0.0940  0.3179
   76MOL   H31728967   5.477   2.514   6.677 -0.3079 -0.3657 -1.5998
   76MOL   H31828968   5.258   2.374   6.775 -1.1192  2.8466  1.1540
   76MOL   H31928969   5.220   2.610   6.697 -1.4075 -1.1352  0.3626
   76MOL   H32028970   5.150   2.511   6.586 -0.7626  0.5259  0.6809
   76MOL   H32128971   5.306   2.588   6.548 -2.2336  2.8073  0.0828
   76MOL   H32228972   5.315   2.191   6.637 -0.3655  0.1636  0.2407
   76MOL   H32328973   5.379   2.288   6.517  0.6266  1.9114  0.8347
   76MOL   H32428974   5.199   2.275   6.542 -0.6430 -1.5053  1.1290
   76MOL   C32528975   5.795   2.306   6.664 -0.5529 -0.4878  0.5940
   76MOL   C32628976   5.736   2.251   6.525  0.4506 -0.0971 -0.0232
   76MOL   C32728977   5.694   2.367   6.426 -0.3217 -0.3495  0.6484
   76MOL   O32828978   5.733   2.485   6.446  0.9652  0.1587  0.4384
   76MOL   N32928979   5.617   2.332   6.327  0.5051 -0.7442 -0.0548
   76MOL   C33028980   5.569   2.424   6.223  0.0462  0.0499  0.8462
   76MOL   C33128981   5.433   2.481   6.273 -0.5264 -0.5864 -0.3741
   76MOL   C33228982   5.556   2.353   6.090  0.4873  0.2611 -0.3767
   76MOL   H33328983   5.828   2.220   6.721  0.0578 -1.1497 -0.7346
   76MOL   H33428984   5.884   2.365   6.644 -2.5275  2.7909  1.0934
   76MOL   H33528985   5.642   2.200   6.545  2.1936 -3.1226  0.7218
   76MOL   H33628986   5.599   2.233   6.321 -0.8413 -0.5575  0.8801
   76MOL   H33728987   5.634   2.510   6.204 -1.6504  1.3033  0.6261
   76MOL   H33828988   5.454   2.531   6.367  2.4682 -3.0583  0.3611
   76MOL   H33928989   5.388   2.548   6.200 -2.1008 -1.6149 -0.3727
   76MOL   H34028990   5.373   2.391   6.289 -0.4577 -0.9392 -1.9842
   76MOL   H34128991   5.645   2.291   6.073  1.1854  0.9789  0.6210
   76MOL   H34228992   5.535   2.416   6.003 -0.8561 -2.8063 -2.3694
   76MOL   H34328993   5.468   2.289   6.091  1.7343 -1.4761  0.8125
   76MOL   C34428994   5.835   2.155   6.449 -0.5878 -0.1335  0.0324
   76MOL   C34528995   5.798   2.009   6.444  0.8795  0.9311  1.0730
   76MOL   C34628996   5.655   1.986   6.394 -0.4992 -0.0740 -0.1326
   76MOL   O34728997   5.607   2.053   6.302  0.0741 -0.1870  0.0454
   76MOL   N34828998   5.584   1.900   6.466 -0.2668  0.6575 -0.1037
   76MOL   C34928999   5.446   1.865   6.440  0.0368 -0.1998 -1.1737
   76MOL   C35029000   5.430   1.743   6.357 -0.3037 -0.8232 -0.4364
   76MOL   C35129001   5.376   1.862   6.572  0.3929 -0.2446  0.4821
   76MOL   H35229002   5.934   2.176   6.489 -1.5185  1.2203  1.6887
   76MOL   H35329003   5.847   2.181   6.344  0.0578  0.8579  0.3437
   76MOL   H35429004   5.813   1.975   6.546 -0.2385 -0.2928  0.8418
   76MOL   H35529005   5.636   1.842   6.531  0.6548  1.2527 -0.3034
   76MOL   H35629006   5.399   1.945   6.383 -0.4687  0.3066 -0.0638
   76MOL   H35729007   5.457   1.662   6.425 -0.2792  1.2379  2.0851
   76MOL   H35829008   5.327   1.723   6.326 -0.6218 -0.4968  0.4126
   76MOL   H35929009   5.492   1.753   6.267  0.3563  2.4314  0.3186
   76MOL   H36029010   5.414   1.782   6.636 -0.1684 -0.4704  0.5434
   76MOL   H36129011   5.380   1.959   6.622  0.2601  1.2571 -2.3153
   76MOL   H36229012   5.270   1.841   6.556  0.7637 -0.4207 -1.9629
   76MOL   C36329013   5.905   1.940   6.353 -0.5209  0.3648  0.2603
   76MOL   C36429014   5.888   1.793   6.324 -0.0104  0.1138  0.0508
   76MOL   C36529015   5.896   1.710   6.455  0.6735  0.4159  0.1376
   76MOL   O36629016   5.798   1.701   6.523 -0.0600  0.1502 -0.9714
   76MOL   N36729017   6.010   1.650   6.477 -0.1616  0.2139 -0.8333
   76MOL   C36829018   6.040   1.550   6.578  0.2045 -0.4710 -0.1039
   76MOL   C36929019   6.056   1.613   6.719 -0.6603  0.2498 -0.5786
   76MOL   C37029020   5.943   1.433   6.578  0.0557  0.0839  0.0114
   76MOL   H37129021   6.008   1.954   6.386  0.0135 -0.0041 -1.2206
   76MOL   H37229022   5.909   1.985   6.254 -0.8422  0.1405  0.1434
   76MOL   H37329023   5.966   1.749   6.263 -0.7034 -1.7489  0.4863
   76MOL   H37429024   6.078   1.655   6.403  2.1403  2.8713  1.3445
   76MOL   H37529025   6.134   1.506   6.545  0.2822 -0.9515  0.7427
   76MOL   H37629026   6.084   1.532   6.787  1.0329  2.0198  0.8767
   76MOL   H37729027   6.130   1.688   6.743 -0.4673  0.6403 -2.3478
   76MOL   H37829028   5.963   1.661   6.749 -0.0304  2.0525 -1.4326
   76MOL   H37929029   5.977   1.362   6.652 -0.8886  1.1500  1.4958
   76MOL   H38029030   5.844   1.471   6.604  0.0793 -0.4050  0.8144
   76MOL   H38129031   5.953   1.383   6.482  0.2869 -0.0153  0.0878
   76MOL   H38229032   5.790   1.774   6.279  0.1615  0.8367 -0.6295
   77MOL     C129033   2.127   1.800   1.960 -0.1168  0.0867 -0.2504
   77MOL     C229034   2.117   1.642   1.976  0.4960  0.5285  0.6032
   77MOL     C329035   1.983   1.591   1.929 -0.0879  0.4512  0.3312
   77MOL     O429036   1.949   1.601   1.809 -0.1978  0.3703  0.4645
   77MOL     N529037   1.908   1.536   2.024 -0.2753  0.0062 -0.5159
   77MOL     C629038   1.783   1.465   1.993 -0.0854 -0.8348 -1.0695
   77MOL     C729039   1.736   1.371   2.102  0.0489 -0.8782 -0.6255
   77MOL     C829040   1.668   1.568   1.973 -0.0273  1.1904  0.5328
   77MOL     H929041   2.164   1.836   1.863  0.9762 -0.5599 -0.0825
   77MOL    H1029042   2.195   1.844   2.034  1.2727  0.4515 -1.6929
   77MOL    H1129043   2.112   1.613   2.081 -2.1618  1.8667  0.8734
   77MOL    H1229044   1.949   1.537   2.116 -0.4958 -1.1722 -0.3996
   77MOL    H1329045   1.799   1.406   1.903  0.4164 -1.0315 -0.8516
   77MOL    H1429046   1.647   1.313   2.076 -0.6585  0.1384 -0.5122
   77MOL    H1529047   1.720   1.429   2.193 -0.9520 -3.2142  0.7435
   77MOL    H1629048   1.811   1.294   2.119  1.6664  1.0482  1.2189
   77MOL    H1729049   1.636   1.617   2.065 -2.3958 -1.7850  1.3889
   77MOL    H1829050   1.708   1.642   1.904  1.8296  0.9411  1.3346
   77MOL    H1929051   1.580   1.525   1.923  0.3612  2.2679 -1.1374
   77MOL    H2029052   2.032   1.849   1.982 -1.7126 -2.3021 -1.6305
   77MOL    C2129053   2.236   1.556   1.916 -0.7520 -0.5525 -0.5407
   77MOL    C2229054   2.254   1.569   1.766 -0.3693  0.1323  0.1784
   77MOL    C2329055   2.269   1.432   1.710  0.0556  0.3033 -0.4010
   77MOL    O2429056   2.364   1.361   1.723 -0.1158 -0.1078 -0.2216
   77MOL    N2529057   2.169   1.380   1.638 -0.1685  0.2142  0.7342
   77MOL    C2629058   2.162   1.250   1.564 -0.3065  0.6737 -0.4669
   77MOL    C2729059   2.267   1.248   1.451 -0.6738 -0.2121 -0.2607
   77MOL    C2829060   2.023   1.209   1.511 -0.1104  0.2421 -0.0210
   77MOL    H2929061   2.221   1.453   1.946 -2.5742  0.1301  0.9999
   77MOL    H3029062   2.324   1.581   1.976 -0.7951  0.0184 -0.7096
   77MOL    H3129063   2.167   1.610   1.714  1.8805  0.8796 -3.2004
   77MOL    H3229064   2.091   1.443   1.627  0.2941  0.6786  0.1242
   77MOL    H3329065   2.183   1.167   1.631 -0.3823 -0.0013 -1.2696
   77MOL    H3429066   2.371   1.253   1.482 -0.3132 -1.0811 -1.2832
   77MOL    H3529067   2.241   1.330   1.384 -1.9749 -1.1441 -0.9157
   77MOL    H3629068   2.267   1.153   1.398  0.1377 -1.0608  1.2105
   77MOL    H3729069   2.002   1.112   1.466  1.1094 -0.6608  1.3145
   77MOL    H3829070   1.971   1.199   1.607  1.5840  0.0878  0.9009
   77MOL    H3929071   1.979   1.286   1.449  0.2413  1.2015  0.8982
   77MOL    C4029072   2.375   1.661   1.730 -0.5494  0.0609 -0.1209
   77MOL    C4129073   2.403   1.705   1.583 -0.3047 -0.0860 -0.0174
   77MOL    C4229074   2.539   1.778   1.572 -1.0175 -0.5835 -0.4440
   77MOL    O4329075   2.601   1.821   1.669 -0.0016 -0.3543 -0.4817
   77MOL    N4429076   2.580   1.801   1.443 -0.0965  0.5113  0.1511
   77MOL    C4529077   2.699   1.874   1.400 -0.1389  0.1228 -0.7700
   77MOL    C4629078   2.802   1.770   1.366  0.4797  0.4396  0.5642
   77MOL    C4729079   2.667   1.973   1.292  0.5187  0.8169 -0.0138
   77MOL    H4829080   2.470   1.631   1.775 -0.0911  0.5065 -0.7827
   77MOL    H4929081   2.367   1.755   1.786  1.9235  0.3905 -0.2320
   77MOL    H5029082   2.420   1.613   1.526 -2.7349 -0.6727  0.1385
   77MOL    H5129083   2.518   1.777   1.367  2.5529 -3.2572 -0.9302
   77MOL    H5229084   2.727   1.926   1.492 -2.3435 -0.3148  0.1929
   77MOL    H5329085   2.895   1.814   1.330 -0.4195  0.9499 -1.2236
   77MOL    H5429086   2.757   1.701   1.294  1.4412  0.1921  0.1978
   77MOL    H5529087   2.821   1.710   1.454 -0.4826  0.3791  0.7364
   77MOL    H5629088   2.759   1.996   1.239  0.0876  0.3790 -0.9626
   77MOL    H5729089   2.617   2.062   1.331 -0.6455  0.2654 -0.2114
   77MOL    H5829090   2.603   1.920   1.221 -0.7512 -0.5517  2.1066
   77MOL    C5929091   2.285   1.793   1.528 -0.1669  0.2897  0.2441
   77MOL    C6029092   2.200   1.729   1.417 -0.6160 -0.0881 -0.4524
   77MOL    C6129093   2.289   1.701   1.296  0.3342  0.1458  0.4437
   77MOL    O6229094   2.366   1.786   1.252  0.6132  0.4681  0.5212
   77MOL    N6329095   2.283   1.584   1.239  0.1757  0.0504  0.3385
   77MOL    C6429096   2.359   1.531   1.129  1.0013 -0.8134  0.0267
   77MOL    C6529097   2.500   1.491   1.166  0.5147  0.2492  0.3566
   77MOL    C6629098   2.283   1.423   1.054  0.2834 -0.0319  0.3577
   77MOL    H6729099   2.212   1.823   1.604  0.7189 -0.3415  1.3503
   77MOL    H6829100   2.323   1.887   1.487  1.7448 -0.6856 -0.2710
   77MOL    H6929101   2.171   1.634   1.463 -0.9470  0.3359  0.2354
   77MOL    H7029102   2.213   1.524   1.280  0.1704  1.2034  2.0998
   77MOL    H7129103   2.362   1.618   1.064 -0.5315  1.1149  2.4531
   77MOL    H7229104   2.506   1.412   1.240  0.5110  0.1041  0.2009
   77MOL    H7329105   2.553   1.471   1.073  0.4516 -1.2821  0.6388
   77MOL    H7429106   2.545   1.583   1.202  2.1080 -1.5624  3.1238
   77MOL    H7529107   2.320   1.385   0.959 -0.9038 -0.7822  0.1782
   77MOL    H7629108   2.263   1.329   1.105 -0.0029 -2.3119 -3.7299
   77MOL    H7729109   2.185   1.460   1.024 -0.3185 -1.1578  0.8833
   77MOL    C7829110   2.076   1.818   1.386  0.1178 -0.0965  0.1471
   77MOL    C7929111   1.974   1.752   1.298 -0.0792 -0.2812  0.0349
   77MOL    C8029112   1.925   1.615   1.349 -0.4698  0.8991 -0.6426
   77MOL    O8129113   1.980   1.507   1.304  0.2760 -0.2388  0.1140
   77MOL    N8229114   1.826   1.614   1.437 -0.3429 -0.5360  0.6237
   77MOL    C8329115   1.759   1.507   1.504 -0.0247  0.2270  0.1708
   77MOL    C8429116   1.667   1.557   1.608  0.3140 -0.5604  0.4787
   77MOL    C8529117   1.692   1.407   1.411 -0.0772 -0.4419  0.6151
   77MOL    H8629118   2.105   1.913   1.342  0.4866 -1.3232 -2.3636
   77MOL    H8729119   2.026   1.840   1.481  1.0694 -1.6578  1.0339
   77MOL    H8829120   2.030   1.744   1.205  2.2440 -0.2047  1.3669
   77MOL    H8929121   1.794   1.707   1.461  4.5226  1.4265  0.2231
   77MOL    H9029122   1.838   1.453   1.556  0.6880  0.3599 -0.7470
   77MOL    H9129123   1.643   1.478   1.679 -1.1103 -1.2542 -0.7592
   77MOL    H9229124   1.715   1.639   1.661  0.7773  0.5291 -1.5888
   77MOL    H9329125   1.576   1.603   1.569  0.5606  0.0194  0.5836
   77MOL    H9429126   1.747   1.376   1.322 -0.8932 -3.0886  0.9645
   77MOL    H9529127   1.597   1.456   1.390  1.2176  1.1639 -1.7282
   77MOL    H9629128   1.667   1.315   1.465 -0.7601 -1.0864 -0.7653
   77MOL    C9729129   1.858   1.842   1.251 -0.3441 -0.6656  0.2382
   77MOL    C9829130   1.782   1.793   1.126  1.1814 -0.8205 -0.2724
   77MOL    C9929131   1.868   1.810   0.993 -0.1372  0.0775  0.3929
   77MOL   O10029132   1.924   1.919   0.974 -0.0380  0.1591 -0.6233
   77MOL   N10129133   1.855   1.713   0.902  0.5396  0.3195 -0.0029
   77MOL   C10229134   1.908   1.718   0.766  0.1289 -0.8042 -0.0165
   77MOL   C10329135   2.046   1.647   0.757 -0.0898 -0.1317  0.4013
   77MOL   C10429136   1.801   1.664   0.675 -0.0800 -0.4990 -0.0400
   77MOL   H10529137   1.897   1.940   1.222 -0.4033  0.1197  2.6956
   77MOL   H10629138   1.780   1.857   1.325  1.4709  0.1385  2.0187
   77MOL   H10729139   1.773   1.686   1.147 -0.6047 -0.5812  0.2595
   77MOL   H10829140   1.812   1.625   0.929  2.0934 -0.7617 -0.9533
   77MOL   H10929141   1.918   1.822   0.736  1.1651 -1.0645 -0.5885
   77MOL   H11029142   2.122   1.683   0.827 -0.9270  3.6172 -0.5115
   77MOL   H11129143   2.048   1.538   0.769  1.3736 -0.2124 -0.3782
   77MOL   H11229144   2.098   1.665   0.663 -0.2516  0.2126  0.3793
   77MOL   H11329145   1.798   1.556   0.694  1.5519 -0.8363 -1.5422
   77MOL   H11429146   1.826   1.675   0.569 -1.7618 -1.2744 -0.5375
   77MOL   H11529147   1.707   1.718   0.683  0.0104 -0.3469 -0.0059
   77MOL   C11629148   1.639   1.846   1.131  0.1979 -0.1005  0.0048
   77MOL   C11729149   1.538   1.778   1.032 -0.1266 -0.2767  0.0530
   77MOL   C11829150   1.415   1.867   1.034  0.4877  0.1687 -0.4952
   77MOL   O11929151   1.346   1.863   1.138  0.1235 -0.1427  0.6539
   77MOL   N12029152   1.366   1.924   0.925  0.9074  0.4024 -0.0442
   77MOL   C12129153   1.246   2.005   0.917 -0.2195 -0.0161  0.0937
   77MOL   C12229154   1.242   2.088   0.788  0.0305  0.2124  0.7292
   77MOL   C12329155   1.125   1.917   0.903 -0.0288  0.1348  0.0379
   77MOL   H12429156   1.637   1.954   1.116  0.1997  0.3654  3.1493
   77MOL   H12529157   1.588   1.834   1.226 -2.6331 -1.0460 -1.5610
   77MOL   H12629158   1.570   1.780   0.928 -0.4403  0.1544 -0.0386
   77MOL   H12729159   1.424   1.905   0.845  1.5105 -2.4099  1.0083
   77MOL   H12829160   1.252   2.062   1.010  0.9362  1.4879 -0.8941
   77MOL   H12929161   1.167   2.167   0.780  1.1991  1.1835 -1.1586
   77MOL   H13029162   1.241   2.022   0.701  1.1921  0.0723  0.8153
   77MOL   H13129163   1.335   2.142   0.770  0.9716 -1.2883  0.9656
   77MOL   H13229164   1.127   1.845   0.822  1.8074  1.3773 -1.0624
   77MOL   H13329165   1.095   1.859   0.991 -2.3023  2.1223  0.6140
   77MOL   H13429166   1.034   1.974   0.885  0.6724  0.8731 -1.1906
   77MOL   C13529167   1.509   1.628   1.075 -0.2242 -0.0385 -0.0903
   77MOL   C13629168   1.423   1.544   0.979  0.1321 -0.0765  0.1614
   77MOL   C13729169   1.459   1.554   0.827  0.1732  0.7279  0.0273
   77MOL   O13829170   1.556   1.501   0.775  0.3608 -0.1308  0.3637
   77MOL   N13929171   1.374   1.623   0.759 -0.3497  0.1904  0.2933
   77MOL   C14029172   1.368   1.636   0.612 -0.6851  0.6216 -0.3229
   77MOL   C14129173   1.381   1.787   0.582  0.2058  0.6002 -0.1221
   77MOL   C14229174   1.233   1.577   0.563  0.2113 -0.0361 -0.1673
   77MOL   H14329175   1.477   1.640   1.179 -1.9811  2.2790 -0.8518
   77MOL   H14429176   1.605   1.576   1.074  0.6048  1.4627 -1.1763
   77MOL   H14529177   1.324   1.589   0.990  0.3093  0.4064 -0.1972
   77MOL   H14629178   1.295   1.656   0.811 -0.0951 -0.1366  0.8993
   77MOL   H14729179   1.456   1.597   0.562 -1.3334 -0.1210 -0.8948
   77MOL   H14829180   1.415   1.802   0.480  0.9913 -0.1880  0.0168
   77MOL   H14929181   1.282   1.831   0.595 -0.2746  0.2600 -2.4374
   77MOL   H15029182   1.448   1.834   0.654  0.7667  1.6065 -1.2844
   77MOL   H15129183   1.143   1.617   0.611 -0.8326 -2.4397 -0.0150
   77MOL   H15229184   1.226   1.472   0.591  0.0118 -0.2208 -0.8954
   77MOL   H15329185   1.226   1.602   0.457  2.5519  1.5288  0.0238
   77MOL   C15429186   1.426   1.397   1.026  0.3399  0.0049  0.7522
   77MOL   C15529187   1.375   1.363   1.168 -0.0746  0.7006 -0.3375
   77MOL   C15629188   1.402   1.211   1.201  0.5877 -0.2650 -0.1326
   77MOL   O15729189   1.376   1.130   1.112  0.2213 -0.1567 -0.0899
   77MOL   N15829190   1.473   1.182   1.312 -0.0147  0.4831 -0.0740
   77MOL   C15929191   1.510   1.053   1.366 -1.2776 -0.2701  0.7253
   77MOL   C16029192   1.493   1.040   1.514  0.8308  0.7321  0.6033
   77MOL   C16129193   1.649   0.994   1.325  0.4654  0.0403  0.1404
   77MOL   H16229194   1.526   1.355   1.013 -0.9060 -2.2850 -1.7891
   77MOL   H16329195   1.366   1.350   0.948  1.0019 -0.0061  0.2477
   77MOL   H16429196   1.434   1.433   1.228 -0.4348 -0.0229  0.8856
   77MOL   H16529197   1.487   1.269   1.362  1.6425  0.8959 -1.2166
   77MOL   H16629198   1.454   0.974   1.316 -2.3255  1.6161 -1.1831
   77MOL   H16729199   1.449   0.942   1.533 -0.1951  0.8243 -1.1644
   77MOL   H16829200   1.586   1.053   1.568  0.6284 -0.8387  1.3296
   77MOL   H16929201   1.435   1.128   1.543 -1.6569 -0.3217 -0.9994
   77MOL   H17029202   1.731   1.044   1.376  2.7861 -3.3549 -0.1235
   77MOL   H17129203   1.675   1.001   1.220  1.6963  1.4175  0.5221
   77MOL   H17229204   1.652   0.889   1.357 -0.3717 -0.0236  0.0211
   77MOL   C17329205   1.222   1.386   1.194  0.3845 -0.1317 -0.2454
   77MOL   C17429206   1.172   1.443   1.325 -0.3527 -0.3030 -0.6124
   77MOL   C17529207   1.210   1.342   1.438  0.6546  0.4780 -0.1040
   77MOL   O17629208   1.322   1.351   1.497  0.2458 -0.5622 -0.3100
   77MOL   N17729209   1.114   1.268   1.484  0.0066  0.2918  0.4869
   77MOL   C17829210   1.122   1.192   1.613  0.7589 -0.4886 -0.5516
   77MOL   C17929211   1.077   1.045   1.595 -0.6797 -0.5992 -0.4752
   77MOL   C18029212   1.037   1.263   1.723 -0.1003 -0.4719 -0.2864
   77MOL   H18129213   1.170   1.293   1.173 -0.2200  0.1275  0.0896
   77MOL   H18229214   1.182   1.451   1.116  1.7800  1.4758  0.3460
   77MOL   H18329215   1.064   1.450   1.310 -0.1498  0.1399 -1.9544
   77MOL   H18429216   1.024   1.290   1.443  0.6705  1.3206 -0.4360
   77MOL   H18529217   1.228   1.193   1.641  0.1420 -1.2212  1.9276
   77MOL   H18629218   1.127   0.999   1.510 -0.8502 -1.1539 -0.2740
   77MOL   H18729219   0.970   1.037   1.576 -0.6303 -3.3863  0.3468
   77MOL   H18829220   1.106   0.995   1.687  4.0351  2.3554 -0.1815
   77MOL   H18929221   0.938   1.281   1.681 -0.2124  2.3396  1.0584
   77MOL   H19029222   1.082   1.360   1.746 -1.0729  0.0212 -0.4072
   77MOL   H19129223   1.041   1.197   1.810  1.7005 -0.8923 -0.6834
   77MOL   C19229224   1.223   1.591   1.368  0.0208  0.1425 -0.6156
   77MOL   C19329225   1.172   1.637   1.506 -0.4633 -0.0488  0.3793
   77MOL   C19429226   1.016   1.655   1.502 -0.7998 -0.3905 -0.4526
   77MOL   O19529227   0.939   1.574   1.558 -0.1429 -0.0424 -0.0155
   77MOL   N19629228   0.962   1.753   1.434  0.3271 -0.1356 -0.1815
   77MOL   C19729229   0.818   1.798   1.431  0.3750  0.3016 -0.2087
   77MOL   C19829230   0.819   1.930   1.359 -0.2281 -0.6043  0.7120
   77MOL   C19929231   0.724   1.697   1.367  0.0734 -0.3178 -0.4552
   77MOL   H20029232   1.204   1.675   1.301  0.8591 -0.1406 -1.2177
   77MOL   H20129233   1.329   1.584   1.390  0.3096  3.4747 -0.6608
   77MOL   H20229234   1.183   1.565   1.586  0.0450  0.1760  0.5133
   77MOL   H20329235   1.027   1.817   1.392 -0.7975  1.9364  1.1354
   77MOL   H20429236   0.790   1.816   1.535 -0.8018  0.3945 -0.5277
   77MOL   H20529237   0.871   2.011   1.411 -0.7844 -1.0391  1.9623
   77MOL   H20629238   0.717   1.965   1.343  0.6660  2.1604  0.6847
   77MOL   H20729239   0.875   1.936   1.267  0.1194  1.4784  1.0234
   77MOL   H20829240   0.724   1.684   1.259  1.1859  1.5653 -0.7000
   77MOL   H20929241   0.621   1.728   1.390  0.2820  0.1607 -0.1460
   77MOL   H21029242   0.730   1.603   1.422 -1.7036  0.2023  0.6956
   77MOL   C21129243   1.245   1.767   1.556  0.4312  0.4056 -0.1380
   77MOL   C21229244   1.222   1.803   1.702 -0.3696  0.3847  0.3333
   77MOL   C21329245   1.302   1.729   1.813 -0.0711  0.2930  0.3773
   77MOL   O21429246   1.414   1.697   1.791  0.1196 -0.3101  0.0324
   77MOL   N21529247   1.231   1.708   1.928  0.4864 -0.9021  0.2023
   77MOL   C21629248   1.287   1.655   2.051  0.1855  0.4620 -0.2421
   77MOL   C21729249   1.228   1.516   2.085 -0.2692 -0.2660  0.3456
   77MOL   C21829250   1.267   1.755   2.159  0.1318  0.3639  0.1370
   77MOL   H21929251   1.214   1.846   1.487  0.3482  1.6016  1.2479
   77MOL   H22029252   1.351   1.772   1.532  0.0322  0.7099 -1.9905
   77MOL   H22129253   1.126   1.752   1.714  0.7873 -1.7948  0.6759
   77MOL   H22229254   1.136   1.741   1.923  0.8543 -0.0686 -1.4942
   77MOL   H22329255   1.391   1.634   2.025  0.5612  0.1980  1.4313
   77MOL   H22429256   1.240   1.446   2.002 -1.1112 -1.6369  1.3491
   77MOL   H22529257   1.271   1.467   2.173  2.5135  1.2561 -0.1191
   77MOL   H22629258   1.121   1.520   2.105 -0.0261  3.0772  1.2563
   77MOL   H22729259   1.162   1.760   2.190  0.3340 -0.7999  1.0562
   77MOL   H22829260   1.301   1.853   2.124 -0.0989  0.9296  1.4723
   77MOL   H22929261   1.327   1.731   2.246 -0.6650 -1.9100  0.0977
   77MOL   C23029262   1.192   1.953   1.731 -0.4151 -0.4745 -0.9381
   77MOL   C23129263   1.046   1.996   1.716  0.1387 -0.2313  0.3546
   77MOL   C23229264   0.944   1.929   1.811  1.1143  0.2709  0.4066
   77MOL   O23329265   0.977   1.851   1.899  0.0470 -0.0871  0.3718
   77MOL   N23429266   0.815   1.951   1.790  0.1848  0.1849  0.2962
   77MOL   C23529267   0.702   1.901   1.879  0.0266  0.1750 -0.2692
   77MOL   C23629268   0.713   1.985   2.010 -0.2226  0.3024 -0.4280
   77MOL   C23729269   0.568   1.915   1.812 -0.1571  0.2139  0.3136
   77MOL   H23829270   1.256   2.010   1.664  1.4475 -2.0367 -0.5377
   77MOL   H23929271   1.227   1.983   1.830 -0.2205  1.6701 -1.6148
   77MOL   H24029272   1.028   1.946   1.620 -0.0011 -0.5325  0.5367
   77MOL   H24129273   0.779   2.000   1.709 -0.2241 -0.5630  0.0156
   77MOL   H24229274   0.715   1.796   1.908  1.4891  0.0409 -1.3332
   77MOL   H24329275   0.637   1.935   2.070  1.5601 -0.3293  1.3595
   77MOL   H24429276   0.812   1.982   2.056 -2.1750 -0.6345  3.9219
   77MOL   H24529277   0.684   2.088   1.992 -0.0647  0.7394  1.6806
   77MOL   H24629278   0.541   2.013   1.773 -2.6113 -0.5562  0.0075
   77MOL   H24729279   0.494   1.891   1.889  0.6075 -2.3017  0.3207
   77MOL   H24829280   0.566   1.844   1.729  0.2589  1.1311 -0.4897
   77MOL   C24929281   1.026   2.154   1.706 -0.1178  0.1964 -0.0151
   77MOL   C25029282   1.006   2.233   1.842 -0.6393  0.5101  0.5215
   77MOL   C25129283   0.959   2.373   1.805 -0.9959 -0.4664  0.5413
   77MOL   O25229284   0.844   2.399   1.818 -0.2735  0.3036 -0.3785
   77MOL   N25329285   1.046   2.466   1.760 -0.1264  0.1496 -0.0666
   77MOL   C25429286   1.018   2.604   1.709 -0.8795 -0.4910 -0.4893
   77MOL   C25529287   1.007   2.705   1.822 -0.1719 -0.6219  0.1505
   77MOL   C25629288   1.128   2.645   1.611 -0.4325 -0.2652  0.4368
   77MOL   H25729289   0.944   2.183   1.639 -0.3607 -0.2897  0.0657
   77MOL   H25829290   1.115   2.174   1.648  0.7072 -2.9791  0.0594
   77MOL   H25929291   0.915   2.190   1.882 -0.6050  0.0979  0.1600
   77MOL   H26029292   1.129   2.422   1.722 -0.2231  0.5483 -0.7399
   77MOL   H26129293   0.917   2.604   1.668 -0.6627  1.1568 -1.0329
   77MOL   H26229294   1.107   2.709   1.866  0.1502 -2.2539 -0.3830
   77MOL   H26329295   0.984   2.805   1.785  1.5623 -0.2302  0.0820
   77MOL   H26429296   0.929   2.687   1.897  2.4405 -0.8418  2.9361
   77MOL   H26529297   1.210   2.666   1.680 -0.7766  1.3963  0.3556
   77MOL   H26629298   1.159   2.568   1.541 -0.9817 -1.3644  1.3691
   77MOL   H26729299   1.103   2.731   1.550 -1.1978 -0.8232 -0.0593
   77MOL   C26829300   1.130   2.229   1.933  0.0017  0.4317  0.3190
   77MOL   C26929301   1.145   2.341   2.040  0.1211  0.1805  0.0599
   77MOL   C27029302   1.042   2.337   2.154 -0.1741  0.3924 -0.0057
   77MOL   O27129303   1.061   2.268   2.252 -0.3398 -0.1283 -0.0814
   77MOL   N27229304   0.924   2.398   2.131  1.3639 -0.1779  0.7851
   77MOL   C27329305   0.805   2.411   2.211  0.8544 -0.1479  0.1580
   77MOL   C27429306   0.761   2.556   2.205  0.2480  0.4320 -0.2949
   77MOL   C27529307   0.696   2.314   2.167  0.0133 -0.3566 -0.2732
   77MOL   H27629308   1.133   2.132   1.981 -0.8308 -1.0552 -2.5003
   77MOL   H27729309   1.217   2.225   1.867 -0.7259 -1.0909 -0.5739
   77MOL   H27829310   1.150   2.443   2.002  0.1646  0.8469  1.7914
   77MOL   H27929311   0.908   2.426   2.035 -3.0616 -1.8221  0.9213
   77MOL   H28029312   0.832   2.387   2.314 -0.0965 -0.3859  0.3509
   77MOL   H28129313   0.836   2.625   2.244  1.9139  0.6563 -3.7257
   77MOL   H28229314   0.744   2.580   2.100  2.1564 -0.0944 -0.7461
   77MOL   H28329315   0.672   2.572   2.266 -0.4944  4.2238 -2.2453
   77MOL   H28429316   0.600   2.348   2.205 -0.5347 -1.1172 -0.9774
   77MOL   H28529317   0.688   2.309   2.059  1.5759  0.8205 -0.4717
   77MOL   H28629318   0.704   2.217   2.217 -0.9256 -0.0308  0.5223
   77MOL   C28729319   1.293   2.332   2.100 -0.1893  0.6306  0.4444
   77MOL   C28829320   1.339   2.432   2.207  0.2016 -0.6863 -0.0885
   77MOL   C28929321   1.359   2.567   2.133  0.6535  0.2504  0.6343
   77MOL   O29029322   1.439   2.569   2.039 -0.4322  0.7887 -0.9847
   77MOL   N29129323   1.281   2.670   2.179  0.1610  0.3225 -0.6426
   77MOL   C29229324   1.271   2.806   2.133 -0.2793  0.0571  0.2519
   77MOL   C29329325   1.132   2.872   2.152 -0.1193  0.4367 -0.0172
   77MOL   C29429326   1.391   2.888   2.195  0.4703 -0.2648 -0.0650
   77MOL   H29529327   1.289   2.235   2.149  0.8777  1.2156  1.7059
   77MOL   H29629328   1.356   2.328   2.011 -2.8528 -2.3803 -1.4272
   77MOL   H29729329   1.264   2.448   2.285  0.7676 -0.9154  0.5058
   77MOL   H29829330   1.241   2.650   2.270 -0.0809  2.5420 -0.2389
   77MOL   H29929331   1.306   2.818   2.031 -2.7096  2.9215 -0.3293
   77MOL   H30029332   1.131   2.978   2.128 -1.9220  0.5697  0.5755
   77MOL   H30129333   1.070   2.825   2.076  0.8539 -3.4024  1.4300
   77MOL   H30229334   1.097   2.855   2.254  2.6425 -1.0686  0.7568
   77MOL   H30329335   1.493   2.865   2.165  0.0366 -0.2641 -1.5791
   77MOL   H30429336   1.365   2.994   2.194  0.4731 -0.2572  0.5344
   77MOL   H30529337   1.384   2.877   2.303  1.9286 -1.0332 -0.0480
   77MOL   C30629338   1.469   2.381   2.273  0.6605  1.1642  0.5254
   77MOL   C30729339   1.452   2.288   2.396  0.3543 -0.7324  0.4273
   77MOL   C30829340   1.386   2.371   2.512 -1.0253 -0.3830  0.1408
   77MOL   O30929341   1.463   2.440   2.573  0.1589 -0.0690  0.8269
   77MOL   N31029342   1.259   2.359   2.530  0.0393  0.7476  0.1766
   77MOL   C31129343   1.179   2.444   2.620 -0.1138 -0.0697 -0.2246
   77MOL   C31229344   1.036   2.464   2.564 -0.1447 -0.1444  0.2686
   77MOL   C31329345   1.192   2.379   2.760 -0.7079 -0.4979  0.0460
   77MOL   H31429346   1.528   2.328   2.198  0.6442  0.6458  0.8764
   77MOL   H31529347   1.522   2.470   2.308  0.3821  2.5342 -2.3972
   77MOL   H31629348   1.388   2.206   2.364  0.0955  0.5321 -2.4648
   77MOL   H31729349   1.207   2.306   2.462 -0.6515 -2.2145  2.9115
   77MOL   H31829350   1.229   2.540   2.628 -0.6971  0.1271  1.2062
   77MOL   H31929351   0.961   2.506   2.631 -0.8775  0.2362 -0.7742
   77MOL   H32029352   1.002   2.365   2.533  2.1398 -0.8569 -0.0887
   77MOL   H32129353   1.044   2.525   2.474  1.0548 -0.3872  0.2045
   77MOL   H32229354   1.153   2.444   2.839  1.0344 -1.2376  1.5540
   77MOL   H32329355   1.292   2.345   2.786 -1.4528 -1.5818  1.6464
   77MOL   H32429356   1.134   2.288   2.775 -0.4121 -1.2866 -3.1889
   77MOL   C32529357   1.581   2.222   2.421 -0.6464 -0.7461 -0.0538
   77MOL   C32629358   1.581   2.135   2.547 -0.6117  0.5177 -0.1146
   77MOL   C32729359   1.484   2.018   2.544 -0.0905 -0.0226 -0.2883
   77MOL   O32829360   1.511   1.918   2.477 -0.1388 -0.8591  0.8827
   77MOL   N32929361   1.374   2.032   2.624 -0.1273 -0.2114  0.5176
   77MOL   C33029362   1.267   1.935   2.644 -0.2771 -0.0639  0.5275
   77MOL   C33129363   1.193   1.904   2.507  0.3813  0.5503  0.2625
   77MOL   C33229364   1.167   1.996   2.753 -0.5737  0.5762  0.4579
   77MOL   H33329365   1.655   2.302   2.426 -2.2333  0.6310  2.2607
   77MOL   H33429366   1.603   2.159   2.335 -0.0338 -0.5655 -0.0285
   77MOL   H33529367   1.552   2.202   2.627 -0.0078  1.6144 -0.8071
   77MOL   H33629368   1.377   2.118   2.677 -1.5059  1.2603 -1.7219
   77MOL   H33729369   1.314   1.841   2.674  0.7613  0.2359 -0.1383
   77MOL   H33829370   1.110   1.838   2.534  1.7546 -0.1680  2.8727
   77MOL   H33929371   1.143   1.992   2.467 -1.9058 -0.6545  0.3868
   77MOL   H34029372   1.253   1.856   2.430 -1.6160 -0.3042 -0.8217
   77MOL   H34129373   1.091   1.920   2.775  1.1739 -1.3837 -0.1015
   77MOL   H34229374   1.133   2.097   2.735 -0.9424  1.1010  3.7301
   77MOL   H34329375   1.210   2.006   2.853  1.0256 -0.4447 -0.1018
   77MOL   C34429376   1.724   2.089   2.578 -0.0578 -0.4303 -0.6705
   77MOL   C34529377   1.813   2.201   2.642  0.4406  0.0966  0.4098
   77MOL   C34629378   1.798   2.208   2.800 -0.3580 -0.0339  0.0668
   77MOL   O34729379   1.808   2.101   2.865  0.1312 -0.2565 -0.4682
   77MOL   N34829380   1.775   2.333   2.856 -0.4346 -0.1627  0.1040
   77MOL   C34929381   1.744   2.367   2.989 -0.4488 -0.3533 -0.0374
   77MOL   C35029382   1.855   2.434   3.062 -0.4019 -0.5074  0.3979
   77MOL   C35129383   1.616   2.452   2.969 -0.5742 -0.3277 -0.2510
   77MOL   H35229384   1.772   2.058   2.485 -0.6894 -0.5875 -0.9430
   77MOL   H35329385   1.736   1.993   2.629 -0.1989 -0.7949 -1.3076
   77MOL   H35429386   1.795   2.299   2.598 -0.0618  0.1253  0.6675
   77MOL   H35529387   1.785   2.413   2.794  0.8069 -0.4139 -0.0301
   77MOL   H35629388   1.727   2.275   3.045  1.3439 -0.0435  1.0385
   77MOL   H35729389   1.831   2.458   3.165 -1.7387  1.1749 -0.2907
   77MOL   H35829390   1.941   2.366   3.054 -1.0703 -1.2967 -0.1981
   77MOL   H35929391   1.879   2.532   3.022 -0.9196 -0.5567 -0.0372
   77MOL   H36029392   1.600   2.507   3.062 -1.3114 -0.3943 -0.3325
   77MOL   H36129393   1.635   2.530   2.896 -1.3246 -0.3911 -0.5157
   77MOL   H36229394   1.529   2.390   2.946 -1.1701  0.4391 -0.0834
   77MOL   C36329395   1.964   2.184   2.621 -0.0562 -0.2696  0.3460
   77MOL   C36429396   2.052   2.304   2.675  0.3058  0.4960  0.1081
   77MOL   C36529397   2.208   2.271   2.655  0.6647 -0.3956 -0.0584
   77MOL   O36629398   2.256   2.202   2.567  0.2143  0.2148 -0.6305
   77MOL   N36729399   2.284   2.338   2.739  0.3293 -0.9263  0.7777
   77MOL   C36829400   2.431   2.356   2.730  0.0731 -0.0005  0.3749
   77MOL   C36929401   2.458   2.505   2.775 -0.2493  0.6413 -0.3230
   77MOL   C37029402   2.497   2.246   2.818  0.2703 -0.7312  0.4424
   77MOL   H37129403   1.976   2.166   2.514 -1.3891  1.0108 -0.0366
   77MOL   H37229404   2.005   2.092   2.661 -1.4361 -0.6766  0.8576
   77MOL   H37329405   2.035   2.326   2.781  0.0280 -0.1504  0.1970
   77MOL   H37429406   2.240   2.394   2.811  0.4133  0.8624 -0.5274
   77MOL   H37529407   2.471   2.342   2.630 -0.7496  2.2216 -0.2901
   77MOL   H37629408   2.460   2.514   2.883  1.4884  1.1086 -0.3738
   77MOL   H37729409   2.560   2.526   2.743  1.1790 -2.9410  1.6053
   77MOL   H37829410   2.389   2.578   2.731 -2.3685 -0.3693  1.2267
   77MOL   H37929411   2.604   2.265   2.818  0.1636  0.0680 -1.4889
   77MOL   H38029412   2.450   2.240   2.916  0.7900 -2.7354  0.5831
   77MOL   H38129413   2.481   2.153   2.763  1.0685  0.1857 -1.4080
   77MOL   H38229414   2.032   2.401   2.630  2.5649  0.6898 -0.5359
   78MOL     C129415   4.831   5.906   5.702 -0.3842  0.2764 -0.5438
   78MOL     C229416   4.836   6.014   5.595  0.2552 -0.4543  0.0237
   78MOL     C329417   4.970   6.023   5.525 -0.1938 -0.0961  0.3407
   78MOL     O429418   4.986   5.983   5.414  0.1313 -0.3035  0.1828
   78MOL     N529419   5.064   6.081   5.596 -0.8789 -0.1317  0.2268
   78MOL     C629420   5.198   6.130   5.547  0.3874 -0.3085 -0.2480
   78MOL     C729421   5.183   6.242   5.444  0.3325 -0.1134  0.3694
   78MOL     C829422   5.275   6.186   5.669  0.7992  0.4941 -0.2134
   78MOL     H929423   4.743   5.924   5.763  1.3749  0.2850  2.0933
   78MOL    H1029424   4.922   5.925   5.760 -0.6771  1.2596 -0.3927
   78MOL    H1129425   4.818   6.104   5.654 -1.5064 -1.1619  0.6009
   78MOL    H1229426   5.039   6.095   5.693 -1.0069 -1.7984  0.4541
   78MOL    H1329427   5.261   6.049   5.510  0.6668 -0.4320  0.4803
   78MOL    H1429428   5.121   6.324   5.481 -0.2277  1.6593 -4.0873
   78MOL    H1529429   5.113   6.198   5.373 -1.3361  0.9281  1.3360
   78MOL    H1629430   5.271   6.276   5.389  0.3020 -3.6748 -2.0309
   78MOL    H1729431   5.375   6.196   5.627  1.1760  1.4736  0.8925
   78MOL    H1829432   5.234   6.282   5.699 -0.4170  0.3394 -1.3683
   78MOL    H1929433   5.280   6.119   5.755 -1.3805  1.1333  0.4371
   78MOL    H2029434   4.827   5.808   5.654  0.2468 -0.0111 -0.0148
   78MOL    C2129435   4.716   6.004   5.500 -0.1404  0.0841  0.1861
   78MOL    C2229436   4.696   6.122   5.395  0.6882 -0.4126 -0.4222
   78MOL    C2329437   4.642   6.248   5.470  0.1651 -0.5536  0.1580
   78MOL    O2429438   4.573   6.231   5.565  0.1969  0.3799 -0.3705
   78MOL    N2529439   4.684   6.369   5.430 -0.0085  0.1507 -0.4472
   78MOL    C2629440   4.663   6.488   5.510  0.8478 -0.7399 -0.4242
   78MOL    C2729441   4.524   6.552   5.489  0.0298  0.0123 -0.1403
   78MOL    C2829442   4.776   6.586   5.474 -0.7958  0.4343  0.6289
   78MOL    H2929443   4.625   5.978   5.554 -1.9954  1.8824 -1.9570
   78MOL    H3029444   4.746   5.916   5.443 -0.8519 -0.7633  1.1134
   78MOL    H3129445   4.785   6.143   5.337 -0.6732  1.6977 -1.8328
   78MOL    H3229446   4.740   6.378   5.346 -0.6498 -0.7204 -0.9786
   78MOL    H3329447   4.672   6.474   5.617 -2.6614 -0.2424  0.0157
   78MOL    H3429448   4.441   6.484   5.509 -0.5481  0.9288  0.6107
   78MOL    H3529449   4.502   6.592   5.390 -1.6499 -0.5670 -0.0347
   78MOL    H3629450   4.505   6.632   5.559  0.1120 -0.6534  0.6496
   78MOL    H3729451   4.878   6.553   5.495 -0.6550  0.8425  0.6091
   78MOL    H3829452   4.794   6.604   5.367 -0.7478  1.6507  0.8328
   78MOL    H3929453   4.773   6.679   5.532  0.8421  1.2992 -0.6135
   78MOL    C4029454   4.597   6.073   5.277  0.2448  0.1331  0.6596
   78MOL    C4129455   4.442   6.068   5.303  1.0673  0.3226 -0.0824
   78MOL    C4229456   4.372   5.973   5.204  0.3035  0.7748  0.5464
   78MOL    O4329457   4.424   5.945   5.099 -0.7965 -0.2659 -0.2857
   78MOL    N4429458   4.247   5.931   5.231 -0.6933  0.5239 -0.6405
   78MOL    C4529459   4.158   5.857   5.146  0.3619  0.1487  0.3069
   78MOL    C4629460   4.185   5.701   5.152  0.7927 -0.7429  0.3437
   78MOL    C4729461   4.012   5.882   5.182  0.3268 -0.2636 -0.4052
   78MOL    H4829462   4.644   5.984   5.235  0.3995  0.2739  0.5289
   78MOL    H4929463   4.626   6.142   5.197  1.9394  0.9635  1.9614
   78MOL    H5029464   4.425   6.025   5.401 -1.1570 -0.6531 -0.8766
   78MOL    H5129465   4.221   5.950   5.327  0.0884  1.6651 -0.6405
   78MOL    H5229466   4.172   5.890   5.044 -0.0737 -0.2695  0.1089
   78MOL    H5329467   4.275   5.664   5.102  1.6095 -0.2332  1.4123
   78MOL    H5429468   4.107   5.651   5.094 -0.2075  1.0296  0.1386
   78MOL    H5529469   4.170   5.670   5.255 -1.9185  0.0582  0.2111
   78MOL    H5629470   3.981   5.982   5.153  1.1874 -0.0269 -0.5122
   78MOL    H5729471   3.994   5.881   5.290 -0.3329  0.6282 -0.5065
   78MOL    H5829472   3.948   5.799   5.152  0.3999 -0.0388 -1.1924
   78MOL    C5929473   4.358   6.200   5.307 -0.1630  0.0204  0.1332
   78MOL    C6029474   4.284   6.252   5.435  0.2949 -0.1645  0.4338
   78MOL    C6129475   4.243   6.137   5.523 -0.1966  0.3662 -0.3935
   78MOL    O6229476   4.158   6.056   5.484 -0.3474  0.0161  0.3178
   78MOL    N6329477   4.325   6.119   5.624 -0.3908 -0.1817  0.2988
   78MOL    C6429478   4.294   6.032   5.738  1.0504 -0.3553 -0.2686
   78MOL    C6529479   4.424   5.943   5.763  0.2425 -0.0293  0.1104
   78MOL    C6629480   4.257   6.132   5.861 -0.1169  0.0077 -0.3005
   78MOL    H6729481   4.426   6.283   5.285  1.2276 -1.0505  0.2863
   78MOL    H6829482   4.283   6.206   5.228 -2.1545 -1.7008  1.8521
   78MOL    H6929483   4.352   6.318   5.489  0.4216  1.3749 -1.5723
   78MOL    H7029484   4.409   6.174   5.634  1.1858 -2.7831  1.8609
   78MOL    H7129485   4.201   5.980   5.716  3.2297 -4.1780 -0.8592
   78MOL    H7229486   4.394   5.885   5.851 -3.3193 -1.1865 -1.7706
   78MOL    H7329487   4.466   5.891   5.677  2.2374  1.3670  0.1960
   78MOL    H7429488   4.503   6.010   5.798  1.3732 -1.6501  0.7742
   78MOL    H7529489   4.349   6.164   5.911 -0.0072 -0.2596 -0.3287
   78MOL    H7629490   4.205   6.224   5.834  0.3585  0.8272  1.5275
   78MOL    H7729491   4.193   6.093   5.939  0.4411  0.3840  0.3488
   78MOL    C7829492   4.167   6.357   5.407 -0.2771 -0.5076 -0.0238
   78MOL    C7929493   4.061   6.396   5.522 -0.0329 -0.6890  0.2046
   78MOL    C8029494   4.112   6.526   5.589  0.4915 -0.4543  0.1071
   78MOL    O8129495   4.143   6.617   5.515 -0.3381  0.6716  0.4358
   78MOL    N8229496   4.114   6.532   5.724  0.6826  0.2646 -0.6215
   78MOL    C8329497   4.144   6.652   5.802  0.3736  0.3852 -0.5546
   78MOL    C8429498   4.041   6.667   5.922 -0.2358  0.1467  0.2566
   78MOL    C8529499   4.287   6.643   5.857  0.3256 -0.2987  0.0671
   78MOL    H8629500   4.102   6.314   5.330  0.4313  1.6758 -1.8730
   78MOL    H8729501   4.213   6.440   5.354 -2.0281  0.2843 -0.3599
   78MOL    H8829502   4.068   6.323   5.602 -2.4180 -0.7099  0.4376
   78MOL    H8929503   4.065   6.460   5.776  0.9616 -0.3343 -1.1767
   78MOL    H9029504   4.125   6.744   5.747 -1.0424 -0.3527 -1.3320
   78MOL    H9129505   4.053   6.573   5.976 -1.7955  0.9941  2.1361
   78MOL    H9229506   4.056   6.751   5.989 -0.6400  1.7015 -1.5801
   78MOL    H9329507   3.938   6.676   5.886  0.3121 -0.9190 -1.6397
   78MOL    H9429508   4.312   6.719   5.930 -0.5401  0.0477  0.0060
   78MOL    H9529509   4.351   6.649   5.768 -0.8691 -0.7272 -0.8267
   78MOL    H9629510   4.308   6.548   5.905  2.6016 -0.3817 -0.9781
   78MOL    C9729511   3.911   6.401   5.468 -0.2841  0.2402 -0.1906
   78MOL    C9829512   3.859   6.253   5.428  0.2007  0.0345  0.1666
   78MOL    C9929513   3.732   6.255   5.348  0.7122 -0.6098 -0.6832
   78MOL   O10029514   3.647   6.340   5.376  0.1026  0.3708 -0.0529
   78MOL   N10129515   3.717   6.171   5.247 -0.2717  0.0055 -0.3263
   78MOL   C10229516   3.610   6.157   5.146  0.1822  0.0796  0.8829
   78MOL   C10329517   3.690   6.143   5.010  0.6363  0.2238  0.2384
   78MOL   C10429518   3.534   6.040   5.192  0.3343 -0.2623  0.1067
   78MOL   H10529519   3.908   6.467   5.382 -2.7250 -0.7964 -0.9366
   78MOL   H10629520   3.854   6.444   5.551 -1.5535 -2.3347  0.3439
   78MOL   H10729521   3.932   6.224   5.352  0.1523 -0.8970  0.4746
   78MOL   H10829522   3.792   6.104   5.234  0.6548  1.2842 -1.7859
   78MOL   H10929523   3.546   6.246   5.148 -0.0264 -0.0731  0.9997
   78MOL   H11029524   3.610   6.132   4.937 -0.1561  1.6106  0.8659
   78MOL   H11129525   3.739   6.234   4.976 -0.8458  0.6410 -0.8007
   78MOL   H11229526   3.757   6.058   5.024 -1.2789 -1.2630  0.4776
   78MOL   H11329527   3.486   6.058   5.288 -1.1206 -0.9010 -0.4710
   78MOL   H11429528   3.595   5.950   5.198  0.1466 -0.3534  0.6661
   78MOL   H11529529   3.465   6.024   5.109 -1.0170 -0.0938  1.1756
   78MOL   C11629530   3.848   6.152   5.547 -0.1319 -0.2320  0.5867
   78MOL   C11729531   3.728   6.166   5.642  0.4123  0.4523 -0.2662
   78MOL   C11829532   3.762   6.282   5.734  0.5424 -0.3777 -1.0766
   78MOL   O11929533   3.871   6.302   5.785 -0.5716 -0.2014 -0.0930
   78MOL   N12029534   3.657   6.358   5.770  0.1460  0.5326  0.3421
   78MOL   C12129535   3.660   6.443   5.888 -0.1820  0.1383  0.7402
   78MOL   C12229536   3.617   6.590   5.863 -0.2632  0.2541  0.3168
   78MOL   C12329537   3.564   6.388   5.988  0.9400  0.4787  0.0236
   78MOL   H12429538   3.941   6.160   5.603 -1.3860  2.6958  2.3777
   78MOL   H12529539   3.846   6.060   5.487  0.9192  0.6335 -0.8178
   78MOL   H12629540   3.635   6.180   5.588 -0.5249  0.8946  1.4476
   78MOL   H12729541   3.574   6.337   5.716  0.2901  1.1603 -0.1318
   78MOL   H12829542   3.758   6.443   5.936 -0.0547 -2.3643  0.5340
   78MOL   H12929543   3.616   6.641   5.959  1.4626  1.3755 -0.2407
   78MOL   H13029544   3.515   6.601   5.827 -0.6245  1.4408  1.6739
   78MOL   H13129545   3.688   6.627   5.789 -1.6645  1.1396 -0.6020
   78MOL   H13229546   3.561   6.429   6.089  0.2747 -0.5371  0.4291
   78MOL   H13329547   3.469   6.429   5.952  0.1895 -0.8773  0.4200
   78MOL   H13429548   3.558   6.280   6.002 -3.0920  0.3576 -1.8170
   78MOL   C13529549   3.712   6.039   5.726 -0.5265 -0.2650 -0.4423
   78MOL   C13629550   3.654   5.910   5.643 -0.8724 -0.7243 -0.5304
   78MOL   C13729551   3.762   5.813   5.584  0.4171 -0.4309  0.1974
   78MOL   O13829552   3.728   5.753   5.484  0.3649 -0.2648 -0.3370
   78MOL   N13929553   3.872   5.799   5.649  0.0119  1.1947  0.2279
   78MOL   C14029554   3.973   5.693   5.634 -0.1728  0.4896 -0.2959
   78MOL   C14129555   4.070   5.697   5.759 -0.3969 -0.7764 -0.7153
   78MOL   C14229556   4.058   5.710   5.502  0.3205  0.5224 -0.5680
   78MOL   H14329557   3.650   6.058   5.813 -1.2355  0.2758 -1.0644
   78MOL   H14429558   3.807   6.011   5.773  0.0032  1.3684 -0.5278
   78MOL   H14529559   3.599   5.947   5.556 -0.0941 -0.0330 -0.7422
   78MOL   H14629560   3.889   5.869   5.720 -1.1829 -0.1103  1.8415
   78MOL   H14729561   3.928   5.594   5.644 -0.7559  0.5673 -2.0091
   78MOL   H14829562   4.141   5.614   5.754 -0.1096 -0.5441 -0.4824
   78MOL   H14929563   4.128   5.789   5.762  0.7960 -1.5769  3.0016
   78MOL   H15029564   4.023   5.687   5.857  2.5286 -0.2606  0.8096
   78MOL   H15129565   3.995   5.675   5.421 -2.0343  1.7682  0.6886
   78MOL   H15229566   4.150   5.652   5.501  0.7069  1.1356 -1.4408
   78MOL   H15329567   4.072   5.818   5.498  1.8389  0.3757  0.4473
   78MOL   C15429568   3.556   5.826   5.731  0.4185  0.5903 -0.3312
   78MOL   C15529569   3.492   5.698   5.662 -0.2895 -0.3676 -0.2948
   78MOL   C15629570   3.410   5.731   5.537  0.1459  0.1622 -0.2613
   78MOL   O15729571   3.313   5.800   5.546  0.0245  0.5694 -0.3038
   78MOL   N15829572   3.452   5.670   5.423  0.3483 -0.0500  0.0283
   78MOL   C15929573   3.371   5.669   5.299  0.0184  0.1010  0.1821
   78MOL   C16029574   3.264   5.557   5.314 -0.5751 -0.7374  0.7225
   78MOL   C16129575   3.462   5.662   5.172 -0.3962  0.5096  0.2489
   78MOL   H16229576   3.472   5.886   5.767  0.4767  0.9402 -0.7812
   78MOL   H16329577   3.621   5.783   5.808 -2.2636 -1.7512  0.7462
   78MOL   H16429578   3.576   5.632   5.639  0.3702  0.8782 -1.5612
   78MOL   H16529579   3.550   5.644   5.420  0.1357 -0.9129  0.4449
   78MOL   H16629580   3.320   5.765   5.295 -0.3706 -0.1018  0.2302
   78MOL   H16729581   3.169   5.595   5.351 -1.4301 -2.1242 -0.0161
   78MOL   H16829582   3.243   5.521   5.213 -1.2601  0.3827  0.4547
   78MOL   H16929583   3.300   5.478   5.380  0.0919 -0.8750  0.2078
   78MOL   H17029584   3.542   5.592   5.197 -0.9183 -0.2271 -0.1069
   78MOL   H17129585   3.503   5.760   5.147  1.1489  0.1458  1.3178
   78MOL   H17229586   3.401   5.627   5.088 -2.0616  0.8140  1.3191
   78MOL   C17329587   3.396   5.619   5.750 -0.6608  0.0850  0.0450
   78MOL   C17429588   3.393   5.470   5.725  0.4511  0.3501 -0.0178
   78MOL   C17529589   3.528   5.398   5.733  0.1800  0.6146 -0.2347
   78MOL   O17629590   3.590   5.397   5.841 -0.3307 -0.1846 -0.0954
   78MOL   N17729591   3.570   5.342   5.619 -0.0072  0.0946 -0.1118
   78MOL   C17829592   3.695   5.268   5.595  0.3772 -0.0805  0.4522
   78MOL   C17929593   3.770   5.213   5.722  0.0447  0.1821  0.7208
   78MOL   C18029594   3.792   5.341   5.499 -0.3861  0.3610 -0.1287
   78MOL   H18129595   3.294   5.658   5.744  0.0619  2.1065  0.5085
   78MOL   H18229596   3.439   5.632   5.850 -1.4591  0.2973  0.3724
   78MOL   H18329597   3.353   5.444   5.627  1.2109  1.4950 -0.6376
   78MOL   H18429598   3.509   5.334   5.539  1.2499 -3.2104 -0.8260
   78MOL   H18529599   3.675   5.183   5.531 -0.8352  1.8960 -1.8394
   78MOL   H18629600   3.804   5.303   5.773  0.5193  0.9213 -0.8843
   78MOL   H18729601   3.850   5.143   5.699 -0.8961 -0.8644  0.5682
   78MOL   H18829602   3.712   5.156   5.795  2.8409 -1.7407  1.5301
   78MOL   H18929603   3.742   5.355   5.403  1.4493 -0.9269 -1.3268
   78MOL   H19029604   3.883   5.284   5.476  0.0816  1.2342 -0.4739
   78MOL   H19129605   3.817   5.442   5.531 -1.4941  0.3162  0.8865
   78MOL   C19229606   3.298   5.402   5.825 -0.3652  0.2401 -0.2499
   78MOL   C19329607   3.253   5.253   5.793 -0.6165 -0.2588 -0.2918
   78MOL   C19429608   3.106   5.231   5.813  0.4763 -0.1217  0.5931
   78MOL   O19529609   3.057   5.261   5.919 -0.2533 -0.3970 -0.1610
   78MOL   N19629610   3.029   5.195   5.713  0.2587  0.8725  0.4950
   78MOL   C19729611   2.890   5.150   5.722  0.3924 -0.3040 -0.3118
   78MOL   C19829612   2.837   5.159   5.580  0.8786 -0.1801 -0.4117
   78MOL   C19929613   2.881   5.010   5.770  0.2711  0.5235  0.0839
   78MOL   H20029614   3.210   5.466   5.826  1.4240  2.7833  1.1035
   78MOL   H20129615   3.348   5.408   5.921 -0.0272 -1.9910 -0.2520
   78MOL   H20229616   3.291   5.231   5.693  1.1402 -0.5225  0.4149
   78MOL   H20329617   3.070   5.180   5.622 -0.8588  0.1471  0.1006
   78MOL   H20429618   2.834   5.213   5.790  1.0062 -1.5374  1.3883
   78MOL   H20529619   2.909   5.121   5.507 -1.5565  1.0810 -3.5987
   78MOL   H20629620   2.829   5.266   5.565  1.0056  0.0077  0.7838
   78MOL   H20729621   2.742   5.108   5.568  2.0127 -2.1140 -1.5167
   78MOL   H20829622   2.911   5.007   5.875  0.2055  0.4029  0.0996
   78MOL   H20929623   2.948   4.945   5.714 -0.3807  0.8762 -1.1213
   78MOL   H21029624   2.776   4.978   5.769 -0.4320  2.7526 -1.1821
   78MOL   C21129625   3.337   5.157   5.882  0.1550 -0.0468 -0.1814
   78MOL   C21229626   3.331   5.009   5.848  0.3629  0.0560 -0.1822
   78MOL   C21329627   3.357   4.985   5.703  0.5075 -0.1360  0.7834
   78MOL   O21429628   3.443   5.048   5.637  0.3722  0.0230 -0.0902
   78MOL   N21529629   3.281   4.883   5.656 -0.7424 -0.0763 -0.3997
   78MOL   C21629630   3.265   4.835   5.520 -0.0906 -0.0363  0.1806
   78MOL   C21729631   3.155   4.914   5.445 -0.1390 -0.3988 -0.3021
   78MOL   C21829632   3.243   4.685   5.511  0.2830  0.4516 -0.2470
   78MOL   H21929633   3.317   5.170   5.988  2.8330 -1.0557  0.4944
   78MOL   H22029634   3.441   5.187   5.874  0.4959 -1.1601  0.0045
   78MOL   H22129635   3.230   4.969   5.857  0.6062 -0.1896  1.5954
   78MOL   H22229636   3.234   4.832   5.730  0.0969 -1.8580 -1.0758
   78MOL   H22329637   3.357   4.856   5.466 -0.1279 -1.2230 -0.3821
   78MOL   H22429638   3.171   4.901   5.338  0.3190  1.0852 -0.4320
   78MOL   H22529639   3.052   4.880   5.448 -0.3365  0.1851 -0.4299
   78MOL   H22629640   3.161   5.022   5.457 -0.5605 -0.3876 -0.1934
   78MOL   H22729641   3.217   4.645   5.413  2.3142 -1.1368 -0.1584
   78MOL   H22829642   3.171   4.666   5.592 -1.7297  0.6593 -1.9350
   78MOL   H22929643   3.334   4.633   5.541 -0.2036 -0.9336 -1.0934
   78MOL   C23029644   3.424   4.926   5.938 -0.1441 -0.0495  0.5191
   78MOL   C23129645   3.345   4.826   6.031  0.1076 -0.2280  0.6832
   78MOL   C23229646   3.257   4.724   5.964 -0.3873  0.5901 -0.5364
   78MOL   O23329647   3.301   4.664   5.866 -0.8620  0.1390  0.8684
   78MOL   N23429648   3.133   4.702   6.007 -0.1768  0.7654 -0.3019
   78MOL   C23529649   3.038   4.606   5.961  0.6220  0.1056  0.5967
   78MOL   C23629650   2.952   4.563   6.086 -0.5183  0.0421  0.0366
   78MOL   C23729651   2.950   4.653   5.845 -0.7911  0.1135 -0.1101
   78MOL   H23829652   3.477   4.992   6.007  0.4752  0.3798 -0.3625
   78MOL   H23929653   3.503   4.877   5.881  0.6268  1.6986  0.0658
   78MOL   H24029654   3.289   4.887   6.101 -1.7638 -0.7982 -0.2849
   78MOL   H24129655   3.104   4.761   6.083  0.0246  0.2637  0.1744
   78MOL   H24229656   3.088   4.516   5.926  0.7438  0.1274  0.7111
   78MOL   H24329657   2.875   4.494   6.051  0.5622 -0.7700 -0.7663
   78MOL   H24429658   3.008   4.515   6.167  2.6867  0.2639 -1.9662
   78MOL   H24529659   2.880   4.628   6.134  1.3894  0.9866  1.7174
   78MOL   H24629660   3.003   4.667   5.751  0.2689 -0.4916  0.3877
   78MOL   H24729661   2.901   4.749   5.860  0.1452  0.7253 -0.8458
   78MOL   H24829662   2.866   4.584   5.836  1.1152 -2.3417  0.3409
   78MOL   C24929663   3.458   4.751   6.104 -0.6000 -0.3751 -0.6728
   78MOL   C25029664   3.418   4.660   6.225  0.0146 -0.7902 -0.2958
   78MOL   C25129665   3.338   4.723   6.337  0.4074  0.0581 -0.2744
   78MOL   O25229666   3.372   4.827   6.384  0.1375  0.0636 -0.3911
   78MOL   N25329667   3.237   4.649   6.387  0.5738  0.3194  0.1952
   78MOL   C25429668   3.133   4.695   6.479 -0.5313  0.2181 -0.6079
   78MOL   C25529669   3.001   4.721   6.415  0.1149 -0.1238 -0.2713
   78MOL   C25629670   3.112   4.583   6.587  0.3097 -0.2941  0.9645
   78MOL   H25729671   3.541   4.815   6.132 -1.2236  0.1223  0.0579
   78MOL   H25829672   3.517   4.693   6.033 -0.0301 -0.8040  0.1384
   78MOL   H25929673   3.349   4.587   6.181 -1.9625  0.8875 -0.0289
   78MOL   H26029674   3.204   4.560   6.353  0.9683  0.0136  0.5926
   78MOL   H26129675   3.172   4.779   6.536  3.0212 -1.4308 -0.4421
   78MOL   H26229676   2.936   4.742   6.500  2.6124 -1.7582  2.0951
   78MOL   H26329677   3.003   4.797   6.337  0.7571 -0.9188 -1.0347
   78MOL   H26429678   2.947   4.640   6.367 -0.1028 -0.1637  0.0414
   78MOL   H26529679   3.039   4.513   6.545  0.1239  1.3029 -1.4509
   78MOL   H26629680   3.205   4.527   6.592 -0.2163 -1.1980  0.8278
   78MOL   H26729681   3.089   4.622   6.686 -2.4612 -0.6217  0.5080
   78MOL   C26829682   3.545   4.585   6.277  0.1007 -0.1573 -0.4821
   78MOL   C26929683   3.545   4.433   6.268 -0.2486 -0.2658  0.2278
   78MOL   C27029684   3.677   4.368   6.244  0.7942  0.5187  1.0145
   78MOL   O27129685   3.740   4.305   6.326  0.6679  0.2305  0.6733
   78MOL   N27229686   3.719   4.373   6.114  0.4646 -1.1005  0.0620
   78MOL   C27329687   3.853   4.366   6.065  0.0143 -0.0126 -0.1265
   78MOL   C27429688   3.855   4.326   5.912 -0.1699  0.3248 -0.3368
   78MOL   C27529689   3.937   4.484   6.097  0.1004 -0.4909 -0.3127
   78MOL   H27629690   3.639   4.616   6.232 -0.3827 -0.6695 -1.8548
   78MOL   H27729691   3.554   4.603   6.384 -0.3594 -1.5356 -0.2082
   78MOL   H27829692   3.482   4.409   6.182  0.3383  0.7345 -0.4933
   78MOL   H27929693   3.656   4.409   6.043  1.7748  1.5933  0.1920
   78MOL   H28029694   3.905   4.285   6.117  0.8396  0.3161 -0.4339
   78MOL   H28129695   3.944   4.285   5.864  0.3384  1.5310 -0.4321
   78MOL   H28229696   3.778   4.251   5.897 -1.4172  1.5281 -0.0896
   78MOL   H28329697   3.834   4.413   5.851 -1.2167  1.2941  1.3565
   78MOL   H28429698   3.887   4.575   6.065  1.7153 -0.5336 -3.1163
   78MOL   H28529699   3.966   4.494   6.201  0.6863 -2.0903 -0.3035
   78MOL   H28629700   4.036   4.483   6.051 -0.3159 -1.5391 -1.1934
   78MOL   C28729701   3.472   4.373   6.394 -0.0416  0.3532 -0.4441
   78MOL   C28829702   3.377   4.250   6.380 -0.4330 -0.2167  0.1906
   78MOL   C28929703   3.271   4.274   6.263  0.7050  0.1277  0.3478
   78MOL   O29029704   3.237   4.389   6.229 -0.1571 -0.1074 -0.5941
   78MOL   N29129705   3.220   4.165   6.205  0.0058  0.5244 -0.0366
   78MOL   C29229706   3.120   4.159   6.104 -0.3157  0.2597 -0.3344
   78MOL   C29329707   3.149   4.058   6.001  0.2469 -0.3801  0.1254
   78MOL   C29429708   2.979   4.142   6.155 -0.4129  0.6714  0.5990
   78MOL   H29529709   3.538   4.362   6.480  0.1989  0.1591 -0.6539
   78MOL   H29629710   3.403   4.447   6.434  0.6431 -0.3078  2.0353
   78MOL   H29729711   3.445   4.169   6.350 -0.9662 -0.3202 -0.7666
   78MOL   H29829712   3.252   4.074   6.237  0.5079  0.5429 -0.4775
   78MOL   H29929713   3.124   4.258   6.059  0.8140  0.4106  0.0967
   78MOL   H30029714   3.255   4.055   5.975  0.1051 -2.2142 -0.2682
   78MOL   H30129715   3.113   3.958   6.026  2.1474 -1.2706 -0.5730
   78MOL   H30229716   3.099   4.089   5.910  2.9106 -0.8067 -1.5273
   78MOL   H30329717   2.953   4.219   6.228 -0.1338  1.8007 -0.4939
   78MOL   H30429718   2.926   4.154   6.061 -0.4994  0.6053  0.6377
   78MOL   H30529719   2.966   4.041   6.194 -1.2830  0.4290 -0.3379
   78MOL   C30629720   3.308   4.207   6.516  0.2184  0.9987 -0.0058
   78MOL   C30729721   3.322   4.056   6.550 -0.2928  0.3470  0.3875
   78MOL   C30829722   3.216   3.974   6.482  0.0687  0.1861  1.0668
   78MOL   O30929723   3.096   3.990   6.509  0.1193 -0.8250  0.2780
   78MOL   N31029724   3.264   3.882   6.398 -0.1567 -0.7549  0.4739
   78MOL   C31129725   3.195   3.784   6.322  0.0577  0.1526 -0.3618
   78MOL   C31229726   3.289   3.742   6.202 -0.5933  0.2308 -0.6843
   78MOL   C31329727   3.164   3.669   6.413 -0.3925 -0.1990 -0.3153
   78MOL   H31429728   3.358   4.254   6.600 -0.5451 -0.9261  1.5438
   78MOL   H31529729   3.204   4.237   6.528  0.2040  0.5029  1.1805
   78MOL   H31629730   3.419   4.033   6.507  1.0583  0.5345  3.1966
   78MOL   H31729731   3.362   3.877   6.375 -0.0741  1.3840  0.2544
   78MOL   H31829732   3.109   3.828   6.272  0.2742  1.1870  0.1477
   78MOL   H31929733   3.298   3.825   6.131  0.1585 -0.2632 -1.1695
   78MOL   H32029734   3.232   3.662   6.154 -3.1936  0.7151  1.5043
   78MOL   H32129735   3.381   3.693   6.232 -1.5623 -1.4387 -0.4015
   78MOL   H32229736   3.097   3.714   6.487  0.0129 -2.7591  1.6715
   78MOL   H32329737   3.250   3.626   6.464  1.0662  0.2716 -2.3141
   78MOL   H32429738   3.107   3.586   6.372 -0.1914 -1.0052  0.9940
   78MOL   C32529739   3.335   4.022   6.702  0.3223  0.3253  0.3167
   78MOL   C32629740   3.472   4.045   6.760 -0.4890 -0.1209  0.2214
   78MOL   C32729741   3.485   4.032   6.914 -0.5909 -0.6012  0.3173
   78MOL   O32829742   3.410   3.951   6.971 -0.5496  0.0235 -0.0611
   78MOL   N32929743   3.560   4.127   6.981 -0.2518  0.3826  0.3993
   78MOL   C33029744   3.542   4.166   7.123 -0.0480  0.0576 -0.3645
   78MOL   C33129745   3.542   4.319   7.132 -0.2442  0.0476  0.1193
   78MOL   C33229746   3.658   4.100   7.203  0.0713 -0.4327  0.1626
   78MOL   H33329747   3.311   3.916   6.695 -1.8771  0.7280  1.3802
   78MOL   H33429748   3.258   4.081   6.751 -0.7313 -0.5745 -0.2278
   78MOL   H33529749   3.503   4.147   6.739  0.5541 -0.4061  0.3198
   78MOL   H33629750   3.613   4.193   6.926 -2.3758  0.9905 -0.9934
   78MOL   H33729751   3.445   4.127   7.151 -0.2371  0.6596 -0.1705
   78MOL   H33829752   3.461   4.368   7.077 -0.0116  0.5527  0.2173
   78MOL   H33929753   3.537   4.354   7.235  2.6828 -2.8864  1.3294
   78MOL   H34029754   3.631   4.364   7.086 -1.0162  0.1736 -1.2891
   78MOL   H34129755   3.635   4.109   7.310 -0.5591 -1.3910  0.1138
   78MOL   H34229756   3.754   4.143   7.174 -1.1541  2.0966 -0.2691
   78MOL   H34329757   3.664   3.994   7.181  1.5220  0.0722 -1.9716
   78MOL   C34429758   3.576   3.949   6.695 -0.5639  0.2417 -0.6021
   78MOL   C34529759   3.679   4.018   6.598 -0.7984  0.1146  0.0738
   78MOL   C34629760   3.773   4.109   6.666 -0.3019 -0.1726 -0.1509
   78MOL   O34729761   3.826   4.082   6.775  0.5272 -0.1822 -0.5816
   78MOL   N34829762   3.799   4.226   6.605 -0.8282  0.4120  0.3626
   78MOL   C34929763   3.866   4.339   6.665  0.0793 -0.3488  0.3896
   78MOL   C35029764   3.892   4.441   6.550 -0.0096 -0.2998 -0.4483
   78MOL   C35129765   3.798   4.404   6.781 -0.2368  0.2200  0.1531
   78MOL   H35229766   3.532   3.865   6.643  0.4027  0.0963 -1.1877
   78MOL   H35329767   3.624   3.894   6.776 -0.1452 -0.1561 -1.1202
   78MOL   H35429768   3.617   4.074   6.529 -0.7162 -0.6990 -0.6750
   78MOL   H35529769   3.754   4.241   6.516 -2.5004 -3.1209  0.5235
   78MOL   H35629770   3.963   4.307   6.702  0.0241 -3.5389 -2.0349
   78MOL   H35729771   3.796   4.478   6.516 -0.0687  0.5685  0.6451
   78MOL   H35829772   3.960   4.521   6.582  1.2338 -1.9248  1.1310
   78MOL   H35929773   3.938   4.403   6.459 -0.0528 -1.3311 -0.0467
   78MOL   H36029774   3.849   4.498   6.804  0.6083  0.0707 -1.0732
   78MOL   H36129775   3.694   4.425   6.759 -0.3884  1.5239  2.0006
   78MOL   H36229776   3.795   4.348   6.875  0.7134 -1.0453 -0.5431
   78MOL   C36329777   3.754   3.919   6.508  0.0802 -0.3295 -0.3772
   78MOL   C36429778   3.797   3.964   6.366  0.4875 -0.5310 -0.1676
   78MOL   C36529779   3.691   3.959   6.266 -0.9515 -0.9951  1.1825
   78MOL   O36629780   3.578   3.933   6.307  0.4596 -0.3093  0.1538
   78MOL   N36729781   3.727   3.979   6.139 -0.3546  0.1258  0.5584
   78MOL   C36829782   3.660   3.974   6.013  0.4624 -0.0470  0.7537
   78MOL   C36929783   3.623   3.834   5.977  0.6947  0.1303  0.6182
   78MOL   C37029784   3.543   4.069   6.004 -0.3173 -0.0952 -0.2989
   78MOL   H37129785   3.699   3.825   6.500  0.8403 -0.7639 -0.5527
   78MOL   H37229786   3.853   3.910   6.552  1.2625 -0.6586 -2.9891
   78MOL   H37329787   3.883   3.910   6.326 -1.2569 -3.1005 -0.4959
   78MOL   H37429788   3.826   3.998   6.133 -0.2940 -0.4355 -0.2990
   78MOL   H37529789   3.736   4.008   5.943  0.6970 -0.2643  0.9053
   78MOL   H37629790   3.554   3.793   6.051 -0.2085 -2.5984 -1.6712
   78MOL   H37729791   3.571   3.827   5.882  0.0716 -1.7474  1.0735
   78MOL   H37829792   3.697   3.755   5.964 -0.2398 -0.7339  0.4866
   78MOL   H37929793   3.474   4.050   6.086 -1.3363  0.4129 -1.0341
   78MOL   H38029794   3.573   4.173   6.015 -2.9045  0.6494  0.0044
   78MOL   H38129795   3.483   4.053   5.915 -0.0500 -0.4006 -0.4240
   78MOL   H38229796   3.830   4.068   6.371 -1.5580  0.1273 -0.0514
   79MOL     C129797   1.152   1.971   0.284  0.3677  0.5727  0.3952
   79MOL     C229798   1.122   1.986   0.131 -0.3033 -0.3395  0.1097
   79MOL     C329799   1.047   1.867   0.071 -0.3936 -0.0186  0.1233
   79MOL     O429800   0.934   1.840   0.117 -0.3831  0.1781 -0.5371
   79MOL     N529801   1.110   1.787   7.821 -0.3263 -0.8754  0.6378
   79MOL     C629802   1.073   1.655   7.778 -1.1560 -0.6778 -0.3059
   79MOL     C729803   1.186   1.586   7.706  0.3159 -0.1446 -0.3221
   79MOL     C829804   1.023   1.563   0.065 -0.3289  0.3900 -0.4954
   79MOL     H929805   1.119   1.872   0.316 -0.5636  0.3840 -1.1353
   79MOL    H1029806   1.091   2.029   0.354  0.1583 -1.4831  1.9741
   79MOL    H1129807   1.220   1.995   0.084 -0.9613  0.0614 -1.2208
   79MOL    H1229808   1.188   1.829   7.773 -2.2751  0.3738 -1.5119
   79MOL    H1329809   0.985   1.661   7.714 -1.2786  1.5154  0.0460
   79MOL    H1429810   1.211   1.632   7.610 -1.4079  1.9499  0.1906
   79MOL    H1529811   1.150   1.485   7.689  2.1159 -1.0191  0.8698
   79MOL    H1629812   1.275   1.567   7.766  0.0060 -2.8693 -0.6414
   79MOL    H1729813   1.010   1.465   0.019 -3.6142  1.0285 -1.0401
   79MOL    H1829814   1.099   1.577   0.143 -1.8612  0.7098  0.9790
   79MOL    H1929815   0.933   1.600   0.114 -0.0139  1.4656 -0.7180
   79MOL    H2029816   1.257   1.992   0.304  0.6379 -0.4776  0.1070
   79MOL    C2129817   1.049   2.119   0.111  0.6444  0.0262  0.4873
   79MOL    C2229818   0.905   2.143   0.176 -0.2468  0.3752  0.4412
   79MOL    C2329819   0.791   2.122   0.070 -0.4084  0.3398  0.3745
   79MOL    O2429820   0.792   2.192   7.803 -0.0668  0.3873 -0.2928
   79MOL    N2529821   0.693   2.030   0.095  0.1263  0.9119 -0.2511
   79MOL    C2629822   0.572   2.009   0.022  0.5253 -0.1051  0.4671
   79MOL    C2729823   0.446   2.065   0.088 -0.6702  1.1680  0.0277
   79MOL    C2829824   0.552   1.856   0.004 -0.0021  0.6842 -0.5462
   79MOL    H2929825   1.046   2.145   0.005  0.3315  1.4157  0.8227
   79MOL    H3029826   1.126   2.185   0.150  2.2135 -1.0271 -0.7877
   79MOL    H3129827   0.901   2.080   0.265  1.6897 -0.2669  0.1138
   79MOL    H3229828   0.706   1.984   0.183 -0.7487  0.4712 -0.3515
   79MOL    H3329829   0.581   2.059   7.763 -1.0611 -0.6506  0.0232
   79MOL    H3429830   0.464   2.172   0.084  0.4832  0.9411 -1.3759
   79MOL    H3529831   0.440   2.035   0.192  2.3508 -1.4108 -0.4710
   79MOL    H3629832   0.354   2.045   0.032 -0.3610  0.2256 -0.1475
   79MOL    H3729833   0.613   1.820   7.758  1.0617  1.6557 -0.1854
   79MOL    H3829834   0.580   1.806   0.096  0.1145  0.9414 -0.4406
   79MOL    H3929835   0.445   1.838   7.826  0.4106 -2.0945 -0.4411
   79MOL    C4029836   0.897   2.289   0.231 -0.0900 -0.3047 -0.1044
   79MOL    C4129837   0.767   2.344   0.297  0.0248  0.1661 -0.7839
   79MOL    C4229838   0.717   2.249   0.402  0.1100 -0.8061 -0.2715
   79MOL    O4329839   0.633   2.160   0.376  0.6395  0.3146  0.5189
   79MOL    N4429840   0.772   2.258   0.526  0.0998 -0.5028  0.1333
   79MOL    C4529841   0.728   2.177   0.637  0.1613  0.7778 -0.3094
   79MOL    C4629842   0.841   2.156   0.743 -0.5015  0.3212 -0.4157
   79MOL    C4729843   0.599   2.244   0.686 -0.4310  0.5444 -0.1279
   79MOL    H4829844   0.923   2.354   0.147  1.4189 -0.9402 -0.1478
   79MOL    H4929845   0.985   2.306   0.293 -0.3458  1.4204 -0.1976
   79MOL    H5029846   0.796   2.431   0.356  0.0844 -0.0172 -0.5419
   79MOL    H5129847   0.836   2.336   0.536 -1.7623  1.2254 -1.0359
   79MOL    H5229848   0.693   2.082   0.598 -1.5629  1.4168 -0.3580
   79MOL    H5329849   0.930   2.111   0.699 -0.6786  0.9201 -1.3921
   79MOL    H5429850   0.807   2.095   0.828  0.7809  1.6775  1.1033
   79MOL    H5529851   0.861   2.255   0.784  0.8601 -0.3858  0.6823
   79MOL    H5629852   0.558   2.182   0.765 -0.0428  2.0457  1.2842
   79MOL    H5729853   0.533   2.276   0.605 -0.7880  1.6746  0.5966
   79MOL    H5829854   0.626   2.334   0.742  2.1246  0.6313 -1.4489
   79MOL    C5929855   0.661   2.390   0.193 -0.5052 -0.3137 -0.1240
   79MOL    C6029856   0.574   2.516   0.227  0.4714  0.0134 -0.3042
   79MOL    C6129857   0.660   2.639   0.263 -0.3518  0.2236 -1.1620
   79MOL    O6229858   0.662   2.695   0.376 -0.0176  0.0775 -0.0348
   79MOL    N6329859   0.722   2.699   0.163 -0.1685 -0.3821  1.1206
   79MOL    C6429860   0.832   2.794   0.163  0.1293 -0.1615  0.4923
   79MOL    C6529861   0.795   2.932   0.215 -0.7182  0.4821  0.1016
   79MOL    C6629862   0.961   2.731   0.219  0.5835  0.3112  0.1921
   79MOL    H6729863   0.707   2.414   0.097  0.4761  1.3266  0.7420
   79MOL    H6829864   0.582   2.317   0.176 -0.1216 -0.9309  0.6852
   79MOL    H6929865   0.505   2.541   0.148  2.4813  2.1867 -1.4330
   79MOL    H7029866   0.705   2.651   0.076  1.9846  2.0677 -0.6873
   79MOL    H7129867   0.866   2.809   0.060 -1.6025  1.7387  0.1754
   79MOL    H7229868   0.756   2.915   0.315 -0.7139  1.1256  0.2182
   79MOL    H7329869   0.882   2.998   0.213 -0.1744 -0.2594 -1.4224
   79MOL    H7429870   0.727   2.990   0.153  0.2728  1.4170 -0.1350
   79MOL    H7529871   1.055   2.780   0.193  1.8480 -2.0558  0.1366
   79MOL    H7629872   0.948   2.725   0.327  0.0221  1.1374  0.1775
   79MOL    H7729873   0.980   2.628   0.189 -0.3815 -0.1564  1.1634
   79MOL    C7829874   0.475   2.485   0.340  0.5513  0.1196  0.3599
   79MOL    C7929875   0.383   2.600   0.398 -0.1105  0.1789  0.5352
   79MOL    C8029876   0.314   2.682   0.291 -0.4565  0.1005  0.1898
   79MOL    O8129877   0.231   2.631   0.220  0.1954  0.4916 -0.0558
   79MOL    N8229878   0.366   2.806   0.273  0.4319 -0.4211 -0.3683
   79MOL    C8329879   0.336   2.903   0.160 -0.4082 -0.0318 -0.4278
   79MOL    C8429880   0.362   3.053   0.202 -0.5883  0.3658 -0.1291
   79MOL    C8529881   0.420   2.857   0.038 -0.0974  0.0472 -0.9378
   79MOL    H8629882   0.526   2.447   0.429  2.8636  2.4273  0.0789
   79MOL    H8729883   0.413   2.402   0.306 -1.1061  0.8582  1.5131
   79MOL    H8829884   0.433   2.670   0.465 -0.7394  2.1137 -0.9665
   79MOL    H8929885   0.430   2.838   0.345  2.1727 -0.4517 -1.8872
   79MOL    H9029886   0.230   2.889   0.142 -0.3458 -1.4963  0.2480
   79MOL    H9129887   0.306   3.116   0.133 -1.7714 -0.1236  0.3759
   79MOL    H9229888   0.325   3.076   0.302 -1.2840 -0.7675 -0.1133
   79MOL    H9329889   0.467   3.084   0.194 -0.2753 -0.8565 -0.8277
   79MOL    H9429890   0.366   2.782   7.817 -0.0671 -0.2070 -0.6296
   79MOL    H9529891   0.517   2.820   0.068  0.0699  2.4764  1.7151
   79MOL    H9629892   0.442   2.944   7.812 -0.2393  1.5310  1.0553
   79MOL    C9729893   0.272   2.534   0.482 -0.2856 -0.8709  0.1406
   79MOL    C9829894   0.249   2.599   0.619  0.1523 -0.3976 -0.0495
   79MOL    C9929895   0.197   2.737   0.618 -0.1848 -0.1409  0.2695
   79MOL   O10029896   0.271   2.831   0.620  0.2334 -0.2001 -0.1665
   79MOL   N10129897   0.067   2.754   0.624  0.2335  1.0274 -0.2877
   79MOL   C10229898   7.824   2.879   0.618 -0.5915 -0.0366 -0.0719
   79MOL   C10329899   7.832   2.965   0.748 -0.2193  0.0070 -0.0746
   79MOL   C10429900   0.006   2.969   0.485  0.0635  0.0274  0.3010
   79MOL   H10529901   0.296   2.429   0.500  0.2072 -0.7212  0.3677
   79MOL   H10629902   0.168   2.535   0.450 -0.0552  0.3449 -0.6127
   79MOL   H10729903   0.159   2.550   0.656  0.4206 -1.1252 -0.3393
   79MOL   H10829904   0.021   2.664   0.623  0.5134  0.7087  4.3404
   79MOL   H10929905   7.722   2.841   0.614 -0.5405 -0.2497  0.5919
   79MOL   H11029906   7.811   2.893   0.827  0.4150  2.0738  2.0283
   79MOL   H11129907   0.092   3.013   0.766 -0.7068  0.6667  0.8286
   79MOL   H11229908   7.758   3.045   0.753 -0.6001 -0.4033  0.9262
   79MOL   H11329909   7.774   3.053   0.487 -0.7299 -0.6277  1.1179
   79MOL   H11429910   7.807   2.907   0.402 -1.0933  0.0694  0.7579
   79MOL   H11529911   0.112   2.990   0.470  0.0812  1.2241  1.9881
   79MOL   C11629912   0.358   2.577   0.727  0.3954 -0.2684 -0.8042
   79MOL   C11729913   0.300   2.575   0.873  1.1450 -0.1774 -0.7676
   79MOL   C11829914   0.412   2.620   0.960  0.1989  0.4699 -0.2554
   79MOL   O11929915   0.526   2.563   0.967  0.9261  0.4779 -0.0257
   79MOL   N12029916   0.385   2.727   1.031  0.4454 -0.1443 -0.1302
   79MOL   C12129917   0.479   2.813   1.102  0.5373  0.8307 -0.0583
   79MOL   C12229918   0.489   2.945   1.017  0.2954 -0.5269  0.0625
   79MOL   C12329919   0.440   2.831   1.249  0.0840 -0.5446 -0.0792
   79MOL   H12429920   0.440   2.647   0.710  1.5700 -0.5381  3.1875
   79MOL   H12529921   0.403   2.478   0.720  0.5987 -0.3312  1.0591
   79MOL   H12629922   0.223   2.652   0.867  0.3256 -0.9770 -0.6545
   79MOL   H12729923   0.293   2.768   1.019  1.1876  1.1645 -1.4719
   79MOL   H12829924   0.573   2.758   1.091 -0.1205 -0.4885  0.7711
   79MOL   H12929925   0.476   2.936   0.909  2.2956  0.0092 -0.2361
   79MOL   H13029926   0.584   2.996   1.026 -0.3534  0.7202 -0.0503
   79MOL   H13129927   0.413   3.020   1.039  0.3049 -0.3539 -0.4752
   79MOL   H13229928   0.337   2.854   1.276  0.9964  0.1214  3.0690
   79MOL   H13329929   0.455   2.741   1.308  0.2334 -0.6212 -0.2366
   79MOL   H13429930   0.497   2.910   1.298 -1.0371 -0.0126  0.3941
   79MOL   C13529931   0.224   2.444   0.902  0.2802  0.0796 -0.3044
   79MOL   C13629932   0.190   2.401   1.051 -0.1677 -0.1191  0.6938
   79MOL   C13729933   0.112   2.502   1.130  0.1656 -0.5415  0.3621
   79MOL   O13829934   0.014   2.560   1.079 -0.3330  0.1437  0.0907
   79MOL   N13929935   0.146   2.523   1.263 -0.3335 -0.2402 -0.2091
   79MOL   C14029936   0.067   2.607   1.347  0.2555 -0.3396 -0.0169
   79MOL   C14129937   0.156   2.654   1.462 -0.6489  0.1769 -0.2011
   79MOL   C14229938   7.768   2.540   1.380 -0.5930 -0.0517  0.2342
   79MOL   H14329939   0.281   2.365   0.855 -0.2367 -0.3597 -0.2044
   79MOL   H14429940   0.128   2.446   0.850 -0.8827  0.2420  1.7801
   79MOL   H14529941   0.284   2.383   1.102 -0.0273 -0.4032  0.3437
   79MOL   H14629942   0.220   2.459   1.291  0.1494  0.2208 -0.4309
   79MOL   H14729943   0.056   2.698   1.289  0.1845 -0.1548  0.2878
   79MOL   H14829944   0.126   2.592   1.547 -1.0056 -0.2447 -0.6318
   79MOL   H14929945   0.261   2.653   1.433 -0.0691  2.0868  1.6873
   79MOL   H15029946   0.124   2.755   1.488 -1.7094 -0.7581  2.2828
   79MOL   H15129947   7.790   2.450   1.437 -0.9346 -1.8233 -2.3400
   79MOL   H15229948   7.727   2.500   1.288  2.0588  2.2556 -2.0637
   79MOL   H15329949   7.691   2.599   1.431 -0.8664 -1.6437  1.6986
   79MOL   C15429950   0.128   2.260   1.036  0.1875  0.0360  0.1826
   79MOL   C15529951   0.070   2.190   1.166 -0.3293  0.0075 -0.2789
   79MOL   C15629952   0.180   2.164   1.268  0.0049  0.3701  0.0572
   79MOL   O15729953   0.266   2.082   1.235  0.1348 -0.3960  0.3004
   79MOL   N15829954   0.188   2.239   1.378 -0.1713  0.2022 -0.0523
   79MOL   C15929955   0.280   2.210   1.483 -0.1212  0.3107 -0.1732
   79MOL   C16029956   0.219   2.119   1.587  0.2323 -0.2570 -0.1381
   79MOL   C16129957   0.320   2.341   1.551  0.1196 -0.3801 -0.2371
   79MOL   H16229958   0.207   2.198   0.991 -1.3150 -2.2720  0.6041
   79MOL   H16329959   0.051   2.264   0.958  0.2358  1.1619  0.1975
   79MOL   H16429960   7.836   2.256   1.216  1.5348  0.8168  1.3300
   79MOL   H16529961   0.118   2.311   1.383  1.2468  1.4743  2.6550
   79MOL   H16629962   0.374   2.160   1.462  0.3993  1.3628 -0.3542
   79MOL   H16729963   0.144   2.172   1.647 -0.5753 -0.0651 -1.3076
   79MOL   H16829964   0.165   2.038   1.539  2.0774 -2.3146  1.1293
   79MOL   H16929965   0.292   2.084   1.661  1.6647  0.0369 -1.3893
   79MOL   H17029966   0.374   2.396   1.474  0.3815  0.8265  0.7706
   79MOL   H17129967   0.401   2.308   1.617 -1.2644 -3.1171  0.1612
   79MOL   H17229968   0.239   2.404   1.590  1.8105 -0.2078  3.2097
   79MOL   C17329969   0.004   2.058   1.127  0.0827 -0.2280  0.6955
   79MOL   C17429970   7.819   1.950   1.237 -0.8607  0.0469 -0.2359
   79MOL   C17529971   7.693   1.982   1.313 -0.3928 -0.1904 -0.6038
   79MOL   O17629972   7.587   1.975   1.254  0.3969  0.0193 -0.0604
   79MOL   N17729973   7.708   1.980   1.448 -0.0963 -0.5390 -0.2972
   79MOL   C17829974   7.602   1.975   1.553  0.8588  0.7275  0.1115
   79MOL   C17929975   7.537   2.110   1.575 -0.4562 -0.1005  0.1670
   79MOL   C18029976   7.665   1.924   1.683  0.4545  0.1415 -0.1108
   79MOL   H18129977   0.085   2.015   1.069 -0.3471 -0.3860  0.2083
   79MOL   H18229978   7.751   2.080   1.068  0.9161  0.5664 -0.2819
   79MOL   H18329979   0.065   1.951   1.309 -0.8281  1.7463 -0.2649
   79MOL   H18429980   7.803   1.974   1.483 -0.5329 -1.6128  0.7407
   79MOL   H18529981   7.532   1.902   1.512  0.2444  0.7340  1.1509
   79MOL   H18629982   7.608   2.185   1.611  0.0345 -1.8411  2.9775
   79MOL   H18729983   7.455   2.118   1.647 -0.1704 -1.2164  0.6220
   79MOL   H18829984   7.497   2.147   1.481  1.3997  0.2607 -0.5022
   79MOL   H18929985   7.589   1.919   1.761  0.0213  1.4086 -0.4400
   79MOL   H19029986   7.744   1.997   1.701 -1.9244  2.7727 -0.0232
   79MOL   H19129987   7.689   1.817   1.681 -1.0737 -0.2160 -2.6662
   79MOL   C19229988   7.824   1.800   1.178 -0.4723 -0.0799 -0.7454
   79MOL   C19329989   7.795   1.683   1.271  0.3988 -0.2484 -0.4777
   79MOL   C19429990   0.052   1.690   1.396  0.7494 -0.3711 -0.1533
   79MOL   O19529991   7.834   1.704   1.508 -0.4533 -0.3524 -0.1949
   79MOL   N19629992   0.184   1.674   1.373 -0.4166 -0.3165 -0.8243
   79MOL   C19729993   0.279   1.623   1.472  0.7257 -0.3690 -0.3066
   79MOL   C19829994   0.387   1.546   1.401 -0.1206  0.2225 -0.7245
   79MOL   C19929995   0.339   1.739   1.554  0.0232  0.5961 -0.8592
   79MOL   H20029996   0.074   1.770   1.118 -0.5332  0.7247 -1.2465
   79MOL   H20129997   7.740   1.792   1.110 -0.7840 -1.8643 -0.1782
   79MOL   H20229998   7.694   1.686   1.314  0.7724 -0.4082  0.4229
   79MOL   H20329999   0.205   1.671   1.274 -1.0462 -0.9501 -0.9408
   79MOL   H20430000   0.231   1.556   1.543  0.8036 -0.5074 -0.3853
   79MOL   H20530001   0.467   1.531   1.475 -0.2681  0.8551 -0.4378
   79MOL   H20630002   0.426   1.609   1.321 -0.1814 -0.8756 -1.6409
   79MOL   H20730003   0.343   1.457   1.356 -0.7787  0.8873 -1.3944
   79MOL   H20830004   0.263   1.779   1.622  0.3229 -0.4417  0.0961
   79MOL   H20930005   0.373   1.820   1.488  1.0309  1.1227  0.2927
   79MOL   H21030006   0.428   1.705   1.607  0.6542  1.7418 -1.1660
   79MOL   C21130007   7.806   1.542   1.216  0.2742 -0.2720 -0.3463
   79MOL   C21230008   7.771   1.427   1.312 -0.2398  0.0002 -0.2133
   79MOL   C21330009   7.624   1.413   1.337  0.2327  0.1907  0.4640
   79MOL   O21430010   7.551   1.344   1.263  0.0628  0.0743 -0.2015
   79MOL   N21530011   7.570   1.478   1.441  0.2025  0.4858 -0.1753
   79MOL   C21630012   7.427   1.487   1.475  0.7792  0.6630 -0.4462
   79MOL   C21730013   7.391   1.629   1.516  0.3330  0.4384  0.0332
   79MOL   C21830014   7.397   1.396   1.589 -0.6490 -0.1795  0.7644
   79MOL   H21930015   0.072   1.539   1.179  0.2857 -0.1164 -0.3263
   79MOL   H22030016   7.750   1.536   1.123 -1.1591 -1.1625  0.5568
   79MOL   H22130017   7.809   1.451   1.412  1.3532 -0.6402 -0.6532
   79MOL   H22230018   7.637   1.527   1.499 -0.3512 -0.4402  1.2654
   79MOL   H22330019   7.363   1.459   1.391  0.5790 -2.6187  0.7217
   79MOL   H22430020   7.414   1.704   1.440  3.1582 -0.1059  0.2688
   79MOL   H22530021   7.287   1.621   1.548  0.5940  1.0827  1.0689
   79MOL   H22630022   7.433   1.664   1.610  1.0686  1.6245 -0.7292
   79MOL   H22730023   7.456   1.422   1.677  2.3210 -0.1680 -1.1649
   79MOL   H22830024   7.431   1.296   1.562  0.6906 -0.3652  3.0679
   79MOL   H22930025   7.291   1.399   1.616 -0.6408  1.9096  0.6189
   79MOL   C23030026   0.004   1.296   1.269 -0.1887 -0.2506 -0.2214
   79MOL   C23130027   0.012   1.193   1.387  0.0695  0.0957 -0.0005
   79MOL   C23230028   7.793   1.058   1.341 -0.5124 -0.4501 -0.0220
   79MOL   O23330029   0.021   0.950   1.344 -0.2310 -0.5001 -1.1581
   79MOL   N23430030   7.664   1.075   1.291 -0.0957 -0.4841 -0.4404
   79MOL   C23530031   7.576   0.967   1.237 -0.1186 -0.4157  0.1456
   79MOL   C23630032   7.430   1.006   1.238  0.4583 -0.4468 -0.1111
   79MOL   C23730033   7.623   0.924   1.095  0.5535 -0.2495 -0.0585
   79MOL   H23830034   0.105   1.326   1.240 -0.6757 -0.0993 -1.8315
   79MOL   H23930035   7.790   1.264   1.178  1.1837 -0.8548 -0.7694
   79MOL   H24030036   7.792   1.234   1.471  0.1055  1.6264 -0.7013
   79MOL   H24130037   7.615   1.161   1.314  3.0190  1.3669 -0.4920
   79MOL   H24230038   7.576   0.889   1.313 -1.1675 -0.5761 -0.0113
   79MOL   H24330039   7.391   1.076   1.163  0.2580 -0.8265 -0.3604
   79MOL   H24430040   7.376   0.913   1.223  0.5672 -0.3946 -0.8516
   79MOL   H24530041   7.400   1.057   1.330 -0.3347 -0.1345 -0.5278
   79MOL   H24630042   7.713   0.863   1.094  0.9586  0.2887  2.2790
   79MOL   H24730043   7.639   1.008   1.027  0.8293 -2.4959 -2.8914
   79MOL   H24830044   7.550   0.866   1.039  0.9022 -0.1354 -0.6371
   79MOL   C24930045   0.161   1.200   1.438 -0.2892  0.0608  0.5272
   79MOL   C25030046   0.190   1.117   1.564  0.7055  0.6665  0.0804
   79MOL   C25130047   0.163   1.207   1.689  0.3182 -0.0648  0.6646
   79MOL   O25230048   0.244   1.301   1.706  0.1512  0.3717 -0.0201
   79MOL   N25330049   0.053   1.181   1.762 -0.1291 -0.1028  0.4439
   79MOL   C25430050   7.831   1.270   1.859  0.4604  0.6730  0.1716
   79MOL   C25530051   7.740   1.370   1.794  0.6995 -0.7641 -0.4153
   79MOL   C25630052   7.773   1.199   1.981  0.0855 -0.3980  0.5221
   79MOL   H25730053   0.178   1.305   1.460 -1.8163  0.6168 -0.7947
   79MOL   H25830054   0.229   1.175   1.356  1.5588  1.3958  1.6359
   79MOL   H25930055   0.125   1.031   1.574  0.6599  0.9520  2.4394
   79MOL   H26030056   7.833   1.101   1.737 -2.0472  2.3622 -3.7572
   79MOL   H26130057   0.082   1.324   1.897  1.9383 -1.3667 -0.2237
   79MOL   H26230058   7.712   1.432   1.879  0.4851 -0.7278 -0.5131
   79MOL   H26330059   7.798   1.427   1.720 -0.2346 -0.1879 -0.7161
   79MOL   H26430060   7.646   1.331   1.755  1.0948  0.4259 -2.7046
   79MOL   H26530061   7.680   1.147   1.958 -1.2255  2.5543 -1.2263
   79MOL   H26630062   0.018   1.139   2.020 -0.3035 -0.2129  1.6438
   79MOL   H26730063   7.757   1.271   2.061  0.2098 -1.1753  1.2480
   79MOL   C26830064   0.335   1.065   1.566 -0.0403 -0.2308 -0.8100
   79MOL   C26930065   0.377   0.944   1.478  0.8272 -0.6030 -0.0767
   79MOL   C27030066   0.409   0.993   1.338  0.4951  0.7242  0.2461
   79MOL   O27130067   0.502   1.068   1.315 -0.5590 -0.4333 -0.0216
   79MOL   N27230068   0.328   0.963   1.234  0.6243 -0.0252  0.2320
   79MOL   C27330069   0.350   1.003   1.099  0.1859 -0.0317  0.3078
   79MOL   C27430070   0.452   0.900   1.028  0.4272 -0.3850 -0.5648
   79MOL   C27530071   0.224   0.999   1.017  0.2069 -0.9538  0.1173
   79MOL   H27630072   0.401   1.151   1.561  0.1194 -0.3099 -0.1346
   79MOL   H27730073   0.363   1.037   1.668  0.9260  0.0425 -0.9980
   79MOL   H27830074   0.288   0.882   1.464 -1.5479  2.2738  1.3892
   79MOL   H27930075   0.248   0.908   1.261 -1.0638  2.9441  1.6141
   79MOL   H28030076   0.387   1.106   1.096 -0.7215  0.2943  0.1664
   79MOL   H28130077   0.545   0.884   1.082  1.2044  1.5979 -1.2824
   79MOL   H28230078   0.391   0.810   1.039 -0.3903  0.4182  1.8657
   79MOL   H28330079   0.469   0.925   0.923 -1.2774 -1.0638 -1.0148
   79MOL   H28430080   0.192   0.900   0.985 -1.8891  0.0056 -0.8858
   79MOL   H28530081   0.140   1.037   1.076 -0.6739 -3.1141  0.3099
   79MOL   H28630082   0.235   1.059   0.927  0.6206  2.5748  2.4132
   79MOL   C28730083   0.497   0.877   1.550  0.4571  0.7673  0.2657
   79MOL   C28830084   0.579   0.772   1.476  0.2051  0.0074  0.1309
   79MOL   C28930085   0.503   0.658   1.417  0.4496  0.3171  0.4838
   79MOL   O29030086   0.386   0.640   1.449  0.2600  0.1508 -0.4487
   79MOL   N29130087   0.566   0.601   1.320  0.3665  0.4784  0.1922
   79MOL   C29230088   0.517   0.493   1.237  0.3504 -0.4438  0.8549
   79MOL   C29330089   0.450   0.542   1.111  0.0107 -0.4087  0.5906
   79MOL   C29430090   0.638   0.403   1.210  0.4200  0.0810  0.7225
   79MOL   H29530091   0.565   0.960   1.569  0.1491  1.4231 -1.4402
   79MOL   H29630092   0.466   0.832   1.645 -1.7731 -1.1582 -1.3035
   79MOL   H29730093   0.628   0.830   1.398 -1.1623 -0.1377 -0.8314
   79MOL   H29830094   0.655   0.635   1.286  0.5557 -1.0769 -0.9234
   79MOL   H29930095   0.444   0.438   1.296 -2.6322 -0.1809 -2.4025
   79MOL   H30030096   0.417   0.457   1.052 -1.3990 -0.6010  1.6235
   79MOL   H30130097   0.364   0.609   1.119 -0.1265 -0.4689 -0.3173
   79MOL   H30230098   0.518   0.585   1.037 -0.5543 -0.1136  0.2387
   79MOL   H30330099   0.603   0.304   1.183  0.2057 -0.2411  2.1079
   79MOL   H30430100   0.713   0.447   1.144 -0.8796  0.3378 -0.6130
   79MOL   H30530101   0.693   0.400   1.304 -0.5200  0.9944  1.3170
   79MOL   C30630102   0.690   0.715   1.575 -0.4659  0.3087  0.4999
   79MOL   C30730103   0.834   0.749   1.539  0.3085 -0.2155  0.3387
   79MOL   C30830104   0.882   0.716   1.394  0.4450  0.1137  0.2683
   79MOL   O30930105   0.847   0.617   1.338  0.5559  0.1831  0.6337
   79MOL   N31030106   0.971   0.801   1.345  0.0013 -0.3374 -0.3904
   79MOL   C31130107   1.046   0.778   1.223 -0.4552 -0.0630 -0.2421
   79MOL   C31230108   0.969   0.800   1.088 -0.2680 -0.6686  0.1836
   79MOL   C31330109   1.173   0.860   1.209  0.0088  0.2763 -0.0238
   79MOL   H31430110   0.683   0.746   1.680  0.1980 -2.1923  1.3300
   79MOL   H31530111   0.666   0.609   1.574  0.1953  0.1476  1.0472
   79MOL   H31630112   0.839   0.858   1.530  2.5555 -0.2284  1.0444
   79MOL   H31730113   0.998   0.878   1.404 -1.1601 -1.4253  1.6227
   79MOL   H31830114   1.074   0.673   1.230 -1.6402 -0.3083  1.1016
   79MOL   H31930115   0.983   0.899   1.044 -1.5484 -0.7561 -0.4474
   79MOL   H32030116   0.861   0.790   1.094 -0.2686 -1.2799 -0.6543
   79MOL   H32130117   1.000   0.733   1.007  1.9412  0.2405  0.2393
   79MOL   H32230118   1.223   0.835   1.116 -0.5471  1.8803 -0.7660
   79MOL   H32330119   1.251   0.853   1.285  0.6293 -1.0978 -0.7715
   79MOL   H32430120   1.144   0.965   1.214 -1.0567 -0.1081  2.7836
   79MOL   C32530121   0.934   0.695   1.638 -0.6261  0.9365 -0.3038
   79MOL   C32630122   0.972   0.542   1.637  0.0385  0.2511 -0.0242
   79MOL   C32730123   1.110   0.517   1.573  0.3880 -0.2192 -0.3424
   79MOL   O32830124   1.204   0.585   1.605  0.0586 -0.2523 -0.2625
   79MOL   N32930125   1.115   0.428   1.476  0.7600 -0.0080 -0.2497
   79MOL   C33030126   1.230   0.381   1.402  0.4628 -0.1417  0.1777
   79MOL   C33130127   1.180   0.344   1.262  0.7296  0.6615  0.0096
   79MOL   C33230128   1.305   0.267   1.470  0.5285 -0.4425  0.1498
   79MOL   H33330129   0.910   0.727   1.740  1.6319  3.6075 -0.5471
   79MOL   H33430130   1.026   0.754   1.639  1.4922 -2.2056 -0.9544
   79MOL   H33530131   0.896   0.488   1.579 -0.7578  0.5615  0.7194
   79MOL   H33630132   1.029   0.377   1.461 -0.8568  2.1204  1.5063
   79MOL   H33730133   1.301   0.463   1.391 -1.3749  1.3860 -0.5270
   79MOL   H33830134   1.271   0.354   1.203  0.1860  0.3188 -0.8902
   79MOL   H33930135   1.138   0.244   1.249  3.2144 -0.2476 -1.3958
   79MOL   H34030136   1.105   0.409   1.218 -1.4126 -1.1830  0.8343
   79MOL   H34130137   1.379   0.219   1.406  0.2496 -0.4229 -0.1907
   79MOL   H34230138   1.252   0.179   1.509  3.0411 -2.4023 -0.7077
   79MOL   H34330139   1.356   0.296   1.561  0.1850  0.1039  0.1695
   79MOL   C34430140   0.971   0.475   1.774 -0.0860 -0.5401  0.1781
   79MOL   C34530141   0.830   0.463   1.839 -0.0093  0.3285 -0.4015
   79MOL   C34630142   0.764   0.332   1.789  0.2027 -0.0936  0.8798
   79MOL   O34730143   0.816   0.224   1.786  0.0281  0.4215  0.4025
   79MOL   N34830144   0.636   0.349   1.748 -0.4817 -0.4263  0.7016
   79MOL   C34930145   0.549   0.258   1.672  0.5612  0.5084 -0.4045
   79MOL   C35030146   0.401   0.306   1.693 -0.3796 -0.5171 -0.6937
   79MOL   C35130147   0.602   0.257   1.527 -0.4122  0.1079  0.2633
   79MOL   H35230148   1.038   0.537   1.834 -2.8614  1.9150  0.8793
   79MOL   H35330149   1.018   0.377   1.765 -0.8014 -0.6606 -2.7425
   79MOL   H35430150   0.765   0.550   1.824  0.0107  0.6932  1.5343
   79MOL   H35530151   0.578   0.431   1.765  0.2383  0.2108  0.0680
   79MOL   H35630152   0.558   0.159   1.717  0.2882 -0.0100 -1.4674
   79MOL   H35730153   0.334   0.261   1.620 -2.3868  2.0291 -0.5017
   79MOL   H35830154   0.376   0.294   1.799  2.9591  2.3636  0.4907
   79MOL   H35930155   0.394   0.408   1.657 -1.5257 -0.7445 -1.1400
   79MOL   H36030156   0.553   0.184   1.462  0.9272 -1.9473  1.4735
   79MOL   H36130157   0.599   0.357   1.486 -0.9439  0.2199  0.5657
   79MOL   H36230158   0.701   0.212   1.527  0.9867  3.0888 -0.8840
   79MOL   C36330159   0.845   0.450   1.999  0.0401 -0.2117  0.5570
   79MOL   C36430160   0.898   0.583   2.066  0.5161  0.4026  0.7868
   79MOL   C36530161   0.817   0.712   2.044 -0.4552 -0.5346  0.3137
   79MOL   O36630162   0.695   0.707   2.025 -0.6452  0.4445  0.1284
   79MOL   N36730163   0.889   0.827   2.050  0.3184 -0.2455 -0.0145
   79MOL   C36830164   0.829   0.960   2.032 -0.5522 -0.4840  0.1929
   79MOL   C36930165   0.916   1.071   2.090 -0.3465  0.0355  0.5090
   79MOL   C37030166   0.802   0.988   1.885 -1.2912  0.5185 -0.1612
   79MOL   H37130167   0.912   0.370   2.031  0.8103 -0.2196 -1.0367
   79MOL   H37230168   0.750   0.421   2.046 -0.3868 -1.1527 -0.8497
   79MOL   H37330169   1.000   0.604   2.032 -0.0708  3.4263  0.7107
   79MOL   H37430170   0.981   0.828   2.094  0.1010  0.0285  0.4402
   79MOL   H37530171   0.729   0.971   2.072 -1.1251 -1.0072 -1.0666
   79MOL   H37630172   0.881   1.174   2.085  0.3649  0.3390  1.7212
   79MOL   H37730173   0.923   1.048   2.197 -0.3156 -0.6548  0.3624
   79MOL   H37830174   1.017   1.068   2.049 -1.0666  2.6264 -1.5542
   79MOL   H37930175   0.783   1.095   1.871  2.2536  1.0862 -1.1897
   79MOL   H38030176   0.897   0.975   1.833 -2.7023 -2.7294 -2.0390
   79MOL   H38130177   0.720   0.932   1.840 -0.3450 -0.6046 -0.4985
   79MOL   H38230178   0.899   0.564   2.173  0.4588 -1.9738  0.3727
   80MOL     C130179   1.981   2.494   5.762 -0.0972 -0.0621 -0.2725
   80MOL     C230180   1.879   2.381   5.734 -0.7431  0.0307 -0.9535
   80MOL     C330181   1.952   2.271   5.653 -0.0278  1.0606 -1.1946
   80MOL     O430182   2.043   2.207   5.701 -0.4753  0.0950 -0.2531
   80MOL     N530183   1.906   2.250   5.531  1.2383  0.1835 -0.3640
   80MOL     C630184   1.960   2.146   5.446 -0.8339 -0.5358 -0.6023
   80MOL     C730185   1.861   2.132   5.336  0.9062 -0.4111  0.2506
   80MOL     C830186   2.109   2.161   5.404 -0.1723 -0.4897  0.4412
   80MOL     H930187   1.933   2.591   5.776  1.2410  0.7775 -1.3886
   80MOL    H1030188   2.040   2.502   5.670 -0.3654  0.5409 -0.3899
   80MOL    H1130189   1.801   2.407   5.663  0.9865  1.7129 -2.2987
   80MOL    H1230190   1.820   2.298   5.510 -0.4862 -2.4298  0.5262
   80MOL    H1330191   1.952   2.059   5.511 -2.1131  1.0704  1.4435
   80MOL    H1430192   1.763   2.109   5.378  0.6286  0.4523  0.0840
   80MOL    H1530193   1.888   2.050   5.269  0.4269 -2.5732  2.6192
   80MOL    H1630194   1.863   2.218   5.269 -0.4396 -1.4559 -1.1499
   80MOL    H1730195   2.176   2.146   5.488  0.1215 -0.3396  0.2338
   80MOL    H1830196   2.130   2.081   5.333  1.2016  0.6603 -0.4711
   80MOL    H1930197   2.122   2.265   5.376  1.0777 -0.9632 -0.7802
   80MOL    H2030198   2.053   2.483   5.843 -3.2365  0.8907  2.7713
   80MOL    C2130199   1.813   2.333   5.867  0.3880  0.3433  0.7848
   80MOL    C2230200   1.712   2.216   5.858 -0.3699  0.5143 -0.0497
   80MOL    C2330201   1.598   2.248   5.764 -0.5286  0.8784  0.1725
   80MOL    O2430202   1.540   2.355   5.777 -0.8078  0.2792 -0.1398
   80MOL    N2530203   1.574   2.163   5.666  0.0084 -0.2192 -0.2271
   80MOL    C2630204   1.477   2.178   5.557 -0.4160  0.3818  0.4110
   80MOL    C2730205   1.469   2.044   5.478  0.1651 -0.1194  0.2963
   80MOL    C2830206   1.527   2.286   5.459  0.0925 -0.2603 -0.9204
   80MOL    H2930207   1.782   2.426   5.914  1.6757  1.2581 -0.1434
   80MOL    H3030208   1.894   2.297   5.930  0.2830 -1.2586  0.0284
   80MOL    H3130209   1.762   2.131   5.811  0.6887  2.1933 -2.0269
   80MOL    H3230210   1.639   2.087   5.678 -0.3814 -0.2255  2.0012
   80MOL    H3330211   1.382   2.205   5.603  0.3425  0.8680  1.7299
   80MOL    H3430212   1.396   2.056   5.398  0.5978  2.4746  0.2549
   80MOL    H3530213   1.449   1.955   5.537 -0.3440 -0.4849 -0.4088
   80MOL    H3630214   1.568   2.024   5.436  0.2465  1.2288 -0.1769
   80MOL    H3730215   1.526   2.385   5.506  1.5203 -0.8559  0.4010
   80MOL    H3830216   1.625   2.271   5.413  1.6329  2.1117  1.4057
   80MOL    H3930217   1.455   2.290   5.377  0.0187  0.3558 -0.8264
   80MOL    C4030218   1.657   2.160   5.996  0.1210  0.5715  0.1889
   80MOL    C4130219   1.754   2.151   6.117  0.1927 -0.4844  0.3405
   80MOL    C4230220   1.848   2.024   6.098  0.3587  0.4734  0.0111
   80MOL    O4330221   1.794   1.918   6.063  0.3924 -0.4141 -0.2514
   80MOL    N4430222   1.976   2.036   6.132  0.1304  0.4776  0.2832
   80MOL    C4530223   2.081   1.931   6.111  0.0933  0.3754  0.2540
   80MOL    C4630224   2.137   1.949   5.965  0.7036  0.3178 -0.2790
   80MOL    C4730225   2.194   1.952   6.216  0.4799  0.2357 -0.0058
   80MOL    H4830226   1.604   2.069   5.968 -1.4070  1.7207 -0.7077
   80MOL    H4930227   1.577   2.224   6.032 -0.8740 -0.4243 -0.2498
   80MOL    H5030228   1.820   2.238   6.114 -0.8224  0.3344  1.2194
   80MOL    H5130229   2.007   2.130   6.151  1.5461  0.1220 -0.2494
   80MOL    H5230230   2.037   1.834   6.132  2.1098 -0.4182  0.8485
   80MOL    H5330231   2.207   1.869   5.942  0.6996 -0.8283  3.3522
   80MOL    H5430232   2.178   2.046   5.938  1.7055 -0.6249 -2.1748
   80MOL    H5530233   2.050   1.937   5.901  0.3344  2.7509 -0.2936
   80MOL    H5630234   2.250   2.044   6.199  0.5708  0.2467  0.3480
   80MOL    H5730235   2.261   1.868   6.197  1.7066  0.2551  3.8749
   80MOL    H5830236   2.169   1.944   6.322  0.4967 -0.2252 -0.0354
   80MOL    C5930237   1.675   2.145   6.250 -0.5781 -0.8646 -0.7621
   80MOL    C6030238   1.761   2.156   6.380 -0.3890  0.2094 -0.2511
   80MOL    C6130239   1.697   2.073   6.491 -0.1079  0.1576 -0.2955
   80MOL    O6230240   1.605   2.117   6.565  0.4802 -0.0205  0.4587
   80MOL    N6330241   1.739   1.951   6.496 -0.1248 -0.9633  0.3016
   80MOL    C6430242   1.677   1.844   6.562  0.2382  0.2599  0.4553
   80MOL    C6530243   1.556   1.790   6.479  0.3096 -0.3182  0.1070
   80MOL    C6630244   1.779   1.736   6.601  0.5111  0.0904 -0.1290
   80MOL    H6730245   1.600   2.221   6.272  0.0627 -1.0364  2.1989
   80MOL    H6830246   1.622   2.050   6.255 -0.1274 -1.0090  1.6992
   80MOL    H6930247   1.849   2.097   6.356 -2.3675 -2.9378 -0.0071
   80MOL    H7030248   1.823   1.930   6.445  1.1775  0.6231  1.7445
   80MOL    H7130249   1.645   1.887   6.657  0.1993 -0.8047  0.9320
   80MOL    H7230250   1.514   1.694   6.509  2.3613 -1.3192 -0.1974
   80MOL    H7330251   1.474   1.862   6.470 -0.5716 -1.3375 -0.0941
   80MOL    H7430252   1.600   1.782   6.380  0.9990  1.8545  0.2173
   80MOL    H7530253   1.746   1.679   6.688 -0.3414 -0.6682 -0.9455
   80MOL    H7630254   1.777   1.653   6.531  1.8745 -0.2181  0.1822
   80MOL    H7730255   1.883   1.769   6.610  0.5306  0.3204 -1.1557
   80MOL    C7830256   1.792   2.309   6.406  0.1705 -0.4281 -0.7759
   80MOL    C7930257   1.872   2.352   6.531  0.4466  0.5360 -0.4017
   80MOL    C8030258   1.996   2.268   6.542 -0.3914  0.0247 -0.3761
   80MOL    O8130259   2.068   2.241   6.442  0.5275  0.0785  0.2662
   80MOL    N8230260   2.037   2.242   6.665 -0.5106 -0.6279  0.7025
   80MOL    C8330261   2.162   2.177   6.700  0.4095 -0.2966 -0.2971
   80MOL    C8430262   2.209   2.228   6.838 -0.5856  0.0263  0.3323
   80MOL    C8530263   2.151   2.024   6.693  0.6811 -0.7593  0.2488
   80MOL    H8630264   1.698   2.363   6.413 -0.9732 -2.4622 -0.0012
   80MOL    H8730265   1.838   2.335   6.311  0.4941  1.3944 -0.1485
   80MOL    H8830266   1.806   2.350   6.618 -0.2565 -0.4619 -0.9470
   80MOL    H8930267   1.970   2.255   6.739 -1.1353 -1.6032  0.3076
   80MOL    H9030268   2.235   2.208   6.625  1.1785  2.8719  1.6560
   80MOL    H9130269   2.311   2.193   6.855  0.1439  1.8563 -0.1339
   80MOL    H9230270   2.218   2.336   6.852 -1.9919  0.5997 -2.7981
   80MOL    H9330271   2.148   2.189   6.919 -1.1360 -2.7886 -1.3674
   80MOL    H9430272   2.237   1.980   6.743  0.8467 -1.5225 -0.6985
   80MOL    H9530273   2.163   1.990   6.590  0.8137 -0.2742  0.1014
   80MOL    H9630274   2.056   1.979   6.722  1.4365 -2.4407  0.1846
   80MOL    C9730275   1.926   2.497   6.524  0.3342 -0.3216 -0.0937
   80MOL    C9830276   1.813   2.610   6.505  0.3726  0.0175 -0.2962
   80MOL    C9930277   1.773   2.627   6.359  0.2678 -0.2613  0.1800
   80MOL   O10030278   1.859   2.628   6.269 -0.4876 -0.2216  0.7384
   80MOL   N10130279   1.642   2.624   6.328 -0.2846  0.5934 -0.0164
   80MOL   C10230280   1.583   2.629   6.199 -0.2931 -0.0534 -0.4033
   80MOL   C10330281   1.568   2.492   6.122 -0.2230  0.5206  0.1581
   80MOL   C10430282   1.443   2.680   6.208 -0.4030  0.5657 -0.2864
   80MOL   H10530283   1.999   2.495   6.444  2.9650 -0.5852  2.2432
   80MOL   H10630284   1.983   2.525   6.613  0.5174  0.1468 -0.3602
   80MOL   H10730285   1.724   2.578   6.558  0.9973 -3.7285 -1.3372
   80MOL   H10830286   1.583   2.648   6.407 -0.4906 -0.0673  0.0335
   80MOL   H10930287   1.642   2.696   6.137  3.5384 -2.5841  0.3373
   80MOL   H11030288   1.533   2.496   6.019  0.5345  1.4820 -0.0745
   80MOL   H11130289   1.661   2.435   6.117  0.3730  1.6911 -4.0096
   80MOL   H11230290   1.500   2.424   6.173  0.3714 -0.5194 -0.4325
   80MOL   H11330291   1.438   2.763   6.279  2.0178  1.0359 -0.6199
   80MOL   H11430292   1.363   2.612   6.238 -1.3244  1.0900 -1.5174
   80MOL   H11530293   1.405   2.714   6.112 -1.1745 -1.6588 -0.8082
   80MOL   C11630294   1.852   2.737   6.589  0.1542 -0.9041 -0.0298
   80MOL   C11730295   1.752   2.855   6.608 -0.8646 -0.5530 -0.4488
   80MOL   C11830296   1.601   2.833   6.630 -0.6345 -0.2487  0.4540
   80MOL   O11930297   1.531   2.791   6.540 -0.0703  0.1057  0.2397
   80MOL   N12030298   1.556   2.870   6.750  0.0843  0.2031 -0.4324
   80MOL   C12130299   1.410   2.860   6.790  0.2755  0.3553  0.3183
   80MOL   C12230300   1.406   2.851   6.946 -0.5233  0.5386  0.3970
   80MOL   C12330301   1.336   2.991   6.746 -0.5120  0.9755 -0.5371
   80MOL   H12430302   1.948   2.777   6.557 -0.5864  0.2654 -0.8150
   80MOL   H12530303   1.886   2.694   6.684  0.6601  0.7012  0.5362
   80MOL   H12630304   1.796   2.904   6.695 -2.0403 -0.2934  0.0086
   80MOL   H12730305   1.627   2.896   6.817 -1.0910  2.1178  0.1137
   80MOL   H12830306   1.365   2.770   6.747 -0.2616  1.7260 -2.0953
   80MOL   H12930307   1.310   2.822   6.990  0.9531 -0.8921  2.7815
   80MOL   H13030308   1.440   2.946   6.988  0.9584  0.9010 -1.5447
   80MOL   H13130309   1.485   2.779   6.968 -0.5094  0.9733  1.8525
   80MOL   H13230310   1.337   3.004   6.638  3.1614  1.3712 -0.5181
   80MOL   H13330311   1.234   2.983   6.783 -0.8300 -1.4976 -1.8800
   80MOL   H13430312   1.396   3.072   6.789 -0.2504  0.4126  0.1640
   80MOL   C13530313   1.776   2.955   6.492  0.3306  0.9080 -0.0328
   80MOL   C13630314   1.710   3.089   6.518  0.3771 -0.1002  0.0867
   80MOL   C13730315   1.816   3.172   6.597 -0.0583 -1.2366 -0.3563
   80MOL   O13830316   1.931   3.190   6.548 -0.7815  0.1004  0.5282
   80MOL   N13930317   1.770   3.233   6.710  0.1903  0.3316  0.2057
   80MOL   C14030318   1.858   3.308   6.797 -0.2179  0.2113  0.7470
   80MOL   C14130319   1.803   3.310   6.941  0.4208  0.0174  0.0399
   80MOL   C14230320   1.878   3.458   6.745  0.8754 -0.5659  0.1179
   80MOL   H14330321   1.743   2.913   6.397  1.1234 -2.2258  1.0072
   80MOL   H14430322   1.882   2.973   6.479  0.1447  1.7776 -0.3507
   80MOL   H14530323   1.616   3.085   6.573  1.6381 -0.0945  2.2861
   80MOL   H14630324   1.670   3.241   6.716  0.0757 -0.2108 -0.9230
   80MOL   H14730325   1.960   3.269   6.800  1.1761  3.5741 -0.8702
   80MOL   H14830326   1.876   3.343   7.014 -0.3395  2.8060 -0.4095
   80MOL   H14930327   1.725   3.386   6.939  0.6963  0.3081  0.4955
   80MOL   H15030328   1.761   3.219   6.983  2.2760 -1.6835 -1.7051
   80MOL   H15130329   1.939   3.518   6.814 -0.2917  1.2407 -0.3859
   80MOL   H15230330   1.785   3.514   6.741 -0.0006 -2.0209  0.0278
   80MOL   H15330331   1.923   3.445   6.647 -1.6952  3.1347 -1.6368
   80MOL   C15430332   1.682   3.158   6.386 -0.1544 -0.5120  0.4595
   80MOL   C15530333   1.620   3.299   6.408  0.0863 -0.3400 -0.7412
   80MOL   C15630334   1.476   3.275   6.462  0.7175  0.3196  0.1072
   80MOL   O15730335   1.452   3.309   6.577  0.0253 -0.7495  0.1151
   80MOL   N15830336   1.388   3.231   6.369  0.0285 -0.5235  0.2359
   80MOL   C15930337   1.241   3.210   6.388 -0.3464 -0.2777 -0.6509
   80MOL   C16030338   1.205   3.061   6.370 -0.6449  0.9047 -0.3115
   80MOL   C16130339   1.173   3.298   6.290  0.4775  0.8917 -0.7099
   80MOL   H16230340   1.606   3.097   6.337 -1.3000 -1.4035  3.2278
   80MOL   H16330341   1.773   3.163   6.326  0.5330  2.1938  1.6568
   80MOL   H16430342   1.669   3.364   6.480 -1.4198 -0.6243  0.5830
   80MOL   H16530343   1.431   3.217   6.278 -0.2035  2.2751 -0.3576
   80MOL   H16630344   1.223   3.236   6.492 -1.5611 -2.7213 -0.2164
   80MOL   H16730345   1.290   2.993   6.363 -2.2252 -1.1215 -0.2648
   80MOL   H16830346   1.126   3.025   6.436 -0.2304 -0.7632 -0.7047
   80MOL   H16930347   1.156   3.047   6.274 -0.0446 -1.4249 -0.2879
   80MOL   H17030348   1.072   3.257   6.292  0.9914 -0.3604  3.0082
   80MOL   H17130349   1.221   3.284   6.193  2.7035 -1.3373  0.6563
   80MOL   H17230350   1.179   3.400   6.327  0.3805 -0.2928  2.6989
   80MOL   C17330351   1.620   3.385   6.274  0.2800  0.0577 -0.8398
   80MOL   C17430352   1.677   3.534   6.284  0.3117  0.5677 -0.3796
   80MOL   C17530353   1.601   3.623   6.387  0.3848  0.7550  0.0182
   80MOL   O17630354   1.664   3.685   6.478 -0.5374 -0.4529 -0.1240
   80MOL   N17730355   1.469   3.626   6.377  0.1932  0.2623  0.4647
   80MOL   C17830356   1.377   3.691   6.460  0.4990  0.7500 -0.2817
   80MOL   C17930357   1.362   3.642   6.603  0.6869  0.3776 -0.3117
   80MOL   C18030358   1.244   3.717   6.391 -0.4651 -0.3976  0.1155
   80MOL   H18130359   1.518   3.396   6.237  0.6167 -0.3534 -1.9126
   80MOL   H18230360   1.669   3.329   6.194 -1.0638 -1.3829 -0.6758
   80MOL   H18330361   1.664   3.584   6.188 -0.0570  1.3420  0.0676
   80MOL   H18430362   1.429   3.575   6.300 -1.6224  2.6791 -0.2296
   80MOL   H18530363   1.414   3.792   6.482 -1.8352  1.7624 -0.8551
   80MOL   H18630364   1.289   3.692   6.666  0.2709 -1.0261  0.3445
   80MOL   H18730365   1.452   3.651   6.665  0.1483 -1.4463  0.7821
   80MOL   H18830366   1.341   3.537   6.587 -0.6578  0.5696  0.1486
   80MOL   H18930367   1.196   3.628   6.350  1.6896 -0.7179 -1.8228
   80MOL   H19030368   1.261   3.792   6.314 -1.9802  1.3034  1.3999
   80MOL   H19130369   1.173   3.768   6.456 -1.0120 -0.1745 -0.6573
   80MOL   C19230370   1.826   3.538   6.308  0.0441 -0.3460 -0.2587
   80MOL   C19330371   1.921   3.442   6.229  0.3406 -0.5616  0.8572
   80MOL   C19430372   2.066   3.461   6.277 -0.0340 -0.0025 -0.0418
   80MOL   O19530373   2.131   3.559   6.237 -0.3132 -0.9756 -0.2035
   80MOL   N19630374   2.116   3.365   6.362  0.5420 -0.4110 -0.3948
   80MOL   C19730375   2.257   3.357   6.411 -0.2310  0.1633 -1.0159
   80MOL   C19830376   2.259   3.276   6.541  0.0638 -0.1134 -0.1322
   80MOL   C19930377   2.355   3.296   6.310 -0.5203 -1.2060  0.1434
   80MOL   H20030378   1.846   3.502   6.409 -1.0586 -2.2925 -0.7262
   80MOL   H20130379   1.872   3.635   6.289  1.1836 -0.5870  1.1510
   80MOL   H20230380   1.891   3.339   6.248 -1.6083 -0.2450 -0.3172
   80MOL   H20330381   2.050   3.294   6.388 -0.3009  0.2985 -0.5806
   80MOL   H20430382   2.291   3.458   6.432 -0.9801  0.1020  0.6080
   80MOL   H20530383   2.363   3.271   6.573 -0.3022  0.0521  1.0947
   80MOL   H20630384   2.247   3.169   6.525 -0.4867  0.0112 -0.5719
   80MOL   H20730385   2.194   3.312   6.620 -0.7159  2.1831 -1.7715
   80MOL   H20830386   2.357   3.188   6.312 -0.9533 -1.1981  2.5215
   80MOL   H20930387   2.457   3.317   6.345 -0.0277 -2.3563 -0.5776
   80MOL   H21030388   2.345   3.328   6.206  1.6731  1.5773  0.7055
   80MOL   C21130389   1.919   3.472   6.069  0.5117  1.1801  0.2363
   80MOL   C21230390   1.975   3.369   5.976  0.3909  0.1887  0.0457
   80MOL   C21330391   1.895   3.238   5.974 -0.2072  0.3064  0.7532
   80MOL   O21430392   1.778   3.237   5.950  0.1552 -0.2865 -0.5663
   80MOL   N21530393   1.959   3.119   5.991 -0.1972  0.1869 -0.1856
   80MOL   C21630394   1.902   3.002   6.052 -1.2044  0.2599  1.9213
   80MOL   C21730395   1.971   2.972   6.183  0.2400 -0.6630  0.1176
   80MOL   C21830396   1.922   2.890   5.950  0.3089 -0.1955 -0.3450
   80MOL   H21930397   1.965   3.567   6.042 -1.8574  1.9563 -1.1972
   80MOL   H22030398   1.815   3.489   6.039  0.1794 -0.1841  0.5552
   80MOL   H22130399   2.080   3.351   5.997  0.2133 -0.0394  0.7356
   80MOL   H22230400   2.055   3.125   5.961  0.1784 -2.2535  0.4153
   80MOL   H22330401   1.798   3.017   6.078 -1.5876 -0.9256  1.1034
   80MOL   H22430402   1.911   2.888   6.216 -0.2430 -1.1643 -1.9562
   80MOL   H22530403   2.073   2.943   6.159 -0.4205 -1.8230 -1.3847
   80MOL   H22630404   1.985   3.044   6.263 -0.8401 -0.6634  0.3106
   80MOL   H22730405   2.024   2.879   5.915  0.3957 -0.5681  0.0196
   80MOL   H22830406   1.870   2.922   5.859 -0.1494  0.1017  0.0164
   80MOL   H22930407   1.889   2.793   5.988  0.2576 -0.3892 -0.8852
   80MOL   C23030408   1.977   3.415   5.825 -0.5718 -0.4068  0.8260
   80MOL   C23130409   2.112   3.423   5.759  0.2470 -0.0779 -0.4172
   80MOL   C23230410   2.204   3.293   5.776 -0.3570 -0.4962  0.2827
   80MOL   O23330411   2.148   3.185   5.789 -0.1648 -0.4920 -0.3863
   80MOL   N23430412   2.333   3.316   5.803 -0.0846  0.1658  0.1679
   80MOL   C23530413   2.424   3.206   5.832 -0.3455  0.5058  0.0957
   80MOL   C23630414   2.561   3.237   5.767 -0.2406  0.5668 -0.1162
   80MOL   C23730415   2.426   3.178   5.985  0.5462  0.3361  0.5871
   80MOL   H23830416   1.928   3.513   5.831  0.0369 -0.0216 -0.3941
   80MOL   H23930417   1.912   3.358   5.758 -0.4699  0.7625 -0.2897
   80MOL   H24030418   2.157   3.500   5.822 -1.3195  0.0462  0.5648
   80MOL   H24130419   2.373   3.405   5.779  0.6736 -0.6008 -1.4716
   80MOL   H24230420   2.391   3.115   5.782 -1.3708 -0.2521  2.0867
   80MOL   H24330421   2.613   3.326   5.801  0.5618 -0.1342  0.5117
   80MOL   H24430422   2.635   3.159   5.783 -0.6511 -0.0527 -1.1463
   80MOL   H24530423   2.560   3.240   5.658 -1.7334  1.8970 -0.0758
   80MOL   H24630424   2.329   3.179   6.035 -0.0523 -0.0243 -0.5364
   80MOL   H24730425   2.493   3.252   6.028 -0.7273  1.9619 -0.1475
   80MOL   H24830426   2.470   3.083   6.016 -0.9939  0.1754  2.4010
   80MOL   C24930427   2.111   3.476   5.607  0.2158  0.2141  0.8843
   80MOL   C25030428   2.018   3.399   5.505  0.5787 -0.3461  0.0865
   80MOL   C25130429   2.109   3.319   5.409 -0.0558  0.0083 -0.5148
   80MOL   O25230430   2.124   3.352   5.294  0.1256  0.1612  0.5007
   80MOL   N25330431   2.162   3.202   5.458  0.4752 -0.2180  0.1334
   80MOL   C25430432   2.244   3.111   5.377  0.4247 -0.9068 -0.3119
   80MOL   C25530433   2.366   3.040   5.445 -0.3531 -0.5583 -0.3253
   80MOL   C25630434   2.161   3.000   5.313 -0.2764 -0.2659  0.0465
   80MOL   H25730435   2.216   3.467   5.580  0.3080  1.9688  0.5653
   80MOL   H25830436   2.091   3.582   5.593  0.7774 -0.0532 -2.3403
   80MOL   H25930437   1.956   3.323   5.554 -1.6514  0.2579 -1.7006
   80MOL   H26030438   2.149   3.165   5.550  0.2086 -1.8533 -0.5450
   80MOL   H26130439   2.287   3.168   5.295 -0.7189  1.9073  0.9988
   80MOL   H26230440   2.435   3.013   5.364  1.1267 -1.6993  1.2801
   80MOL   H26330441   2.432   3.103   5.505 -0.6494 -0.0612 -0.5206
   80MOL   H26430442   2.330   2.946   5.487 -0.3298 -0.6337 -0.4745
   80MOL   H26530443   2.227   2.917   5.291  0.9895  0.8895 -0.5891
   80MOL   H26630444   2.089   2.967   5.388  1.3313  1.0953  2.2409
   80MOL   H26730445   2.111   3.036   5.223 -2.3373  0.7447  1.5550
   80MOL   C26830446   1.938   3.516   5.430  0.3916  0.5686 -0.6500
   80MOL   C26930447   1.833   3.603   5.514  0.6901 -0.0778  0.1940
   80MOL   C27030448   1.818   3.737   5.451  0.3738 -0.3164  0.2233
   80MOL   O27130449   1.717   3.760   5.384 -0.1905 -0.1788 -0.3738
   80MOL   N27230450   1.910   3.836   5.469 -0.0809 -0.5749 -0.0211
   80MOL   C27330451   1.912   3.974   5.411  0.1082 -0.2238 -0.0435
   80MOL   C27430452   1.829   4.065   5.504 -0.3958 -0.9677 -0.0768
   80MOL   C27530453   2.063   4.019   5.404  0.4163  0.2829  0.5548
   80MOL   H27630454   2.014   3.581   5.387 -0.1945  1.8177  0.1698
   80MOL   H27730455   1.878   3.478   5.348 -0.1823 -0.9171  0.4187
   80MOL   H27830456   1.861   3.638   5.613  2.2875 -1.4431  0.2526
   80MOL   H27930457   1.980   3.818   5.539  1.1999  2.1664 -0.5164
   80MOL   H28030458   1.873   3.987   5.310  0.5413 -3.6974 -0.7122
   80MOL   H28130459   1.889   4.089   5.592 -1.5389  0.9638  0.2020
   80MOL   H28230460   1.792   4.160   5.466  0.6979 -0.3674  0.3501
   80MOL   H28330461   1.745   4.009   5.545  1.3441 -2.3548  1.7125
   80MOL   H28430462   2.061   4.123   5.372 -0.6731  0.4228  1.0615
   80MOL   H28530463   2.126   4.014   5.492  1.5553 -0.7237 -0.3035
   80MOL   H28630464   2.117   3.973   5.321 -1.7654  2.3979 -2.1206
   80MOL   C28730465   1.706   3.513   5.536  0.5352 -0.4826 -0.4376
   80MOL   C28830466   1.619   3.540   5.659  0.2978  0.1225 -0.7662
   80MOL   C28930467   1.515   3.431   5.671  0.9080 -0.1515 -0.3894
   80MOL   O29030468   1.429   3.423   5.587  0.4317 -0.2020  0.1545
   80MOL   N29130469   1.514   3.349   5.781 -0.0022 -0.3666  0.3871
   80MOL   C29230470   1.417   3.244   5.811  0.6271 -0.4124  0.2666
   80MOL   C29330471   1.449   3.116   5.726 -0.6779 -0.5475 -1.0671
   80MOL   C29430472   1.422   3.215   5.964 -0.1308  0.5039  1.1710
   80MOL   H29530473   1.648   3.492   5.446  0.4647 -0.6720 -0.3484
   80MOL   H29630474   1.752   3.417   5.556 -0.5078 -0.5416  1.7725
   80MOL   H29730475   1.688   3.538   5.744 -1.2128 -0.8373  0.4663
   80MOL   H29830476   1.599   3.359   5.834  1.7073 -0.0217 -2.3225
   80MOL   H29930477   1.316   3.269   5.780  1.8731  5.4864  0.4870
   80MOL   H30030478   1.451   3.138   5.619 -3.1824 -1.2416 -1.2965
   80MOL   H30130479   1.548   3.078   5.754  0.4864  2.5061 -0.8401
   80MOL   H30230480   1.377   3.039   5.753 -1.6222  0.9255  0.6863
   80MOL   H30330481   1.403   3.306   6.021 -0.3992  1.6115 -0.6662
   80MOL   H30430482   1.344   3.143   5.989 -0.9805  1.3034  0.8171
   80MOL   H30530483   1.518   3.169   5.991  1.0947  2.0238 -0.5048
   80MOL   C30630484   1.547   3.680   5.640 -0.8752  0.3155 -0.2420
   80MOL   C30730485   1.449   3.731   5.751 -0.1307  0.4444 -0.1886
   80MOL   C30830486   1.348   3.825   5.682  0.4348  0.4624  0.0303
   80MOL   O30930487   1.368   3.943   5.685  0.0334 -0.7067  0.1242
   80MOL   N31030488   1.233   3.766   5.633 -0.4525  0.2969 -0.2032
   80MOL   C31130489   1.118   3.830   5.559  0.4385  0.0624 -0.1617
   80MOL   C31230490   1.100   3.777   5.420 -0.2544  0.5721 -0.4793
   80MOL   C31330491   0.991   3.817   5.639  0.1125 -0.8835 -0.0231
   80MOL   H31430492   1.624   3.757   5.629 -0.9219  0.3487 -0.3333
   80MOL   H31530493   1.504   3.684   5.540 -0.8311 -0.1033 -0.2772
   80MOL   H31630494   1.390   3.648   5.791 -1.1228  1.1550 -0.1392
   80MOL   H31730495   1.223   3.667   5.653  1.4270  0.2517  0.5917
   80MOL   H31830496   1.137   3.936   5.548  0.1299 -0.1188 -2.7057
   80MOL   H31930497   1.029   3.842   5.370 -0.8863  1.0135  0.9465
   80MOL   H32030498   1.074   3.671   5.429  2.7058 -0.5133 -3.4318
   80MOL   H32130499   1.192   3.762   5.364 -0.1294  0.5502 -0.2687
   80MOL   H32230500   0.910   3.859   5.579  0.6799  0.6306  0.2596
   80MOL   H32330501   0.999   3.881   5.726 -0.6508 -0.5791 -0.1728
   80MOL   H32430502   0.969   3.713   5.662  0.8658 -0.6258  1.8691
   80MOL   C32530503   1.524   3.790   5.882  0.3813 -0.5972 -0.0442
   80MOL   C32630504   1.432   3.827   5.997  0.1777 -0.0492  0.5764
   80MOL   C32730505   1.345   3.706   6.045 -0.5502 -0.5956 -0.7807
   80MOL   O32830506   1.397   3.604   6.092  0.1442 -0.1588  0.2095
   80MOL   N32930507   1.215   3.721   6.031  0.1842  0.7095 -0.4397
   80MOL   C33030508   1.111   3.620   6.055 -0.1421  0.5743 -0.0096
   80MOL   C33130509   1.092   3.523   5.945  0.8830  0.5480  0.5495
   80MOL   C33230510   0.985   3.694   6.095 -0.1995  0.2233  0.2188
   80MOL   H33330511   1.583   3.878   5.855 -0.9096  0.8422  1.6791
   80MOL   H33430512   1.586   3.713   5.928  0.6728 -0.3991 -0.1031
   80MOL   H33530513   1.358   3.893   5.953 -0.1792 -0.2404  0.8907
   80MOL   H33630514   1.190   3.806   5.982 -0.6312  0.0997 -1.0730
   80MOL   H33730515   1.136   3.561   6.143  0.9902  0.1544 -0.6007
   80MOL   H33830516   0.984   3.514   5.934  1.1244  1.5726 -3.6071
   80MOL   H33930517   1.136   3.556   5.851 -2.9649 -0.0872 -1.5665
   80MOL   H34030518   1.127   3.425   5.976 -0.4020  0.3827  1.4988
   80MOL   H34130519   0.929   3.720   6.006  0.0967 -2.5174 -0.8190
   80MOL   H34230520   1.010   3.792   6.135  1.1789 -0.7312  1.7773
   80MOL   H34330521   0.909   3.639   6.151 -2.0751 -0.0699 -2.5250
   80MOL   C34430522   1.509   3.892   6.113  0.1758  0.6642  0.4630
   80MOL   C34530523   1.544   4.039   6.089  0.0459  0.0038  0.4312
   80MOL   C34630524   1.416   4.121   6.089  0.1019  0.2780  0.1360
   80MOL   O34730525   1.367   4.160   6.196 -0.9459  0.0835  0.2108
   80MOL   N34830526   1.347   4.136   5.970  0.5646 -0.5964  0.3563
   80MOL   C34930527   1.218   4.205   5.955  0.1817 -0.2015  0.2021
   80MOL   C35030528   1.232   4.342   5.889 -0.0309  0.2190  0.1296
   80MOL   C35130529   1.121   4.115   5.873  0.1649 -0.2078  0.1259
   80MOL   H35230530   1.602   3.837   6.131  0.3303  0.5962 -0.4634
   80MOL   H35330531   1.453   3.886   6.206  0.8217 -2.0494  0.7517
   80MOL   H35430532   1.591   4.047   5.991  0.9016  1.4378  0.9399
   80MOL   H35530533   1.385   4.093   5.887  0.1108  0.5454 -0.4522
   80MOL   H35630534   1.175   4.211   6.054 -0.9023 -1.8117 -0.1484
   80MOL   H35730535   1.144   4.404   5.905  0.0954  0.0916  1.3157
   80MOL   H35830536   1.319   4.391   5.932 -0.1232 -0.4677  1.1096
   80MOL   H35930537   1.252   4.348   5.781 -0.1749 -0.0734  0.0871
   80MOL   H36030538   1.036   4.178   5.847 -0.6208 -0.7137  1.3897
   80MOL   H36130539   1.178   4.072   5.792  0.4448 -2.9721  1.7239
   80MOL   H36230540   1.087   4.021   5.918 -0.8257 -0.9637 -2.1359
   80MOL   C36330541   1.646   4.076   6.204 -0.5834  0.2929 -0.0186
   80MOL   C36430542   1.697   4.226   6.207 -0.0169  0.4641 -0.3206
   80MOL   C36530543   1.785   4.269   6.088 -0.0864  0.2305 -0.1675
   80MOL   O36630544   1.867   4.188   6.037  0.3345 -0.2749 -0.1502
   80MOL   N36730545   1.773   4.398   6.042 -0.5296  0.4318 -0.3400
   80MOL   C36830546   1.829   4.448   5.920 -0.9306  0.1218 -0.0105
   80MOL   C36930547   1.768   4.395   5.792 -1.0883 -0.5854  0.2260
   80MOL   C37030548   1.828   4.604   5.918  0.4457 -0.1362 -0.1154
   80MOL   H37130549   1.726   4.004   6.189 -0.6521  0.2859 -0.3465
   80MOL   H37230550   1.602   4.057   6.302 -1.2629 -1.4989 -0.6527
   80MOL   H37330551   1.769   4.233   6.289  0.6688  0.0839 -0.8859
   80MOL   H37430552   1.714   4.466   6.088 -0.2928  0.2399  0.2395
   80MOL   H37530553   1.934   4.424   5.932 -1.1591 -0.2567  1.4060
   80MOL   H37630554   1.829   4.433   5.710  0.4980 -0.8259  1.2546
   80MOL   H37730555   1.767   4.287   5.774 -0.1242 -0.2962 -1.6597
   80MOL   H37830556   1.666   4.430   5.777 -1.3735 -1.7340 -0.5993
   80MOL   H37930557   1.884   4.619   5.826 -0.0111  1.1578 -0.1905
   80MOL   H38030558   1.728   4.646   5.915  0.3953 -0.2040  0.4741
   80MOL   H38130559   1.875   4.649   6.006 -2.9399  0.9774  1.2346
   80MOL   H38230560   1.618   4.298   6.232 -0.0842  0.2579  0.0637
   81MOL     C130561   0.347   0.105   3.251 -0.5797 -0.2004  0.0677
   81MOL     C230562   0.345   0.221   3.147  0.1653 -0.2608 -0.4345
   81MOL     C330563   0.442   0.208   3.027 -0.5508 -0.2210  0.4232
   81MOL     O430564   0.394   0.192   2.914  0.0966 -0.5599  0.8929
   81MOL     N530565   0.577   0.214   3.044 -0.1628  0.0163  0.1750
   81MOL     C630566   0.682   0.203   2.940  0.5428 -0.1656 -0.1273
   81MOL     C730567   0.750   0.334   2.890 -0.0174 -0.0913 -0.3339
   81MOL     C830568   0.779   0.095   2.980 -0.3481  0.8116 -0.3062
   81MOL     H930569   0.441   0.057   3.277 -0.7534 -0.1780  0.7415
   81MOL    H1030570   0.287   0.024   3.208 -0.0129 -0.1258 -0.8755
   81MOL    H1130571   0.371   0.309   3.206 -0.4240  0.1404 -0.7720
   81MOL    H1230572   0.610   0.235   3.137 -0.9339  1.5953  0.1043
   81MOL    H1330573   0.643   0.166   2.845 -0.8222  0.4499  0.1826
   81MOL    H1430574   0.835   0.370   2.948 -0.4222  1.8822 -0.9092
   81MOL    H1530575   0.680   0.417   2.898 -0.6251 -0.6892  0.5898
   81MOL    H1630576   0.801   0.328   2.793 -2.0937 -0.8124 -1.3977
   81MOL    H1730577   0.715   0.008   2.995 -2.2601  2.2227  0.0399
   81MOL    H1830578   0.858   0.062   2.912 -0.4438 -0.9388  0.4108
   81MOL    H1930579   0.831   0.127   3.070  0.8668 -1.3084 -0.2257
   81MOL    H2030580   0.296   0.143   3.340 -1.9167  1.0213 -1.1792
   81MOL    C2130581   0.199   0.256   3.104  0.2104  0.5240  0.0094
   81MOL    C2230582   0.180   0.383   3.028  0.4809  0.3788  0.6045
   81MOL    C2330583   0.156   0.495   3.125 -0.5401 -0.0934  0.1727
   81MOL    O2430584   0.054   0.495   3.198  0.1158  0.3991  0.2140
   81MOL    N2530585   0.247   0.591   3.123  0.1231  0.0569 -0.6675
   81MOL    C2630586   0.235   0.709   3.216 -0.1496  0.1623 -0.5114
   81MOL    C2730587   0.317   0.821   3.156 -0.5585 -0.3363  1.0388
   81MOL    C2830588   0.305   0.666   3.349  0.1822 -0.6360  0.2529
   81MOL    H2930589   0.136   0.253   3.193 -0.2208 -0.7950 -0.3197
   81MOL    H3030590   0.162   0.168   3.051  1.2910 -0.8680  1.5360
   81MOL    H3130591   0.263   0.416   2.966 -0.0591 -0.9708 -0.8677
   81MOL    H3230592   0.322   0.587   3.056  0.6044  0.8069 -0.1794
   81MOL    H3330593   0.134   0.746   3.236  0.5616  2.1700 -0.5430
   81MOL    H3430594   0.279   0.867   3.065 -1.0693  0.8365  1.8316
   81MOL    H3530595   0.414   0.789   3.118 -0.8354 -0.1960  0.2050
   81MOL    H3630596   0.337   0.901   3.227 -0.0596  1.2820 -0.8844
   81MOL    H3730597   0.277   0.740   3.424 -0.1269  1.1783 -1.6143
   81MOL    H3830598   0.271   0.573   3.394 -1.1230 -0.1686  0.2461
   81MOL    H3930599   0.414   0.668   3.340  0.2396  3.4811  1.0230
   81MOL    C4030600   0.057   0.372   2.929 -0.1963 -0.3383 -0.2370
   81MOL    C4130601   0.097   0.305   2.795  0.4316 -0.2176  0.7257
   81MOL    C4230602   0.184   0.396   2.701 -1.2407 -0.6873  0.4588
   81MOL    O4330603   0.135   0.484   2.632 -0.0956  0.2350 -0.7480
   81MOL    N4430604   0.316   0.368   2.696  0.7897 -0.3770  0.2417
   81MOL    C4530605   0.409   0.458   2.642  0.6034  0.4001  0.9895
   81MOL    C4630606   0.444   0.570   2.747  0.0710 -0.3889 -0.0545
   81MOL    C4730607   0.528   0.377   2.601 -0.6888  0.0092  0.1630
   81MOL    H4830608   0.009   0.470   2.922  0.0292 -0.3133 -1.4938
   81MOL    H4930609   7.826   0.303   2.982 -0.6003  1.0232  1.0478
   81MOL    H5030610   0.140   0.206   2.810  0.5442 -0.4173 -0.8076
   81MOL    H5130611   0.345   0.292   2.756  0.7532 -0.9973 -0.5195
   81MOL    H5230612   0.375   0.500   2.547 -0.7992 -2.1738  0.3025
   81MOL    H5330613   0.526   0.633   2.713 -0.3896  0.5103  0.4772
   81MOL    H5430614   0.481   0.527   2.840  0.1421  0.9917  0.5683
   81MOL    H5530615   0.355   0.632   2.755 -0.0518 -0.5987  0.1962
   81MOL    H5630616   0.505   0.307   2.521 -2.8425  0.5874  0.2400
   81MOL    H5730617   0.552   0.311   2.684  0.3894  0.2387  0.0373
   81MOL    H5830618   0.604   0.444   2.562 -2.0083  1.7239  0.4679
   81MOL    C5930619   7.799   0.281   2.726  0.2155 -0.2734 -0.0061
   81MOL    C6030620   7.806   0.201   2.592  0.1983  0.0397  0.0083
   81MOL    C6130621   7.685   0.243   2.505 -0.3687  0.1030  0.1368
   81MOL    O6230622   7.589   0.173   2.482 -0.0503  0.1896 -0.5066
   81MOL    N6330623   7.695   0.366   2.464  0.0937 -0.3216  0.5108
   81MOL    C6430624   7.592   0.442   2.406  0.2246  0.1853  0.2141
   81MOL    C6530625   7.607   0.597   2.419  0.0463 -0.0350 -0.2047
   81MOL    C6630626   7.578   0.406   2.259 -0.6239  0.4661 -0.8787
   81MOL    H6730627   7.729   0.224   2.787 -1.1551  1.0699 -0.2774
   81MOL    H6830628   7.745   0.376   2.726 -0.5737 -0.7024  1.4224
   81MOL    H6930629   0.059   0.221   2.533  0.0973  0.9819  0.1658
   81MOL    H7030630   7.775   0.418   2.496 -1.2090  2.9477 -1.3250
   81MOL    H7130631   7.492   0.421   2.445 -0.5595 -1.4322 -2.5402
   81MOL    H7230632   7.525   0.645   2.366  0.5108  0.4819 -0.4622
   81MOL    H7330633   7.623   0.637   2.519  0.1564  0.4516 -0.4148
   81MOL    H7430634   7.698   0.621   2.365 -1.0075  1.0630 -1.5223
   81MOL    H7530635   7.656   0.434   2.189  0.5211  0.4224  0.3448
   81MOL    H7630636   7.565   0.298   2.246  0.1376  0.1764  0.6439
   81MOL    H7730637   7.484   0.448   2.224 -0.9187  0.7206  0.1766
   81MOL    C7830638   7.818   0.046   2.619  0.7661 -0.0187  0.1685
   81MOL    C7930639   0.087   7.803   2.532  0.2265  0.0647 -0.0675
   81MOL    C8030640   0.062   7.830   2.380  0.5518 -0.4573  0.4397
   81MOL    O8130641   0.135   0.072   2.325 -0.4277 -0.0768 -0.4152
   81MOL    N8230642   7.800   7.763   2.312  0.4204  0.0742 -0.0757
   81MOL    C8330643   7.753   7.782   2.173  0.9244  0.2108  0.0577
   81MOL    C8430644   7.666   7.666   2.136 -0.0966 -0.0020  0.5040
   81MOL    C8530645   7.689   0.083   2.161  0.5734  0.3912 -0.2319
   81MOL    H8630646   7.722   7.833   2.612  0.6357  0.0456  1.3908
   81MOL    H8730647   7.830   0.020   2.724  1.0669 -0.2094  0.0861
   81MOL    H8830648   0.083   7.697   2.558  1.3987  0.0203 -0.0412
   81MOL    H8930649   7.744   7.698   2.367 -1.8255 -0.2784 -2.6781
   81MOL    H9030650   7.835   7.789   2.101 -1.1000 -0.7173 -2.3830
   81MOL    H9130651   7.588   7.644   2.208 -0.9440  0.2302 -0.3312
   81MOL    H9230652   7.615   7.688   2.042  1.9700  0.6194 -0.5167
   81MOL    H9330653   7.736   7.583   2.127  0.5674  0.4921  1.1376
   81MOL    H9430654   7.750   0.164   2.200  3.0505 -0.9535 -1.2127
   81MOL    H9530655   7.589   0.073   2.203 -0.0517  2.9633 -1.0463
   81MOL    H9630656   7.697   0.113   2.056  1.2170  1.2174  0.0530
   81MOL    C9730657   0.231   0.005   2.577 -0.1202 -0.1334 -0.3549
   81MOL    C9830658   0.351   7.773   2.510 -0.4825 -1.0039  1.2055
   81MOL    C9930659   0.336   7.625   2.491  0.1164  0.6367 -0.6024
   81MOL   O10030660   0.333   7.548   2.588 -0.2916 -0.3717  0.2984
   81MOL   N10130661   0.335   7.574   2.368  0.3510 -0.3079  0.5917
   81MOL   C10230662   0.358   7.432   2.322 -0.4465 -0.2376  1.3709
   81MOL   C10330663   0.247   7.392   2.227 -0.1936  0.0642 -0.2003
   81MOL   C10430664   0.495   7.420   2.251  0.1582  0.4423  0.2067
   81MOL   H10530665   0.234   0.007   2.686 -1.8428  4.5333 -0.2730
   81MOL   H10630666   0.243   0.111   2.554 -2.5323  0.1465 -0.5131
   81MOL   H10730667   0.364   7.820   2.413 -1.5323 -1.2792  0.9171
   81MOL   H10830668   0.330   7.646   2.297  1.7838 -0.4575  0.3215
   81MOL   H10930669   0.356   7.358   2.402 -0.4445  1.6840  3.1862
   81MOL   H11030670   0.279   7.297   2.186  0.6019  1.0142 -1.8637
   81MOL   H11130671   0.150   7.377   2.275  0.6448  0.7062  1.7129
   81MOL   H11230672   0.245   7.464   2.145 -0.2018 -0.1485 -0.3884
   81MOL   H11330673   0.531   7.328   2.204  2.9247  1.1022  0.9409
   81MOL   H11430674   0.574   7.445   2.321 -0.9588  1.8320  0.9943
   81MOL   H11530675   0.496   7.511   2.191  2.5695  1.0886  1.1827
   81MOL   C11630676   0.475   7.811   2.595  0.5636  0.0524 -0.5978
   81MOL   C11730677   0.617   7.815   2.522  0.4668  0.7485  0.0352
   81MOL   C11830678   0.627   7.778   2.374 -0.4209 -0.2730  0.0916
   81MOL   O11930679   0.671   7.670   2.339  0.6273 -0.1025  0.0494
   81MOL   N12030680   0.589   0.046   2.289 -0.3954  0.0451  0.3232
   81MOL   C12130681   0.588   0.040   2.146 -0.1513  0.3159 -0.4489
   81MOL   C12230682   0.475   0.123   2.091 -0.0116 -0.0471 -0.1841
   81MOL   C12330683   0.717   0.087   2.088  0.3553 -0.2787  0.6396
   81MOL   H12430684   0.468   7.749   2.684 -0.7841  0.1888 -0.6009
   81MOL   H12530685   0.467   0.074   2.640  0.7532  0.0364 -0.5294
   81MOL   H12630686   0.655   0.081   2.523  1.9409  0.2108  0.4643
   81MOL   H12730687   0.550   0.129   2.332  2.9036 -0.2841  4.3098
   81MOL   H12830688   0.575   7.772   2.117  1.2540 -0.1481  0.5373
   81MOL   H12930689   0.391   0.107   2.158 -1.2842 -0.2780 -1.7844
   81MOL   H13030690   0.461   0.095   1.986  2.2438  0.7053 -0.7077
   81MOL   H13130691   0.489   0.231   2.097 -0.2424 -0.1334  2.3587
   81MOL   H13230692   0.720   0.098   1.979  1.4343 -0.9612  0.5940
   81MOL   H13330693   0.743   0.187   2.122 -1.0864  0.2759  0.1340
   81MOL   H13430694   0.792   0.018   2.126  0.7816  0.0249  0.3583
   81MOL   C13530695   0.719   7.738   2.617 -0.1263  0.1331  0.6266
   81MOL   C13630696   0.876   7.749   2.580 -0.0730  0.1856 -0.3198
   81MOL   C13730697   0.932   0.054   2.568  0.1310  0.6533 -0.2632
   81MOL   O13830698   0.936   0.124   2.667 -0.4193 -0.1443  0.8708
   81MOL   N13930699   0.971   0.099   2.447  0.9394  0.6897 -0.2815
   81MOL   C14030700   0.977   0.232   2.398 -0.3218  0.3311 -0.2702
   81MOL   C14130701   1.094   0.306   2.461 -0.1776  0.8409  0.1777
   81MOL   C14230702   0.849   0.309   2.402  0.5212  0.1918  0.1267
   81MOL   H14330703   0.702   7.630   2.614 -1.4674  0.3665 -0.9254
   81MOL   H14430704   0.708   7.775   2.719  0.3047  0.6209  0.4996
   81MOL   H14530705   0.899   7.709   2.482  0.9163  0.2593 -0.1327
   81MOL   H14630706   0.983   0.036   2.368 -1.3274 -1.4631  1.0179
   81MOL   H14730707   1.005   0.226   2.293 -1.7386  0.7345 -0.6791
   81MOL   H14830708   1.076   0.310   2.568  0.9835  0.6653  0.3882
   81MOL   H14930709   1.181   0.247   2.431  0.2746  2.5800 -2.0709
   81MOL   H15030710   1.093   0.402   2.410 -0.0114  0.0660 -1.3246
   81MOL   H15130711   0.826   0.341   2.504  0.1107  0.4452 -0.0428
   81MOL   H15230712   0.762   0.250   2.373  0.0427  0.3198  1.2487
   81MOL   H15330713   0.848   0.399   2.341 -2.5902  1.7836  2.3993
   81MOL   C15430714   0.946   7.656   2.676  0.2667  0.4789  0.1891
   81MOL   C15530715   1.104   7.636   2.672  0.2105 -0.3935  0.7295
   81MOL   C15630716   1.176   7.695   2.792 -0.3725 -0.3399 -0.3100
   81MOL   O15730717   1.275   7.636   2.837 -0.4483  0.3703 -0.0944
   81MOL   N15830718   1.126   7.814   2.844 -0.0811 -0.4496  0.7737
   81MOL   C15930719   1.152   0.068   2.950  0.2020 -0.4601  0.0867
   81MOL   C16030720   1.288   0.154   2.929 -0.3853 -1.0012  0.6940
   81MOL   C16130721   1.169   7.828   3.083 -0.8160 -0.0771 -0.0045
   81MOL   H16230722   0.913   7.555   2.656  1.5019 -0.9184  4.5989
   81MOL   H16330723   0.916   7.675   2.779 -0.3780 -1.1260  0.3001
   81MOL   H16430724   1.122   7.530   2.685  1.7265 -0.2955 -0.4689
   81MOL   H16530725   1.048   0.010   2.788  0.0341 -2.6123 -0.6769
   81MOL   H16630726   1.070   0.135   2.973  2.9370  3.2316 -0.4752
   81MOL   H16730727   1.316   0.212   3.017  0.1064  0.7425 -0.5795
   81MOL   H16830728   1.369   0.082   2.922  1.9823  1.5945  0.7432
   81MOL   H16930729   1.292   0.231   2.851 -0.4172 -1.1808  0.5144
   81MOL   H17030730   1.256   7.763   3.072  0.0626  1.4673 -2.6252
   81MOL   H17130731   1.076   7.773   3.095 -0.6020 -0.6102 -0.7662
   81MOL   H17230732   1.176   0.060   3.167  0.2486 -1.9601  1.4756
   81MOL   C17330733   1.184   7.648   2.545  0.0543 -0.4946 -0.4512
   81MOL   C17430734   1.330   7.596   2.536 -0.1389 -0.4441  0.2053
   81MOL   C17530735   1.338   7.441   2.531  0.6700 -0.9556 -0.1470
   81MOL   O17630736   1.310   7.388   2.425 -0.5668  0.0633 -0.1570
   81MOL   N17730737   1.367   7.381   2.648 -0.5863  0.4220  0.0914
   81MOL   C17830738   1.405   7.246   2.667  0.4279  0.3293  1.0094
   81MOL   C17930739   1.280   7.170   2.710  0.3507 -0.1299  0.1429
   81MOL   C18030740   1.519   7.248   2.770 -0.2024 -0.4420  0.1550
   81MOL   H18130741   1.183   7.756   2.526  1.6800 -0.7276 -1.9472
   81MOL   H18230742   1.123   7.602   2.467 -1.3912  0.3050  0.1814
   81MOL   H18330743   1.378   7.638   2.624 -0.7397  0.8826 -0.0873
   81MOL   H18430744   1.368   7.438   2.731  0.9578  0.1791  0.2611
   81MOL   H18530745   1.432   7.200   2.572 -2.8245 -0.7065  0.5349
   81MOL   H18630746   1.274   7.183   2.818  1.0308  2.1830 -0.0722
   81MOL   H18730747   1.305   7.071   2.671 -2.5509 -1.4663  1.4836
   81MOL   H18830748   1.186   7.196   2.662  0.1194 -1.1982 -0.0119
   81MOL   H18930749   1.579   7.157   2.760 -0.8119 -1.0207  1.5408
   81MOL   H19030750   1.476   7.250   2.870 -2.2014 -0.7512 -0.6710
   81MOL   H19130751   1.587   7.333   2.771 -1.2850  0.4704 -1.3406
   81MOL   C19230752   1.402   7.669   2.420  0.4883 -0.1793  0.4489
   81MOL   C19330753   1.338   7.666   2.278  0.1030  0.5362  0.4246
   81MOL   C19430754   1.438   7.598   2.184 -0.6072  0.1464  0.2678
   81MOL   O19530755   1.531   7.664   2.144  0.8348  0.5008  0.1186
   81MOL   N19630756   1.430   7.468   2.155  0.0669  0.5875 -0.6316
   81MOL   C19730757   1.515   7.404   2.054 -0.4686  0.2671  1.0058
   81MOL   C19830758   1.658   7.391   2.107  1.2800 -0.2968  0.6766
   81MOL   C19930759   1.458   7.267   2.001 -0.2574  0.1715  0.2080
   81MOL   H20030760   1.499   7.618   2.421 -0.3660 -1.8125  1.8712
   81MOL   H20130761   1.430   7.770   2.449  0.2558 -0.5538  2.0237
   81MOL   H20230762   1.245   7.609   2.282 -0.5752  1.6372  0.5897
   81MOL   H20330763   1.361   7.410   2.201  0.6983  0.6747  0.4342
   81MOL   H20430764   1.512   7.471   1.968  3.8263 -0.2275  0.3518
   81MOL   H20530765   1.657   7.356   2.211 -1.9566  0.5055  0.9793
   81MOL   H20630766   1.702   7.490   2.101 -1.1953  0.6565 -3.3014
   81MOL   H20730767   1.709   7.318   2.045 -0.0868  2.0014 -3.3120
   81MOL   H20830768   1.520   7.234   1.918  0.4208  1.4544  0.1790
   81MOL   H20930769   1.358   7.265   1.958  0.7764 -0.5787 -2.2301
   81MOL   H21030770   1.463   7.205   2.090  0.7783 -1.5989 -1.0569
   81MOL   C21130771   1.297   7.809   2.239 -0.3349  0.2273  1.1718
   81MOL   C21230772   1.225   7.824   2.095 -0.1495 -0.0739  0.4627
   81MOL   C21330773   1.096   7.739   2.090  0.5123 -0.2525 -0.3481
   81MOL   O21430774   1.035   7.723   2.199 -0.0306 -0.1288 -0.5370
   81MOL   N21530775   1.049   7.701   1.974  0.3060 -0.1454 -0.7719
   81MOL   C21630776   0.932   7.614   1.954  0.1113  0.5686  0.1892
   81MOL   C21730777   0.960   7.467   1.978 -0.5313 -0.0803 -0.0602
   81MOL   C21830778   0.868   7.642   1.819  0.0462 -0.1984 -0.4671
   81MOL   H21930779   1.385   0.036   2.247 -0.5075  0.5746  0.3044
   81MOL   H22030780   1.228   0.004   2.318 -1.3221 -0.4278  0.5776
   81MOL   H22130781   1.280   7.772   2.017  2.7056 -1.2010  3.1213
   81MOL   H22230782   1.090   7.740   1.890 -1.1433  3.6874  0.2051
   81MOL   H22330783   0.869   7.642   2.038 -0.0859 -1.6031  0.8001
   81MOL   H22430784   1.050   7.434   1.925 -0.5594 -1.5194  0.7561
   81MOL   H22530785   0.968   7.443   2.084 -0.5715 -0.2541 -0.0966
   81MOL   H22630786   0.876   7.407   1.944  0.1924 -0.5279 -1.1010
   81MOL   H22730787   0.774   7.593   1.793 -0.4839  2.2254 -3.4977
   81MOL   H22830788   0.928   7.605   1.736  0.3037 -0.8183 -0.0078
   81MOL   H22930789   0.847   7.748   1.804 -0.6781 -0.5141 -1.7758
   81MOL   C23030790   1.184   0.137   2.062  0.3121  0.0041 -0.3387
   81MOL   C23130791   1.284   0.216   1.977  0.3564  0.1391 -0.3436
   81MOL   C23230792   1.347   0.133   1.865  0.0192  0.2162  0.0439
   81MOL   O23330793   1.273   0.069   1.795  0.1459  0.3151  0.0153
   81MOL   N23430794   1.475   0.119   1.853  0.0971  0.4796 -0.7458
   81MOL   C23530795   1.551   0.033   1.760  0.0090 -0.1379  0.2729
   81MOL   C23630796   1.656   0.118   1.689  0.5153  0.2098 -0.6190
   81MOL   C23730797   1.616   7.748   1.832 -0.4109  0.0168 -0.6846
   81MOL   H23830798   1.157   0.196   2.149 -0.5394  1.3332 -1.4732
   81MOL   H23930799   1.092   0.131   2.004 -0.1657 -1.3844  0.5459
   81MOL   H24030800   1.369   0.221   2.045 -0.5169 -1.9444  0.9442
   81MOL   H24130801   1.531   0.178   1.914 -0.0326  0.8348 -0.9673
   81MOL   H24230802   1.486   7.831   1.682  0.2964 -0.1410  0.0319
   81MOL   H24330803   1.719   0.057   1.626  1.2156  1.0129 -0.7068
   81MOL   H24430804   1.596   0.190   1.632  0.6980  1.5331  0.8373
   81MOL   H24530805   1.713   0.170   1.766 -0.5888 -0.5508  0.7323
   81MOL   H24630806   1.537   7.708   1.896  0.2936  1.3403  1.0661
   81MOL   H24730807   1.696   7.786   1.896  1.0609  0.7272 -2.8793
   81MOL   H24830808   1.654   7.668   1.768  1.6770 -0.8768  1.5856
   81MOL   C24930809   1.228   0.355   1.932 -0.0630  0.1217  0.2565
   81MOL   C25030810   1.316   0.484   1.973  0.3215  0.0297 -0.3286
   81MOL   C25130811   1.449   0.476   1.907 -0.7770  0.2005 -0.4769
   81MOL   O25230812   1.544   0.439   1.975  0.1744 -0.2753  0.6869
   81MOL   N25330813   1.457   0.516   1.776 -0.0615 -0.2522  0.2441
   81MOL   C25430814   1.571   0.557   1.692  0.3153 -0.6561  0.3238
   81MOL   C25530815   1.541   0.564   1.548  0.0580  0.3131 -0.3941
   81MOL   C25630816   1.626   0.693   1.735 -0.0106 -0.5649 -0.1539
   81MOL   H25730817   1.129   0.374   1.975  1.0388  1.2728  2.3518
   81MOL   H25830818   1.218   0.352   1.823  0.3341 -1.3421  0.2470
   81MOL   H25930819   1.265   0.569   1.929  0.7898  1.0371  1.0450
   81MOL   H26030820   1.376   0.559   1.732 -0.4030 -1.9073 -0.7811
   81MOL   H26130821   1.639   0.475   1.716  1.5800  0.2609 -0.0655
   81MOL   H26230822   1.490   0.474   1.515 -0.3646  1.2524 -2.4073
   81MOL   H26330823   1.485   0.650   1.510 -1.6773 -1.7062 -2.5826
   81MOL   H26430824   1.638   0.576   1.499  0.0273 -0.0660 -0.5471
   81MOL   H26530825   1.633   0.694   1.844  0.1077 -2.2981 -0.1309
   81MOL   H26630826   1.724   0.715   1.693 -0.1408  2.1214  0.9035
   81MOL   H26730827   1.558   0.772   1.703  0.2702  0.7894  2.5024
   81MOL   C26830828   1.316   0.510   2.129  0.8420 -0.2797  0.3912
   81MOL   C26930829   1.374   0.643   2.171  0.2277 -0.6467 -0.3655
   81MOL   C27030830   1.293   0.761   2.124  0.2538  0.2211  0.3882
   81MOL   O27130831   1.166   0.762   2.130  0.0166 -0.2841  0.3795
   81MOL   N27230832   1.359   0.861   2.060 -0.4238 -0.3082 -0.2353
   81MOL   C27330833   1.295   0.958   1.975 -0.1141  0.2340  0.4191
   81MOL   C27430834   1.358   1.095   2.005 -0.2141 -0.7002  0.1910
   81MOL   C27530835   1.321   0.921   1.825 -0.4198  0.0015 -0.2187
   81MOL   H27630836   1.215   0.511   2.170 -1.0123 -3.1045 -3.8385
   81MOL   H27730837   1.370   0.434   2.185 -0.5221  0.2591  2.5115
   81MOL   H27830838   1.474   0.649   2.128  1.4667  0.1845  2.5197
   81MOL   H27930839   1.459   0.861   2.072 -0.5301 -1.1751  0.6699
   81MOL   H28030840   1.188   0.965   1.990 -0.2618  2.7317 -1.4102
   81MOL   H28130841   1.300   1.146   2.082 -0.1344  0.1082 -0.2748
   81MOL   H28230842   1.466   1.105   2.018 -0.2238  0.5504 -0.6592
   81MOL   H28330843   1.338   1.147   1.912  0.3628 -0.4899  0.1820
   81MOL   H28430844   1.421   0.879   1.813  1.5788  4.2581  0.8019
   81MOL   H28530845   1.245   0.855   1.783  0.2965 -0.2163 -1.1991
   81MOL   H28630846   1.330   1.014   1.769  1.6519  0.4832  0.8558
   81MOL   C28730847   1.397   0.654   2.323  0.7310  0.5276  0.6887
   81MOL   C28830848   1.519   0.576   2.382  0.1073 -0.4800 -0.4308
   81MOL   C28930849   1.531   0.600   2.537  0.2185  0.4124 -0.1680
   81MOL   O29030850   1.513   0.710   2.580 -0.4116 -0.3822  0.1179
   81MOL   N29130851   1.551   0.493   2.617  0.6922 -0.1780  0.1747
   81MOL   C29230852   1.516   0.491   2.758 -0.1204  0.4089 -0.2009
   81MOL   C29330853   1.365   0.515   2.787  0.4460  0.5250 -0.0457
   81MOL   C29430854   1.584   0.361   2.820  0.1376  0.4351 -0.5040
   81MOL   H29530855   1.408   0.759   2.353 -0.2469  0.7161  0.4034
   81MOL   H29630856   1.305   0.631   2.376  2.2213  0.5785  3.4058
   81MOL   H29730857   1.506   0.468   2.377 -0.6113 -0.4271  0.3416
   81MOL   H29830858   1.575   0.406   2.572  1.4711 -0.2242  0.6654
   81MOL   H29930859   1.563   0.578   2.804  0.5268 -0.1823  0.2559
   81MOL   H30030860   1.346   0.622   2.773  0.5072  0.8766  2.3025
   81MOL   H30130861   1.308   0.452   2.720  3.1703 -0.6300 -1.3719
   81MOL   H30230862   1.349   0.482   2.890 -0.0072  0.4353 -0.1449
   81MOL   H30330863   1.587   0.371   2.929 -0.3357  1.4841 -0.5880
   81MOL   H30430864   1.530   0.268   2.799 -0.0808 -0.1058  2.2662
   81MOL   H30530865   1.685   0.356   2.780  0.4302 -1.9744  0.4180
   81MOL   C30630866   1.655   0.595   2.311  0.0529  0.2814  0.1338
   81MOL   C30730867   1.729   0.728   2.316 -0.3601 -1.6209  0.6540
   81MOL   C30830868   1.648   0.857   2.278  0.3816 -0.0733  0.0122
   81MOL   O30930869   1.612   0.873   2.162 -0.0417  0.3148  0.0146
   81MOL   N31030870   1.635   0.949   2.374  0.1133 -0.7067  0.1338
   81MOL   C31130871   1.594   1.086   2.337 -0.3846  0.3055 -1.2694
   81MOL   C31230872   1.449   1.111   2.365 -0.5239  0.5233 -0.0604
   81MOL   C31330873   1.685   1.188   2.403  0.1164 -0.1041 -0.1493
   81MOL   H31430874   1.733   0.529   2.350  1.6877  1.5554 -0.9032
   81MOL   H31530875   1.643   0.558   2.210  0.9213  2.4153 -0.7823
   81MOL   H31630876   1.772   0.736   2.416 -1.8246  1.1160  1.1187
   81MOL   H31730877   1.667   0.917   2.464 -3.1123 -0.1627  1.5389
   81MOL   H31830878   1.615   1.104   2.232  2.8165  0.3742 -0.6792
   81MOL   H31930879   1.434   1.219   2.358  1.8850  0.9656  1.1604
   81MOL   H32030880   1.417   1.063   2.457  0.1968  1.2643  0.5783
   81MOL   H32130881   1.391   1.060   2.288  1.4664 -1.1388 -0.5182
   81MOL   H32230882   1.785   1.165   2.368  0.8518  2.2636  0.3261
   81MOL   H32330883   1.676   1.185   2.512 -1.0474 -1.3680 -0.2530
   81MOL   H32430884   1.671   1.289   2.366 -0.8138 -0.3343 -0.4602
   81MOL   C32530885   1.855   0.722   2.223  0.1986  0.2061  0.6939
   81MOL   C32630886   1.957   0.828   2.240 -0.2393 -0.2832  0.2333
   81MOL   C32730887   1.929   0.953   2.145 -1.8028  0.4794  0.5458
   81MOL   O32830888   1.912   1.063   2.193 -0.3832 -0.7495 -0.4099
   81MOL   N32930889   1.932   0.932   2.014  0.4158 -0.0517 -0.5815
   81MOL   C33030890   1.928   1.036   1.906  1.1169  0.1430 -0.2857
   81MOL   C33130891   1.790   1.071   1.852  0.1497 -0.5525 -0.1795
   81MOL   C33230892   2.009   0.976   1.795  0.0250 -0.5415  0.0546
   81MOL   H33330893   1.815   0.727   2.122 -3.0437 -0.2406  1.9229
   81MOL   H33430894   1.907   0.628   2.236  0.9056  0.2888 -1.3522
   81MOL   H33530895   2.040   0.779   2.188  2.2204  3.7675  0.1076
   81MOL   H33630896   1.967   0.841   1.989  2.3401  0.5513 -0.1398
   81MOL   H33730897   1.989   1.123   1.928  0.0298  0.9083 -0.2352
   81MOL   H33830898   1.798   1.150   1.777 -0.3322 -2.0854 -1.8757
   81MOL   H33930899   1.734   0.984   1.820 -3.2775  0.5505  2.5588
   81MOL   H34030900   1.731   1.113   1.933  1.0260  1.3957 -0.5150
   81MOL   H34130901   1.956   0.896   1.744 -1.1887  0.8943 -0.9584
   81MOL   H34230902   2.102   0.931   1.832  0.8964  1.4892  0.4059
   81MOL   H34330903   2.034   1.052   1.721 -1.6232  0.0237  0.0644
   81MOL   C34430904   2.007   0.864   2.382  0.0011 -0.6844  0.5504
   81MOL   C34530905   2.148   0.931   2.379 -0.1804 -0.9045  0.5297
   81MOL   C34630906   2.152   1.058   2.463 -0.4018  0.1646  0.2203
   81MOL   O34730907   2.147   1.052   2.585 -0.2840  0.8511  0.3613
   81MOL   N34830908   2.144   1.177   2.402  0.4112 -0.2314  0.6663
   81MOL   C34930909   2.113   1.305   2.469  0.1469 -0.1315  0.0252
   81MOL   C35030910   2.227   1.375   2.546 -0.4630 -0.1862  0.1288
   81MOL   C35130911   2.056   1.409   2.380 -0.6141 -0.0934 -0.1054
   81MOL   H35230912   2.006   0.776   2.445 -2.7576 -0.4073  0.9395
   81MOL   H35330913   1.936   0.936   2.423 -0.6905 -1.6684  1.0943
   81MOL   H35430914   2.164   0.966   2.277 -3.0167  1.4027  0.8241
   81MOL   H35530915   2.119   1.167   2.304 -1.5509  0.0438  1.1040
   81MOL   H35630916   2.029   1.275   2.532  0.5431 -1.9454 -0.2749
   81MOL   H35730917   2.207   1.473   2.590 -2.6657 -0.5595  0.0503
   81MOL   H35830918   2.254   1.313   2.631 -1.3013  0.2158  0.7012
   81MOL   H35930919   2.314   1.393   2.483 -0.9645  1.0327 -0.2415
   81MOL   H36030920   2.056   1.510   2.422  1.5648  0.5397 -1.5687
   81MOL   H36130921   2.117   1.428   2.291  0.6165  2.2263  1.1771
   81MOL   H36230922   1.953   1.384   2.354 -0.7759 -2.0541  2.2972
   81MOL   C36330923   2.263   0.839   2.422  0.2982 -1.1835 -0.1461
   81MOL   C36430924   2.406   0.896   2.400  0.5690 -0.9255 -0.4343
   81MOL   C36530925   2.440   0.912   2.253  0.3778  0.2501  0.4324
   81MOL   O36630926   2.448   0.811   2.184  0.1128  0.1448 -0.1889
   81MOL   N36730927   2.447   1.032   2.202  0.0911  0.5488 -0.1183
   81MOL   C36830928   2.461   1.070   2.058  0.1019  0.8467 -0.0179
   81MOL   C36930929   2.324   1.125   2.009  0.6019 -0.2312 -0.3533
   81MOL   C37030930   2.572   1.175   2.048  0.0706  0.0604 -0.2514
   81MOL   H37130931   2.255   0.749   2.361  0.2291 -0.1237 -1.7307
   81MOL   H37230932   2.254   0.807   2.526 -0.3553 -1.5698 -0.3189
   81MOL   H37330933   2.483   0.841   2.453 -0.2392 -1.4025  0.2691
   81MOL   H37430934   2.452   1.107   2.270  1.3454 -0.3256  0.7864
   81MOL   H37530935   2.489   0.987   1.994  2.2250  0.0224  1.9134
   81MOL   H37630936   2.254   1.052   2.049  1.6473  0.1578  2.3072
   81MOL   H37730937   2.294   1.224   2.046 -1.5464 -1.3042  0.8975
   81MOL   H37830938   2.312   1.126   1.901 -0.6420 -0.2721 -0.2222
   81MOL   H37930939   2.528   1.256   2.106 -1.2671  0.1815 -1.4070
   81MOL   H38030940   2.666   1.138   2.089  0.6133  0.3807 -1.1900
   81MOL   H38130941   2.583   1.204   1.944 -1.1030 -1.0649 -0.6892
   81MOL   H38230942   2.404   0.994   2.449 -2.5716 -1.1575  0.0401
   82MOL     C130943   5.410   6.608   7.224  0.0928 -0.7066 -0.0002
   82MOL     C230944   5.538   6.570   7.300 -0.3874  1.3509  0.2119
   82MOL     C330945   5.498   6.509   7.433  0.2222 -0.3769 -0.3455
   82MOL     O430946   5.464   6.395   7.441  0.0300 -0.3964 -0.2719
   82MOL     N530947   5.504   6.601   7.532 -0.5648 -0.5850 -0.3693
   82MOL     C630948   5.458   6.571   7.669 -0.1125  0.7063 -0.5008
   82MOL     C730949   5.545   6.652   7.770  0.0234 -0.1610  1.3651
   82MOL     C830950   5.313   6.610   7.677  0.5067 -0.1688  0.0673
   82MOL     H930951   5.426   6.661   7.130 -0.5850  1.0909  0.8836
   82MOL    H1030952   5.349   6.682   7.276  3.1836  1.8980  0.0297
   82MOL    H1130953   5.597   6.659   7.319  1.6968 -0.1004  0.6546
   82MOL    H1230954   5.541   6.692   7.509 -0.2533  0.0685  2.5198
   82MOL    H1330955   5.470   6.464   7.688  2.2358  1.1767  0.9167
   82MOL    H1430956   5.530   6.618   0.036 -1.3052 -2.7308  0.3512
   82MOL    H1530957   5.521   6.759   7.767  1.2574  0.1887  3.3487
   82MOL    H1630958   5.647   6.649   7.732 -1.0828  2.8369 -2.1341
   82MOL    H1730959   5.291   6.716   7.663 -1.4102 -0.7882 -2.0953
   82MOL    H1830960   5.255   6.544   7.613 -0.2058  0.6473 -0.1369
   82MOL    H1930961   5.288   6.587   7.780  0.4944 -0.1877  0.0596
   82MOL    H2030962   5.335   6.533   7.199 -1.1449 -0.4698  2.7548
   82MOL    C2130963   5.629   6.468   7.220 -0.0942  0.9151 -0.1493
   82MOL    C2230964   5.771   6.434   7.292 -0.4853  0.3082 -0.0474
   82MOL    C2330965   5.850   6.558   7.335 -1.1092 -0.2200 -0.2853
   82MOL    O2430966   5.873   6.638   7.250 -0.6345  0.4822 -0.4401
   82MOL    N2530967   5.880   6.574   7.464 -0.4798  0.1285 -0.3927
   82MOL    C2630968   5.960   6.690   7.515 -0.4213 -0.1385 -0.5601
   82MOL    C2730969   6.082   6.626   7.585 -0.0592 -0.2883  0.0282
   82MOL    C2830970   5.869   6.776   7.608  0.1828 -0.3570  0.8710
   82MOL    H2930971   5.657   6.517   7.126  0.6651  1.3093  0.2783
   82MOL    H3030972   5.572   6.378   7.196  0.9528 -0.0660  1.0243
   82MOL    H3130973   5.754   6.370   7.379 -1.5299 -2.2680 -2.0643
   82MOL    H3230974   5.852   6.503   7.529 -0.4890 -0.5264 -1.0967
   82MOL    H3330975   5.996   6.756   7.436  0.7418 -0.0981  0.0021
   82MOL    H3430976   6.135   6.700   7.645 -1.7178  0.4767  0.5657
   82MOL    H3530977   6.154   6.586   7.513 -0.3972  1.2119 -1.1563
   82MOL    H3630978   6.052   6.550   7.658 -1.5934  1.2879  1.0709
   82MOL    H3730979   5.843   6.724   7.700 -0.1562 -1.3585  0.2160
   82MOL    H3830980   5.910   6.872   7.638 -0.4688  0.5785 -1.0939
   82MOL    H3930981   5.780   6.809   7.554 -0.2161  1.3976  2.5363
   82MOL    C4030982   5.856   6.350   7.189  0.4578 -0.0818 -0.9655
   82MOL    C4130983   5.790   6.215   7.154  0.4206  0.6056 -0.5905
   82MOL    C4230984   5.763   6.126   7.276  1.3240 -0.4647 -0.3741
   82MOL    O4330985   5.840   6.130   7.368  0.1058 -0.3350  0.2938
   82MOL    N4430986   5.653   6.047   7.275  0.3508 -0.9850  0.0874
   82MOL    C4530987   5.625   5.951   7.379 -0.5261 -0.8695 -0.2196
   82MOL    C4630988   5.525   6.015   7.473  0.4097  0.5722 -0.6708
   82MOL    C4730989   5.572   5.820   7.331  0.0497 -0.3534  0.3427
   82MOL    H4830990   5.959   6.343   7.223  0.6377 -0.9128 -1.6590
   82MOL    H4930991   5.855   6.397   7.091 -1.0129  1.3017 -0.3069
   82MOL    H5030992   5.692   6.236   7.110  0.0703 -1.1987 -0.7470
   82MOL    H5130993   5.587   6.067   7.201  0.5650  0.8934  0.3756
   82MOL    H5230994   5.716   5.920   7.431  1.6200 -0.2636 -3.4629
   82MOL    H5330995   5.432   6.021   7.417  0.8458 -0.7584 -1.5746
   82MOL    H5430996   5.560   6.117   7.491 -0.4960  1.1587 -2.1136
   82MOL    H5530997   5.509   5.956   7.563  0.8779 -0.6158 -1.3648
   82MOL    H5630998   5.643   5.778   7.260 -0.4602  0.1027 -0.4431
   82MOL    H5730999   5.476   5.827   7.280  0.5893 -1.5207 -0.8644
   82MOL    H5831000   5.559   5.746   7.411 -1.3374 -0.6343 -0.1135
   82MOL    C5931001   5.872   6.136   7.040  0.9221 -0.3822  0.0588
   82MOL    C6031002   5.997   6.042   7.076  0.1572  0.0247 -0.9012
   82MOL    C6131003   6.114   6.118   7.146 -0.0758  0.2252  0.0951
   82MOL    O6231004   6.212   6.152   7.084 -0.1026  0.2004  0.6897
   82MOL    N6331005   6.104   6.152   7.273 -0.3844  0.7361 -0.3097
   82MOL    C6431006   6.209   6.207   7.350  0.2159 -0.1094  0.0655
   82MOL    C6531007   6.165   6.322   7.438  0.2082  0.5056  0.4469
   82MOL    C6631008   6.282   6.081   7.408 -0.5836 -0.0378  0.1700
   82MOL    H6731009   5.798   6.073   6.991 -0.3892  1.6853 -0.6920
   82MOL    H6831010   5.908   6.192   6.954 -1.2689  1.5800  0.3742
   82MOL    H6931011   5.959   5.982   7.158  2.2202  1.5708  1.2721
   82MOL    H7031012   6.018   6.140   7.325  1.2053 -0.5494  2.1416
   82MOL    H7131013   6.285   6.243   7.280 -0.4021  0.0281 -0.5453
   82MOL    H7231014   6.068   6.287   7.473 -1.0572 -0.2529 -3.5296
   82MOL    H7331015   6.225   6.327   7.529 -1.9647 -0.9605  2.0045
   82MOL    H7431016   6.162   6.413   7.378  0.7209  0.0802 -0.2271
   82MOL    H7531017   6.337   6.030   7.329  0.2622  0.1413  0.6364
   82MOL    H7631018   6.358   6.106   7.482  0.8096 -0.8500 -0.9547
   82MOL    H7731019   6.212   6.013   7.457  0.9596 -1.5332  0.3526
   82MOL    C7831020   6.050   5.959   6.953  0.4227  0.2402  0.0655
   82MOL    C7931021   5.948   5.881   6.875  0.5278  0.0381 -0.0199
   82MOL    C8031022   6.021   5.804   6.763 -0.2488  0.4470 -0.2022
   82MOL    O8131023   6.054   5.683   6.772 -0.0891 -0.4953  0.3270
   82MOL    N8231024   6.058   5.872   6.657 -0.4845  0.4882  0.0766
   82MOL    C8331025   6.120   5.804   6.542  0.0041  0.3123  0.6174
   82MOL    C8431026   6.016   5.724   6.455  0.0581 -0.4303 -0.3934
   82MOL    C8531027   6.200   5.901   6.454 -0.8001  0.0573 -0.3712
   82MOL    H8631028   6.113   5.879   6.992 -0.0986 -0.3420 -0.2874
   82MOL    H8731029   6.109   6.024   6.889 -0.2544 -0.0751 -0.8838
   82MOL    H8831030   5.891   5.953   6.815  2.1191  1.2053 -0.1769
   82MOL    H8931031   6.041   5.971   6.655  1.3186  0.8103 -0.5744
   82MOL    H9031032   6.196   5.734   6.576  0.9359  0.5396 -0.9415
   82MOL    H9131033   6.057   5.670   6.369  1.0089 -3.0403  1.6349
   82MOL    H9231034   5.959   5.648   6.508  1.1306 -1.2952 -0.4539
   82MOL    H9331035   5.945   5.791   6.406  0.6638  0.3117 -0.2606
   82MOL    H9431036   6.241   5.862   6.361  1.9794  3.0573 -0.5164
   82MOL    H9531037   6.292   5.933   6.502  1.0736  0.9155 -4.2895
   82MOL    H9631038   6.135   5.985   6.429 -0.9004 -0.1168 -0.7094
   82MOL    C9731039   5.854   5.797   6.970 -0.3166  0.6573 -0.0736
   82MOL    C9831040   5.751   5.706   6.898 -0.2924  0.1803 -0.3188
   82MOL    C9931041   5.659   5.796   6.813  0.6388 -0.1279  0.5592
   82MOL   O10031042   5.593   5.887   6.869  0.4059  0.4055 -0.8837
   82MOL   N10131043   5.661   5.775   6.678 -0.6634  0.3366 -0.1146
   82MOL   C10231044   5.594   5.843   6.571 -0.0437 -0.0322  0.8588
   82MOL   C10331045   5.650   5.988   6.561  0.1731 -0.5720 -0.6603
   82MOL   C10431046   5.604   5.767   6.433  0.0038 -0.4188 -0.5783
   82MOL   H10531047   5.808   5.873   7.033 -0.9565  0.4978 -0.3450
   82MOL   H10631048   5.918   5.740   7.038  0.3548  1.4136 -0.0665
   82MOL   H10731049   5.804   5.642   6.826 -1.2849 -2.3625  1.1402
   82MOL   H10831050   5.711   5.691   6.649 -0.7594  1.2207 -2.9840
   82MOL   H10931051   5.486   5.844   6.587 -0.1054  1.4924  0.4043
   82MOL   H11031052   5.651   6.036   6.658 -0.0489 -1.7475 -0.0705
   82MOL   H11131053   5.746   5.997   6.510  1.1806 -0.7631  1.1576
   82MOL   H11231054   5.585   6.043   6.493  0.8856 -0.2212 -1.0623
   82MOL   H11331055   5.656   5.673   6.450  2.6247  1.0435 -0.2616
   82MOL   H11431056   5.663   5.815   6.354 -2.2732  1.4096 -1.2540
   82MOL   H11531057   5.502   5.757   6.398  0.1498 -0.8432 -0.8748
   82MOL   C11631058   5.676   5.619   7.007  0.0819  0.0171  0.3734
   82MOL   C11731059   5.640   5.480   6.958  0.1927  0.7032  0.0684
   82MOL   C11831060   5.529   5.413   7.044  0.3487 -0.7126  0.8296
   82MOL   O11931061   5.458   5.336   6.983  0.7218  0.5358  0.0237
   82MOL   N12031062   5.501   5.459   7.166 -0.3388 -0.0359  0.2169
   82MOL   C12131063   5.393   5.400   7.249  0.1044 -0.2175  0.5468
   82MOL   C12231064   5.252   5.429   7.199  0.2460  0.0192 -0.3871
   82MOL   C12331065   5.423   5.251   7.290 -0.1401 -0.6526  0.9783
   82MOL   H12431066   5.582   5.671   7.025 -0.3328  0.2957 -2.3909
   82MOL   H12531067   5.734   5.619   7.099 -2.5858  1.1962  2.1082
   82MOL   H12631068   5.610   5.505   6.857 -0.6084 -0.7416 -0.0584
   82MOL   H12731069   5.567   5.524   7.206 -0.2190 -0.7401  1.1944
   82MOL   H12831070   5.398   5.454   7.344 -0.5293  1.4760 -0.3577
   82MOL   H12931071   5.245   5.537   7.206  1.0904 -0.0434  2.1041
   82MOL   H13031072   5.178   5.392   7.269 -1.1123  0.1892 -1.7130
   82MOL   H13131073   5.233   5.398   7.096 -0.6638  1.2822 -0.6066
   82MOL   H13231074   5.391   5.181   7.213  1.0007  1.5335 -1.5494
   82MOL   H13331075   5.522   5.237   7.333  0.0064 -1.8831  0.2429
   82MOL   H13431076   5.353   5.229   7.370 -0.5198 -2.9624  0.0369
   82MOL   C13531077   5.763   5.393   6.947 -0.2468  0.1106 -0.2195
   82MOL   C13631078   5.749   5.248   6.887  0.3643  0.5085  0.4763
   82MOL   C13731079   5.697   5.258   6.745  0.0598  0.0649  0.2285
   82MOL   O13831080   5.765   5.299   6.654 -0.1627  0.5051 -0.4590
   82MOL   N13931081   5.568   5.224   6.726  0.0853 -0.1146  0.0319
   82MOL   C14031082   5.492   5.228   6.600 -0.5440  0.1127  0.3866
   82MOL   C14131083   5.446   5.364   6.557 -0.2224 -0.4147 -0.3598
   82MOL   C14231084   5.372   5.128   6.586 -0.0156  0.5019  0.2725
   82MOL   H14331085   5.802   5.376   7.047  0.5929  0.2556 -0.5105
   82MOL   H14431086   5.850   5.435   6.896 -0.8292  0.2883 -1.0808
   82MOL   H14531087   5.688   5.182   6.949  1.1959 -1.1272 -0.4164
   82MOL   H14631088   5.515   5.205   6.810  0.8223 -0.8558  0.3373
   82MOL   H14731089   5.571   5.200   6.529 -3.2588 -0.7470 -2.4432
   82MOL   H14831090   5.526   5.436   6.573  1.7767 -2.6359 -0.2245
   82MOL   H14931091   5.418   5.367   6.452 -2.1244 -4.6120 -0.0774
   82MOL   H15031092   5.356   5.395   6.610 -0.0840 -0.4466 -0.1050
   82MOL   H15131093   5.346   5.146   6.482 -1.9151 -1.9579  0.2869
   82MOL   H15231094   5.288   5.148   6.652  0.4450  0.2021  0.9601
   82MOL   H15331095   5.404   5.024   6.596  0.9647  0.5728 -1.8457
   82MOL   C15431096   5.884   5.173   6.891  0.2513 -0.0464  0.3015
   82MOL   C15531097   5.876   5.026   6.847 -0.0935  0.2097  0.7536
   82MOL   C15631098   5.861   4.942   6.974 -0.7781  0.4977 -0.0115
   82MOL   O15731099   5.960   4.896   7.026  0.5090 -0.2998  0.5339
   82MOL   N15831100   5.739   4.933   7.030 -0.1372  0.1328 -0.1783
   82MOL   C15931101   5.699   4.863   7.155 -0.3174  0.0532 -0.7661
   82MOL   C16031102   5.652   4.718   7.130 -0.4480 -0.4233  0.1686
   82MOL   C16131103   5.604   4.960   7.227  0.1491  0.1160 -0.6493
   82MOL   H16231104   5.912   5.183   6.996 -0.8302  0.3474  0.5600
   82MOL   H16331105   5.963   5.221   6.834 -1.7841 -0.9775 -3.4443
   82MOL   H16431106   5.787   5.007   6.787  0.2589  1.4236 -0.1737
   82MOL   H16531107   5.665   4.986   6.987 -0.2848 -0.7153 -0.9932
   82MOL   H16631108   5.790   4.858   7.214 -0.2988 -2.6034 -0.9378
   82MOL   H16731109   5.697   4.667   7.046 -0.3927 -0.2322  0.0816
   82MOL   H16831110   5.657   4.678   7.231  0.2123  2.4828  1.3305
   82MOL   H16931111   5.548   4.722   7.098 -0.2626  0.7912 -0.3103
   82MOL   H17031112   5.659   5.043   7.273 -0.9198 -0.0979  1.0358
   82MOL   H17131113   5.552   4.912   7.309 -2.0147 -0.4418 -2.2881
   82MOL   H17231114   5.536   5.011   7.159 -0.3613  1.0464  0.5397
   82MOL   C17331115   5.987   4.970   6.758  0.2735 -0.6353  0.4091
   82MOL   C17431116   5.972   4.817   6.718  0.0008  0.5936  0.4508
   82MOL   C17531117   5.829   4.772   6.673 -0.7479  0.5805  0.4052
   82MOL   O17631118   5.777   4.824   6.576 -0.3112  0.1131  0.0841
   82MOL   N17731119   5.751   4.694   6.754 -0.0216 -1.0057  0.0760
   82MOL   C17831120   5.606   4.674   6.745  0.0836 -0.2849  0.0078
   82MOL   C17931121   5.575   4.559   6.651  0.1611  0.5405 -0.3878
   82MOL   C18031122   5.530   4.806   6.722 -0.0412 -0.3714 -0.4592
   82MOL   H18131123   6.077   5.003   6.811  0.8386 -0.4075 -0.6723
   82MOL   H18231124   5.999   5.031   6.668  1.0457 -0.8910  0.3311
   82MOL   H18331125   5.988   4.763   6.811 -1.2390 -0.5544  0.0116
   82MOL   H18431126   5.806   4.651   6.827 -0.7425  0.6211  1.5973
   82MOL   H18531127   5.594   4.646   6.849 -0.1888  1.9547  0.5903
   82MOL   H18631128   5.470   4.542   6.627 -0.1418 -0.6512  1.6744
   82MOL   H18731129   5.617   4.462   6.675  1.1612  1.4291  1.6225
   82MOL   H18831130   5.615   4.597   6.557  1.5330  1.8294  0.6772
   82MOL   H18931131   5.563   4.892   6.780  0.9519 -1.8493  1.2246
   82MOL   H19031132   5.421   4.801   6.729 -0.0170  2.2392  2.7284
   82MOL   H19131133   5.551   4.838   6.621 -1.3439  3.2452  0.3527
   82MOL   C19231134   6.093   4.780   6.626 -0.1123 -0.4560  0.3281
   82MOL   C19331135   6.177   4.651   6.653  0.7342 -0.4244  0.7586
   82MOL   C19431136   6.077   4.534   6.664  0.9679 -1.1250 -0.4678
   82MOL   O19531137   6.019   4.508   6.772 -0.0608  0.0068 -0.1361
   82MOL   N19631138   6.058   4.457   6.557 -0.2724 -0.4304  0.0959
   82MOL   C19731139   5.990   4.330   6.537  0.4965 -0.9606 -0.3057
   82MOL   C19831140   5.859   4.364   6.466 -0.1538 -0.5427  0.1312
   82MOL   C19931141   6.077   4.220   6.472 -0.5786  0.0592 -0.2630
   82MOL   H20031142   6.163   4.863   6.616 -0.7329  0.0390  0.0554
   82MOL   H20131143   6.067   4.770   6.520  0.9820 -1.7882  0.1627
   82MOL   H20231144   6.242   4.638   6.567  1.4449  1.5523  0.9828
   82MOL   H20331145   6.114   4.481   6.476  2.1668  1.0506  2.1781
   82MOL   H20431146   5.974   4.298   6.639  1.9801  1.1907  0.6491
   82MOL   H20531147   5.788   4.282   6.476  0.0557 -0.9320 -1.3528
   82MOL   H20631148   5.880   4.380   6.360  0.6642  1.9685  0.6227
   82MOL   H20731149   5.808   4.450   6.509  0.5207  0.0863 -0.3124
   82MOL   H20831150   6.176   4.225   6.518 -0.3619 -0.2115 -0.6903
   82MOL   H20931151   6.097   4.234   6.365 -0.2584 -2.8424 -0.6214
   82MOL   H21031152   6.033   4.121   6.481 -0.4729 -0.0413 -0.8028
   82MOL   C21131153   6.259   4.674   6.784  0.1925 -0.0677  0.3795
   82MOL   C21231154   6.391   4.602   6.803 -0.5025  0.1631  0.5933
   82MOL   C21331155   6.505   4.691   6.753 -0.6619 -0.2896  0.2069
   82MOL   O21431156   6.551   4.783   6.823  0.4828  0.1756 -0.1361
   82MOL   N21531157   6.555   4.659   6.634 -0.4015  0.2001  0.0543
   82MOL   C21631158   6.663   4.728   6.570  0.1925 -0.3419 -0.2524
   82MOL   C21731159   6.618   4.780   6.435  0.0681  0.4444 -0.4923
   82MOL   C21831160   6.786   4.656   6.554  0.1612  0.3725 -0.6607
   82MOL   H21931161   6.193   4.644   6.866 -0.0804 -1.7993 -0.4603
   82MOL   H22031162   6.264   4.780   6.811 -0.7259 -0.0456  0.4953
   82MOL   H22131163   6.383   4.510   6.744 -0.2297  1.0075 -0.7656
   82MOL   H22231164   6.517   4.579   6.586 -2.2943  0.6885  0.7008
   82MOL   H22331165   6.681   4.825   6.618  0.5341 -1.8960  2.8954
   82MOL   H22431166   6.589   4.699   6.369  1.1768 -0.7092  0.4065
   82MOL   H22531167   6.536   4.851   6.435  1.3321  1.9434  0.2544
   82MOL   H22631168   6.699   4.825   6.378 -0.5391  0.6491 -1.2019
   82MOL   H22731169   6.873   4.713   6.522  2.0055 -1.8559  0.3304
   82MOL   H22831170   6.769   4.562   6.501  1.8609  0.4718 -1.4098
   82MOL   H22931171   6.820   4.637   6.655  0.4235 -0.1211 -0.8427
   82MOL   C23031172   6.424   4.564   6.952  0.2088  0.1768 -0.4200
   82MOL   C23131173   6.555   4.478   6.967 -0.1987  0.0230 -0.8230
   82MOL   C23231174   6.595   4.464   7.116  0.0711  0.6449  0.5363
   82MOL   O23331175   6.503   4.455   7.200  0.6274  0.7535 -0.0870
   82MOL   N23431176   6.723   4.463   7.141 -0.0204 -0.0633 -0.4150
   82MOL   C23531177   6.792   4.431   7.275 -0.2812 -0.4725 -0.0945
   82MOL   C23631178   6.856   4.289   7.264  0.4916  0.0492  0.2263
   82MOL   C23731179   6.909   4.531   7.300 -0.2611  0.2932 -0.3323
   82MOL   H23831180   6.342   4.508   6.999  1.8602 -1.4933  0.5613
   82MOL   H23931181   6.442   4.653   7.012 -4.5174  0.8502  0.2557
   82MOL   H24031182   6.635   4.538   6.922  0.6661  0.3522  1.0945
   82MOL   H24131183   6.777   4.476   7.057  0.1860  1.0819 -0.1171
   82MOL   H24231184   6.734   4.436   7.367 -0.5245  1.6065 -0.3362
   82MOL   H24331185   6.939   4.291   7.194  1.5451  0.7539  1.4846
   82MOL   H24431186   6.906   4.264   7.358 -0.0673 -1.8077  0.0527
   82MOL   H24531187   6.784   4.209   7.244 -1.3755  1.3689  1.5465
   82MOL   H24631188   6.956   4.525   7.398  1.9117  0.1018 -1.3682
   82MOL   H24731189   6.870   4.633   7.290 -0.3119  0.2855 -0.2169
   82MOL   H24831190   6.980   4.506   7.222 -0.8721 -3.2080  0.1509
   82MOL   C24931191   6.542   4.334   6.912  0.0991  0.1391  0.6651
   82MOL   C25031192   6.663   4.246   6.912  0.1727 -0.1976  0.0031
   82MOL   C25131193   6.773   4.302   6.819  0.5512  0.8977  0.2055
   82MOL   O25231194   6.750   4.353   6.713 -0.0901 -0.3498  0.0389
   82MOL   N25331195   6.897   4.287   6.866 -0.1567  0.0560  0.3140
   82MOL   C25431196   7.012   4.333   6.797 -0.5247  0.1325 -0.4398
   82MOL   C25531197   7.098   4.402   6.899  0.0081 -0.1078  0.4506
   82MOL   C25631198   7.082   4.211   6.724 -0.1499 -0.1878 -0.8692
   82MOL   H25731199   6.504   4.338   6.809 -3.7689  1.2058  2.0487
   82MOL   H25831200   6.461   4.286   6.967 -0.2270  0.8605  0.8338
   82MOL   H25931201   6.699   4.237   7.015 -2.1391  1.9592  1.0720
   82MOL   H26031202   6.914   4.236   6.951  0.5445 -2.9629 -1.5460
   82MOL   H26131203   7.002   4.400   6.711 -1.3086  0.9114  0.2547
   82MOL   H26231204   7.056   4.491   6.946 -0.6394  0.0790 -0.4840
   82MOL   H26331205   7.102   4.331   6.982 -2.0610  1.0212  1.5577
   82MOL   H26431206   7.200   4.423   6.867  0.1957  0.8952  1.6321
   82MOL   H26531207   7.007   4.167   6.657 -2.0013  1.0063  0.3734
   82MOL   H26631208   7.165   4.249   6.664  1.1006  0.0757  0.9908
   82MOL   H26731209   7.108   4.129   6.790 -2.0193  0.7273  1.0411
   82MOL   C26831210   6.616   4.110   6.858  0.2579  0.0268  0.6211
   82MOL   C26931211   6.722   3.990   6.827  0.4044  0.2378  0.0883
   82MOL   C27031212   6.821   3.949   6.942 -0.0774 -0.8560  0.5354
   82MOL   O27131213   6.937   3.993   6.953  0.5877  0.5135  0.5993
   82MOL   N27231214   6.765   3.881   7.045 -0.3850 -0.4594  0.7353
   82MOL   C27331215   6.844   3.838   7.157  0.5084 -0.6875  0.2052
   82MOL   C27431216   6.885   3.949   7.259  0.1053 -0.2609  0.6218
   82MOL   C27531217   6.773   3.725   7.226 -0.0295 -0.8054  0.5682
   82MOL   H27631218   6.546   4.075   6.934  0.9824 -0.0821  1.2491
   82MOL   H27731219   6.552   4.132   6.772  0.1256  1.5047  1.0968
   82MOL   H27831220   6.784   4.017   6.742  0.8787 -0.7523  0.1175
   82MOL   H27931221   6.669   3.852   7.037 -0.9410  1.5521 -0.1456
   82MOL   H28031222   6.940   3.809   7.116  2.1537  2.0873  1.9079
   82MOL   H28131223   6.925   3.911   7.353 -0.0977 -0.4903  0.6157
   82MOL   H28231224   6.961   4.014   7.215  0.0180 -1.7695 -1.9245
   82MOL   H28331225   6.798   4.005   7.292 -1.7140 -0.8839 -2.8261
   82MOL   H28431226   6.757   3.642   7.157  0.5667 -0.9666  0.6242
   82MOL   H28531227   6.827   3.687   7.312 -1.9225 -3.5791  0.5851
   82MOL   H28631228   6.679   3.767   7.262 -1.6012 -1.8804 -2.1185
   82MOL   C28731229   6.646   3.868   6.777 -0.3022 -0.0627 -0.3256
   82MOL   C28831230   6.731   3.763   6.701 -0.2109  0.4772  0.4412
   82MOL   C28931231   6.772   3.813   6.568 -0.4626 -0.0809 -0.5535
   82MOL   O29031232   6.689   3.808   6.477 -0.0277  0.9667 -0.2667
   82MOL   N29131233   6.893   3.866   6.546 -0.1999 -0.1656  0.0986
   82MOL   C29231234   6.931   3.913   6.414  0.0652  0.1380  0.8994
   82MOL   C29331235   6.851   4.041   6.382 -0.4055 -0.0302  0.2023
   82MOL   C29431236   7.084   3.943   6.404 -0.7021 -0.8596  0.4009
   82MOL   H29531237   6.601   3.823   6.866  0.5938  1.6410  1.0015
   82MOL   H29631238   6.565   3.906   6.714 -0.2206  2.2288  0.9064
   82MOL   H29731239   6.822   3.747   6.759 -1.2204  2.3638  2.6580
   82MOL   H29831240   6.963   3.890   6.614  1.2852 -0.5545 -1.2521
   82MOL   H29931241   6.916   3.837   6.338 -0.2540  1.9894 -0.9509
   82MOL   H30031242   6.748   4.016   6.356 -0.4130  0.9043 -0.7259
   82MOL   H30131243   6.849   4.118   6.459 -0.5922  1.6556 -1.4469
   82MOL   H30231244   6.883   4.079   6.285 -1.4375 -0.0211 -0.1479
   82MOL   H30331245   7.151   3.867   6.443  0.7458 -0.1338 -0.6110
   82MOL   H30431246   7.100   3.965   6.298 -0.3725 -0.9032  0.4413
   82MOL   H30531247   7.101   4.036   6.459 -0.8479 -1.8615  2.1616
   82MOL   C30631248   6.651   3.634   6.699  0.0125 -0.4049 -0.1959
   82MOL   C30731249   6.646   3.545   6.821 -0.0217 -0.2561 -0.4513
   82MOL   C30831250   6.767   3.455   6.838 -0.3065 -0.0714  0.2547
   82MOL   O30931251   6.802   3.381   6.749 -0.1255 -0.5435 -0.0555
   82MOL   N31031252   6.834   3.474   6.960  0.0695  0.2515 -0.0660
   82MOL   C31131253   6.956   3.404   7.007 -0.2294 -0.4817  0.6979
   82MOL   C31231254   7.037   3.489   7.102  0.0799  0.3501  0.2834
   82MOL   C31331255   6.905   3.280   7.083 -0.4992 -0.0627 -0.1906
   82MOL   H31431256   6.551   3.654   6.662 -0.3768  1.2326  1.6580
   82MOL   H31531257   6.699   3.573   6.622  2.1374  1.2218 -0.1866
   82MOL   H31631258   6.649   3.616   6.904  0.4114 -3.0440  1.9958
   82MOL   H31731259   6.808   3.554   7.016  0.0952  0.5700 -0.5047
   82MOL   H31831260   7.017   3.371   6.923 -0.8709  0.1155 -0.0132
   82MOL   H31931261   7.039   3.582   7.046  0.2039 -0.3343 -0.8847
   82MOL   H32031262   7.135   3.442   7.110  1.0575  2.0104 -1.6924
   82MOL   H32131263   6.983   3.496   7.197  1.3571  2.3182  0.8846
   82MOL   H32231264   6.991   3.241   7.137 -0.8170 -0.1930  0.2259
   82MOL   H32331265   6.846   3.202   7.034 -0.8353 -0.3285  0.6115
   82MOL   H32431266   6.836   3.307   7.163 -0.4833 -1.6317  0.3817
   82MOL   C32531267   6.525   3.448   6.826 -0.9178  0.1497 -0.3883
   82MOL   C32631268   6.451   3.410   6.701 -0.0693  0.6774 -0.3117
   82MOL   C32731269   6.447   3.253   6.684  0.0435 -0.2688  0.5510
   82MOL   O32831270   6.342   3.196   6.707  0.3271 -0.0204  0.0590
   82MOL   N32931271   6.557   3.197   6.633 -0.1192  0.5526 -0.6448
   82MOL   C33031272   6.572   3.054   6.599  0.1048  0.1925  0.1699
   82MOL   C33131273   6.610   2.979   6.724  1.0355  0.1709 -0.1099
   82MOL   C33231274   6.676   3.033   6.487  0.3152 -0.2447  0.1848
   82MOL   H33331275   6.453   3.498   6.891  1.3974  0.9794  1.6084
   82MOL   H33431276   6.543   3.358   6.886 -0.6942  2.3516  2.9889
   82MOL   H33531277   6.514   3.436   6.616  1.4820  0.8394  0.8749
   82MOL   H33631278   6.634   3.258   6.610  0.8107  0.9498  3.1270
   82MOL   H33731279   6.476   3.017   6.565  0.2431 -1.5879  1.6456
   82MOL   H33831280   6.665   2.892   6.690 -0.3492  0.0298 -2.1057
   82MOL   H33931281   6.675   3.039   6.788  1.7207 -0.0171 -0.6233
   82MOL   H34031282   6.530   2.944   6.790  2.3548 -0.0397  1.3954
   82MOL   H34131283   6.662   3.113   6.415  0.0245 -0.1837  0.3065
   82MOL   H34231284   6.673   2.933   6.444  0.4727 -0.2562  0.2025
   82MOL   H34331285   6.779   3.046   6.519 -0.0909 -0.3753  1.5623
   82MOL   C34431286   6.319   3.484   6.690  0.4598  0.5300  0.2236
   82MOL   C34531287   6.239   3.467   6.560 -0.8017 -1.2040 -0.1036
   82MOL   C34631288   6.096   3.400   6.585 -0.0146  0.0918  0.5616
   82MOL   O34731289   5.995   3.472   6.574 -0.4121 -0.1543 -0.6029
   82MOL   N34831290   6.095   3.270   6.616  0.4414 -0.5023  0.1119
   82MOL   C34931291   5.990   3.170   6.592 -0.2840 -0.1127 -0.3118
   82MOL   C35031292   6.032   3.065   6.488 -0.4136  0.3455 -0.2114
   82MOL   C35131293   5.966   3.109   6.733  0.2902  0.5118  0.0872
   82MOL   H35231294   6.330   3.584   6.731 -2.9553  0.7436  0.7062
   82MOL   H35331295   6.251   3.453   6.769  2.0561  0.4961  1.6204
   82MOL   H35431296   6.279   3.394   6.490 -1.2787 -0.5495 -1.0778
   82MOL   H35531297   6.189   3.234   6.623  0.6296  0.3428  2.6513
   82MOL   H35631298   5.903   3.226   6.559 -0.4519 -0.7010 -0.8673
   82MOL   H35731299   5.948   2.995   6.485 -0.6548  0.6506 -0.6437
   82MOL   H35831300   6.032   3.111   6.389 -0.4582 -1.4895 -1.0867
   82MOL   H35931301   6.121   3.008   6.514 -0.8832 -0.2865  0.0151
   82MOL   H36031302   5.869   3.063   6.749  0.0347  0.7819 -0.6759
   82MOL   H36131303   6.046   3.040   6.758 -0.4880 -0.4321 -0.0172
   82MOL   H36231304   5.970   3.195   6.800 -3.8104  0.3957  0.6277
   82MOL   C36331305   6.212   3.600   6.481 -0.3230  0.0491 -0.0440
   82MOL   C36431306   6.338   3.670   6.434  0.7750 -0.3380 -0.4743
   82MOL   C36531307   6.427   3.586   6.341 -0.3744 -0.4011 -0.3413
   82MOL   O36631308   6.378   3.545   6.235 -0.7115  0.3435 -0.7939
   82MOL   N36731309   6.556   3.573   6.377  0.5028  0.0183  0.4549
   82MOL   C36831310   6.656   3.499   6.301 -0.2832 -1.0931  0.5501
   82MOL   C36931311   6.741   3.595   6.224  0.1090 -0.7817 -0.1517
   82MOL   C37031312   6.750   3.425   6.395 -0.4682  0.6308  0.5347
   82MOL   H37131313   6.157   3.674   6.539  1.9748  3.0917 -1.6233
   82MOL   H37231314   6.155   3.584   6.390 -1.3576  0.8973  0.4526
   82MOL   H37331315   6.389   3.710   6.522  0.0931 -0.8688  0.1738
   82MOL   H37431316   6.587   3.630   6.454 -1.8390  0.7928  0.8921
   82MOL   H37531317   6.606   3.429   6.235  0.6480 -2.1771  0.9616
   82MOL   H37631318   6.790   3.670   6.286  0.3990 -0.3305 -0.9149
   82MOL   H37731319   6.812   3.536   6.164  1.1864  1.7718 -1.4812
   82MOL   H37831320   6.679   3.652   6.155  0.2838  0.3445  0.6134
   82MOL   H37931321   6.810   3.349   6.344  0.0525 -0.5924  2.8848
   82MOL   H38031322   6.828   3.489   6.436 -3.2560  3.0580  2.2219
   82MOL   H38131323   6.692   3.371   6.470  0.5234 -2.1722 -0.6397
   82MOL   H38231324   6.314   3.766   6.389 -1.1214  0.1189  1.4190
   83MOL     C131325   7.130   7.378   3.939 -0.5295 -0.2057 -0.2732
   83MOL     C231326   6.999   7.432   3.879  0.2255  0.5810  0.0174
   83MOL     C331327   6.902   7.312   3.866  0.3460  0.1084  1.4215
   83MOL     O431328   6.852   7.259   3.966  0.2837 -0.2084 -0.6020
   83MOL     N531329   6.881   7.258   3.744 -0.7264 -0.1307 -0.4152
   83MOL     C631330   6.822   7.130   3.713 -0.3905  0.8190 -0.5572
   83MOL     C731331   6.673   7.139   3.703  0.1871 -0.2581 -0.0313
   83MOL     C831332   6.884   7.077   3.583  0.5395  0.4606 -0.1084
   83MOL     H931333   7.109   7.342   4.039  0.4721  1.0262  0.3982
   83MOL    H1031334   7.210   7.452   3.939 -0.1663 -0.4895  3.5945
   83MOL    H1131335   7.022   7.453   3.774 -0.9769  1.3162 -0.1085
   83MOL    H1231336   6.937   7.311   3.678  4.4057 -0.8989  3.0447
   83MOL    H1331337   6.844   7.063   3.797  1.6366  1.8426 -0.2445
   83MOL    H1431338   6.635   7.186   3.794  0.0358 -0.6390  0.1059
   83MOL    H1531339   6.606   7.059   3.672 -0.4017  0.6408 -1.1093
   83MOL    H1631340   6.658   7.210   3.621  0.7184 -1.7891 -1.4768
   83MOL    H1731341   6.850   7.120   3.489 -0.2124  1.8849  0.7893
   83MOL    H1831342   6.991   7.096   3.577  0.4494  1.5230  1.1110
   83MOL    H1931343   6.865   6.970   3.581 -0.7297  0.6785 -0.4681
   83MOL    H2031344   7.160   7.287   3.887  3.5950  1.0526 -0.3017
   83MOL    C2131345   6.941   7.560   3.946 -0.4598 -0.0804 -0.0199
   83MOL    C2231346   6.886   7.549   4.092 -0.4906  0.7292 -0.3202
   83MOL    C2331347   6.732   7.548   4.093 -0.1667 -0.6095 -0.1383
   83MOL    O2431348   6.669   7.654   4.097 -0.3168  0.3031 -0.1686
   83MOL    N2531349   6.674   7.429   4.069  0.1071 -0.5758 -1.0132
   83MOL    C2631350   6.529   7.405   4.060 -0.8155 -0.8254  0.3977
   83MOL    C2731351   6.500   7.260   4.085  0.2331  0.3203  0.1861
   83MOL    C2831352   6.459   7.450   3.928  0.1707 -0.5569 -0.1785
   83MOL    H2931353   6.862   7.600   3.882 -1.7306  0.0156  1.5414
   83MOL    H3031354   7.020   7.635   3.942 -0.7406  0.3110  1.2179
   83MOL    H3131355   6.918   7.453   4.132  0.4455  0.7675 -0.9798
   83MOL    H3231356   6.732   7.355   4.030 -0.3171 -0.6016 -1.5932
   83MOL    H3331357   6.478   7.440   4.150  0.8992  2.5709  0.0965
   83MOL    H3431358   6.571   7.228   4.161  0.1496 -2.8825 -0.9975
   83MOL    H3531359   6.540   7.195   4.006 -0.8134 -2.3020  1.7406
   83MOL    H3631360   6.398   7.229   4.108  0.4502  1.0780  2.2174
   83MOL    H3731361   6.435   7.556   3.923 -0.3287 -0.7599 -2.6677
   83MOL    H3831362   6.531   7.430   3.848  0.5164  0.0040 -0.0095
   83MOL    H3931363   6.368   7.393   3.908 -0.3927 -0.3090  1.5988
   83MOL    C4031364   6.944   7.647   4.192 -0.2154  0.3106  0.1529
   83MOL    C4131365   6.926   7.598   4.342 -0.5188 -0.6214 -0.8681
   83MOL    C4231366   6.813   7.683   4.408  0.4628 -0.2154  0.5670
   83MOL    O4331367   6.828   7.806   4.423 -0.1306  0.0087  0.1444
   83MOL    N4431368   6.706   7.619   4.458 -0.1951  0.3379 -0.4376
   83MOL    C4531369   6.596   7.677   4.527  0.8221 -0.3094  0.5203
   83MOL    C4631370   6.458   7.631   4.469 -0.4850  0.0846  0.2601
   83MOL    C4731371   6.600   7.645   4.672 -0.0579  0.8202 -0.5489
   83MOL    H4831372   6.902   7.747   4.184 -2.4036 -0.7452 -2.6601
   83MOL    H4931373   7.051   7.656   4.178 -0.0026 -2.3713 -0.3546
   83MOL    H5031374   6.883   7.498   4.347 -3.0824  0.3440 -2.6121
   83MOL    H5131375   6.701   7.518   4.462 -1.4897  0.4417  1.6609
   83MOL    H5231376   6.587   7.786   4.525  0.2535 -0.3634 -0.1374
   83MOL    H5331377   6.377   7.693   4.507 -0.1559  0.4835  0.3139
   83MOL    H5431378   6.431   7.530   4.503  1.0757 -1.0741 -1.8072
   83MOL    H5531379   6.457   7.625   4.360 -2.8293 -0.0901  0.2780
   83MOL    H5631380   6.572   7.545   4.705 -0.1038  1.2864  0.8486
   83MOL    H5731381   6.542   7.715   4.731  1.1545 -0.2269  1.9650
   83MOL    H5831382   6.705   7.650   4.700  0.1919  0.4585 -1.3999
   83MOL    C5931383   7.061   7.608   4.419 -0.2031  0.2578 -0.6432
   83MOL    C6031384   7.056   7.545   4.562 -0.1189 -0.0015 -0.4175
   83MOL    C6131385   7.163   7.615   4.649  0.2121 -0.3073  0.0121
   83MOL    O6231386   7.284   7.572   4.652  1.3008 -0.3867  0.2052
   83MOL    N6331387   7.118   7.724   4.719  0.1812  0.4532  0.7120
   83MOL    C6431388   7.181   7.770   4.842  0.3322 -0.2725 -0.4192
   83MOL    C6531389   7.261   0.062   4.829  0.2503 -0.3963  0.0805
   83MOL    C6631390   7.070   7.772   4.954 -0.1544  0.3232 -0.4971
   83MOL    H6731391   7.140   7.555   4.366 -0.2177  0.4812 -0.8888
   83MOL    H6831392   7.089   7.713   4.414 -0.3462  0.3015 -0.5286
   83MOL    H6931393   6.959   7.577   4.600 -0.1715 -1.0270  0.3173
   83MOL    H7031394   7.021   7.747   4.709  0.4940  1.8365  0.6842
   83MOL    H7131395   7.245   7.692   4.881 -0.0113  0.9839  2.9366
   83MOL    H7231396   7.341   0.062   4.755  0.5355 -1.0221  0.3822
   83MOL    H7331397   7.200   0.149   4.802 -1.8189 -1.0696  2.3968
   83MOL    H7431398   7.311   0.089   4.922 -1.3813  0.1569  0.8275
   83MOL    H7531399   7.005   7.687   4.968 -0.0217  0.5101  1.4559
   83MOL    H7631400   7.115   7.792   5.052 -1.8580  0.9210  0.1707
   83MOL    H7731401   7.002   0.020   4.940  2.9732  3.6530  3.0809
   83MOL    C7831402   7.060   7.392   4.569 -0.0333  0.4261 -0.3418
   83MOL    C7931403   7.037   7.311   4.698 -0.1944  0.4684  0.5596
   83MOL    C8031404   6.904   7.359   4.763 -0.3274  0.0567 -0.4951
   83MOL    O8131405   6.804   7.378   4.690 -0.1268  0.1010 -0.2369
   83MOL    N8231406   6.904   7.372   4.894  0.0475 -0.4510  0.2527
   83MOL    C8331407   6.792   7.378   4.989 -0.5142  0.5399  0.5440
   83MOL    C8431408   6.763   7.254   5.060  0.5452 -0.1714  0.1895
   83MOL    C8531409   6.779   7.503   5.070  0.1548  0.0510 -0.5556
   83MOL    H8631410   7.163   7.373   4.536 -0.0304  0.6626 -0.4717
   83MOL    H8731411   7.004   7.350   4.485  1.9523 -1.2210 -0.8774
   83MOL    H8831412   7.123   7.332   4.762  1.5613 -0.1259 -1.5491
   83MOL    H8931413   6.987   7.351   4.949 -0.0788  0.1780  0.6915
   83MOL    H9031414   6.706   7.388   4.923  0.9980  0.9389 -1.3841
   83MOL    H9131415   6.822   7.255   5.152  0.2954  2.1694  0.3454
   83MOL    H9231416   6.664   7.240   5.104  1.0638  0.2799  1.5386
   83MOL    H9331417   6.777   7.167   4.995 -0.0256  1.1203 -1.6839
   83MOL    H9431418   6.679   7.503   5.115  0.2504 -1.7143 -0.2717
   83MOL    H9531419   6.807   7.594   5.018 -1.0680  2.0724  2.2630
   83MOL    H9631420   6.850   7.500   5.152  0.5589 -3.1098 -0.9445
   83MOL    C9731421   7.022   7.161   4.654 -0.1611  0.1973 -0.1844
   83MOL    C9831422   7.026   7.048   4.765 -0.2576 -0.6885  0.0243
   83MOL    C9931423   7.133   7.071   4.868  0.1431  0.4642  0.5214
   83MOL   O10031424   7.244   7.102   4.834 -0.0757  0.5468 -0.0447
   83MOL   N10131425   7.096   7.057   4.996  0.3628  0.6792 -0.5374
   83MOL   C10231426   7.179   7.052   5.113  0.8363 -0.5114  0.0092
   83MOL   C10331427   7.103   7.114   5.231 -0.3808  0.3076 -0.1129
   83MOL   C10431428   7.205   6.911   5.152 -0.4893 -0.0567  0.0431
   83MOL   H10531429   7.092   7.124   4.579 -0.4692 -2.6372  0.9034
   83MOL   H10631430   6.928   7.145   4.600 -0.5818 -0.1622  0.6576
   83MOL   H10731431   6.937   7.050   4.828 -0.1632 -1.6564  0.1893
   83MOL   H10831432   7.000   7.028   5.004  0.5263 -0.4525 -2.2918
   83MOL   H10931433   7.272   7.107   5.098  0.0966  0.8340  0.2356
   83MOL   H11031434   6.997   7.093   5.243 -0.5341  1.6717  1.0608
   83MOL   H11131435   7.154   7.099   5.326  0.2367 -0.7944 -0.6107
   83MOL   H11231436   7.116   7.222   5.226  1.5343  0.0456 -1.2254
   83MOL   H11331437   7.280   6.905   5.230  0.1930  0.4221 -0.5707
   83MOL   H11431438   7.252   6.865   5.065  1.8849  1.6342  0.3900
   83MOL   H11531439   7.113   6.854   5.166 -0.5504  0.0802  0.2096
   83MOL   C11631440   7.042   6.905   4.705  0.0058  0.4295  0.1738
   83MOL   C11731441   6.995   6.794   4.798  0.0634 -0.1151  0.3458
   83MOL   C11831442   7.056   6.657   4.759  0.3152  0.2613  0.4447
   83MOL   O11931443   7.011   6.603   4.657  0.2365  0.2071  0.1201
   83MOL   N12031444   7.132   6.597   4.847 -0.3523 -0.2539 -0.0151
   83MOL   C12131445   7.176   6.452   4.850 -0.5189 -1.0673 -0.1854
   83MOL   C12231446   7.318   6.441   4.886  0.3170  0.4634 -0.5357
   83MOL   C12331447   7.078   6.378   4.936 -0.5034 -0.1907 -0.7685
   83MOL   H12431448   7.143   6.889   4.666  0.6374  0.6009  1.6800
   83MOL   H12531449   6.973   6.900   4.621  1.5808  0.3726 -1.1631
   83MOL   H12631450   7.036   6.831   4.892  0.9589  0.4612 -0.2654
   83MOL   H12731451   7.136   6.645   4.936  1.0321  1.3910 -0.9499
   83MOL   H12831452   7.157   6.405   4.753  0.4087 -0.8635 -0.4709
   83MOL   H12931453   7.373   6.473   4.797  2.2170 -0.7684  0.1608
   83MOL   H13031454   7.356   6.343   4.916 -0.2349 -0.1915 -1.9281
   83MOL   H13131455   7.333   6.509   4.970 -2.8598  0.2744  0.2268
   83MOL   H13231456   7.118   6.286   4.978 -0.3490  0.4331  0.4653
   83MOL   H13331457   7.046   6.424   5.029  0.4090 -1.6509  0.2827
   83MOL   H13431458   6.986   6.358   4.882  0.9399 -0.2450 -3.3418
   83MOL   C13531459   6.834   6.788   4.802  0.3455  0.4564 -0.2591
   83MOL   C13631460   6.777   6.687   4.914  0.1309 -0.7243  0.8886
   83MOL   C13731461   6.825   6.740   5.053  0.2776 -0.4457  0.0910
   83MOL   O13831462   6.836   6.862   5.073 -0.1602  0.3051 -0.4395
   83MOL   N13931463   6.857   6.652   5.149  0.2546 -0.1146  0.6428
   83MOL   C14031464   6.894   6.691   5.290 -0.0913 -0.1868  0.2347
   83MOL   C14131465   7.023   6.625   5.347 -0.4214 -0.6721 -0.3626
   83MOL   C14231466   6.770   6.671   5.384 -0.3220 -0.4436 -0.5246
   83MOL   H14331467   6.797   6.756   4.705 -2.0621 -0.7681  1.0184
   83MOL   H14431468   6.789   6.886   4.818 -1.3039 -0.1812 -0.8744
   83MOL   H14531469   6.816   6.586   4.903 -0.0587 -0.6775 -0.1932
   83MOL   H14631470   6.858   6.553   5.130 -1.7122  0.2945 -1.8398
   83MOL   H14731471   6.916   6.798   5.290 -1.4887  0.1134  0.1719
   83MOL   H14831472   7.009   6.518   5.366  0.8605 -0.3264  2.7765
   83MOL   H14931473   7.099   6.639   5.270 -1.2975 -1.3886 -1.3773
   83MOL   H15031474   7.059   6.664   5.442  2.3293 -1.6777 -0.9273
   83MOL   H15131475   6.680   6.696   5.328 -0.4797 -1.4506 -0.7277
   83MOL   H15231476   6.770   6.744   5.465  0.8792 -2.0116  0.9162
   83MOL   H15331477   6.752   6.568   5.413  2.6183 -1.0764 -0.8108
   83MOL   C15431478   6.627   6.678   4.903  0.0260 -0.5902 -0.2901
   83MOL   C15531479   6.549   6.574   4.991  0.2599 -0.5683 -0.3274
   83MOL   C15631480   6.593   6.432   4.955  0.2791  0.5648  0.4275
   83MOL   O15731481   6.558   6.380   4.850 -0.0975  0.3661  0.3978
   83MOL   N15831482   6.668   6.370   5.045 -0.2758  0.0599  0.1398
   83MOL   C15931483   6.709   6.235   5.028  0.5685 -0.2327  0.3841
   83MOL   C16031484   6.584   6.141   5.058 -0.2707  0.4059 -0.2173
   83MOL   C16131485   6.819   6.201   5.131 -0.1605  0.5134 -0.1919
   83MOL   H16231486   6.598   6.656   4.800 -0.1210 -0.3741 -0.2928
   83MOL   H16331487   6.601   6.781   4.924 -0.2268 -0.6579 -0.2624
   83MOL   H16431488   6.590   6.594   5.090  0.3505 -2.0029 -0.0564
   83MOL   H16531489   6.707   6.423   5.121 -0.1042 -0.8279  0.6763
   83MOL   H16631490   6.743   6.208   4.928 -0.2786  2.7804 -0.7715
   83MOL   H16731491   6.513   6.139   4.975 -0.1403 -2.0963 -0.2849
   83MOL   H16831492   6.631   6.043   5.064  2.5686  1.7750  1.2558
   83MOL   H16931493   6.536   6.159   5.154  0.1418 -0.5796  0.1754
   83MOL   H17031494   6.851   6.098   5.113 -1.4789 -0.0273  0.5190
   83MOL   H17131495   6.771   6.217   5.227 -2.2903  0.5802 -1.2347
   83MOL   H17231496   6.902   6.271   5.140 -0.3365  0.7838 -0.6447
   83MOL   C17331497   6.398   6.590   4.994  0.3989  0.0318  0.6234
   83MOL   C17431498   6.302   6.490   5.069 -1.0029 -1.3185 -0.2573
   83MOL   C17531499   6.342   6.476   5.224 -0.5105  0.2561 -0.0155
   83MOL   O17631500   6.357   6.579   5.294 -0.0478 -0.0515 -0.2674
   83MOL   N17731501   6.355   6.355   5.282 -0.2101  0.3632 -0.1707
   83MOL   C17831502   6.366   6.316   5.425 -0.0948 -0.0485 -0.4888
   83MOL   C17931503   6.513   6.314   5.473  0.6035 -0.4564 -0.2386
   83MOL   C18031504   6.293   6.193   5.462 -0.4352  0.0565  0.5756
   83MOL   H18131505   6.360   6.602   4.892  0.1562 -0.7268  0.6223
   83MOL   H18231506   6.392   6.683   5.051  0.0145 -1.7435  3.5607
   83MOL   H18331507   6.321   6.393   5.022  0.9642 -0.1910 -1.8813
   83MOL   H18431508   6.340   6.280   5.216  2.2205 -1.6713  1.5004
   83MOL   H18531509   6.322   6.396   5.485  2.3253  0.0808  1.1900
   83MOL   H18631510   6.523   6.250   5.560 -0.5193  0.1173  0.3138
   83MOL   H18731511   6.552   6.416   5.478 -0.3654 -0.1303  0.6383
   83MOL   H18831512   6.584   6.270   5.403 -2.1198  0.0430 -3.4750
   83MOL   H18931513   6.184   6.194   5.467 -0.5167  1.3684 -1.1336
   83MOL   H19031514   6.337   6.137   5.544 -0.0574 -0.8970 -0.2649
   83MOL   H19131515   6.305   6.130   5.373  0.3843  1.9796 -0.6962
   83MOL   C19231516   6.160   6.545   5.051 -0.4329 -0.0336 -0.7484
   83MOL   C19331517   6.051   6.443   5.103  0.4204  0.1192 -0.2760
   83MOL   C19431518   6.048   6.315   5.022  0.3201  0.5214  0.3475
   83MOL   O19531519   6.076   6.313   4.903  0.1692 -0.1363  0.2108
   83MOL   N19631520   6.024   6.201   5.089 -0.3235 -0.2401 -0.6666
   83MOL   C19731521   6.043   6.065   5.033 -0.3768  0.5254  0.3572
   83MOL   C19831522   6.137   5.985   5.124  0.4847  0.1828  0.0080
   83MOL   C19931523   5.904   6.006   5.027 -0.1821 -0.1060 -0.1314
   83MOL   H20031524   6.130   6.562   4.948  1.0274 -2.5701 -1.6274
   83MOL   H20131525   6.153   6.637   5.109  2.3336 -0.5921  0.5474
   83MOL   H20231526   6.078   6.406   5.202 -0.7859 -1.6422 -0.5999
   83MOL   H20331527   5.998   6.208   5.187  3.2692  0.3808  0.3091
   83MOL   H20431528   6.087   6.073   4.933 -1.6491  0.2690 -0.2392
   83MOL   H20531529   6.113   5.981   5.230  0.5380 -0.0353  0.0115
   83MOL   H20631530   6.223   6.052   5.112 -1.1759  2.4627  0.5585
   83MOL   H20731531   6.161   5.892   5.073  1.4900 -0.9404  2.4281
   83MOL   H20831532   5.899   5.904   4.988  0.2938 -1.0146  2.1513
   83MOL   H20931533   5.834   6.073   4.977 -0.1470  0.6332  0.8043
   83MOL   H21031534   5.864   5.997   5.128 -0.0272  1.6833  0.1052
   83MOL   C21131535   5.915   6.518   5.103 -0.2122 -0.7898  0.8925
   83MOL   C21231536   5.906   6.647   5.194  0.1952  0.0364  0.4848
   83MOL   C21331537   5.770   6.712   5.181 -0.5660  1.0396  0.1200
   83MOL   O21431538   5.672   6.647   5.210  0.4173 -0.2356  0.1729
   83MOL   N21531539   5.768   6.837   5.141  0.5804  0.0626  0.2153
   83MOL   C21631540   5.646   6.920   5.139 -0.6718  0.2546  0.2196
   83MOL   C21731541   5.652   7.020   5.018  0.3420  0.6557  0.2156
   83MOL   C21831542   5.634   6.990   5.277 -0.2936  0.6104  0.4915
   83MOL   H21931543   5.835   6.448   5.128 -1.3998 -0.4899 -1.9937
   83MOL   H22031544   5.896   6.549   5.001  1.1957 -0.0972  0.8282
   83MOL   H22131545   5.977   6.716   5.147  0.4009 -0.4499  0.0810
   83MOL   H22231546   5.861   6.871   5.121 -0.0656  2.1310  0.6079
   83MOL   H22331547   5.558   6.859   5.118 -0.3959  0.0024 -0.2076
   83MOL   H22431548   5.662   6.963   4.926 -1.4220 -0.5860  0.7630
   83MOL   H22531549   5.563   7.083   5.012  0.2138  0.7453  2.5772
   83MOL   H22631550   5.734   7.091   5.028  0.5132  0.7476 -1.6665
   83MOL   H22731551   5.569   7.075   5.260 -1.4102 -0.3429 -0.0915
   83MOL   H22831552   5.724   7.037   5.317  0.8450 -2.4208  1.6845
   83MOL   H22931553   5.584   6.927   5.351  0.0523  1.7822  1.7461
   83MOL   C23031554   5.957   6.627   5.337  0.3867  0.7004  0.1739
   83MOL   C23131555   5.878   6.543   5.442  0.3370 -0.0756  0.8548
   83MOL   C23231556   5.867   6.391   5.402  0.2054 -0.1875 -0.7350
   83MOL   O23331557   5.968   6.322   5.403 -0.7187 -0.5219 -0.0436
   83MOL   N23431558   5.742   6.352   5.380 -0.5031 -1.1428 -0.6814
   83MOL   C23531559   5.683   6.229   5.324  0.4021 -0.5249  0.0082
   83MOL   C23631560   5.650   6.122   5.434  0.4573 -0.9716 -0.1600
   83MOL   C23731561   5.565   6.270   5.234 -0.2630  0.0834 -0.6476
   83MOL   H23831562   5.971   6.726   5.379 -1.0295  1.1947 -0.5016
   83MOL   H23931563   6.056   6.582   5.336 -0.3095 -0.9118  1.1366
   83MOL   H24031564   5.782   6.592   5.458  0.5426  0.1974  1.2603
   83MOL   H24131565   5.682   6.432   5.365  0.1581 -0.5705 -0.2905
   83MOL   H24231566   5.754   6.184   5.254  1.3854  0.1975  0.5330
   83MOL   H24331567   5.589   6.186   5.497  0.7491 -1.2781  0.4435
   83MOL   H24431568   5.599   6.034   5.394  1.4069 -0.1008 -3.3712
   83MOL   H24531569   5.738   6.082   5.485  0.4815  0.3106  0.8359
   83MOL   H24631570   5.513   6.180   5.201  1.4287 -2.0940  2.3747
   83MOL   H24731571   5.608   6.322   5.149 -0.8524 -0.5394 -1.3342
   83MOL   H24831572   5.485   6.323   5.285  1.1385  0.2017  1.4698
   83MOL   C24931573   5.955   6.553   5.578 -0.7535 -0.8483 -1.2534
   83MOL   C25031574   5.893   6.482   5.706 -0.8277  0.1786  0.9446
   83MOL   C25131575   5.912   6.575   5.820  0.4834 -0.2901 -0.1414
   83MOL   O25231576   5.818   6.626   5.876  0.4387 -1.0185  0.0459
   83MOL   N25331577   6.041   6.597   5.850  0.3528  0.0693  0.1160
   83MOL   C25431578   6.098   6.670   5.967  0.2248 -0.4350  0.1539
   83MOL   C25531579   6.196   6.574   6.035  0.0355  0.2308  0.4479
   83MOL   C25631580   6.154   6.805   5.919 -0.5015  0.0262  0.3756
   83MOL   H25731581   5.964   6.659   5.602  0.5957 -1.4335  0.9542
   83MOL   H25831582   6.055   6.510   5.566  0.6525  1.7508  0.4440
   83MOL   H25931583   5.787   6.471   5.683 -0.7868  1.2524  0.1858
   83MOL   H26031584   6.116   6.558   5.795 -1.4054  0.0900 -2.3825
   83MOL   H26131585   6.013   6.672   6.035  0.3707  0.7682  0.3110
   83MOL   H26231586   6.138   6.489   6.071  0.8597  0.1275  1.5573
   83MOL   H26331587   6.281   6.552   5.971  1.5020  1.2888  2.0023
   83MOL   H26431588   6.239   6.609   6.128 -0.3114 -0.3870  0.8442
   83MOL   H26531589   6.068   6.852   5.870  1.4514  0.5778 -2.6093
   83MOL   H26631590   6.188   6.861   6.006 -1.5253 -1.4893  1.7856
   83MOL   H26731591   6.238   6.808   5.850 -0.5337 -0.5632  0.3093
   83MOL   C26831592   5.950   6.341   5.752  0.3115  0.3513 -0.0059
   83MOL   C26931593   5.912   6.279   5.886  0.4145  0.1021  0.0671
   83MOL   C27031594   5.759   6.261   5.882  0.3148  0.3940 -0.2141
   83MOL   O27131595   5.706   6.164   5.819 -0.6729  0.0740  0.1340
   83MOL   N27231596   5.694   6.349   5.961 -0.1739  0.1635 -0.9905
   83MOL   C27331597   5.558   6.341   5.999 -0.1220  0.1743  0.1952
   83MOL   C27431598   5.510   6.415   6.126 -0.2821  0.0036 -0.4913
   83MOL   C27531599   5.470   6.380   5.879 -0.8819  0.4317 -0.4274
   83MOL   H27631600   5.903   6.274   5.680  0.6475  1.3159 -1.1493
   83MOL   H27731601   6.057   6.340   5.733  0.1584  0.0250 -0.8671
   83MOL   H27831602   5.951   6.353   5.957 -0.9150  1.1864 -0.3310
   83MOL   H27931603   5.742   6.432   5.991  0.3931  0.2150 -1.9967
   83MOL   H28031604   5.544   6.235   6.019  1.4019 -0.1796 -0.5573
   83MOL   H28131605   5.575   6.500   6.146 -1.5614  1.0558 -0.7539
   83MOL   H28231606   5.405   6.444   6.121 -0.8256 -1.9416 -0.7531
   83MOL   H28331607   5.518   6.332   6.196  0.7892 -1.3111 -2.1108
   83MOL   H28431608   5.485   6.482   5.841  0.1467  0.7304  0.7654
   83MOL   H28531609   5.484   6.316   5.792 -3.3079 -0.0381 -0.4882
   83MOL   H28631610   5.365   6.376   5.907 -0.1454  0.3158  2.4988
   83MOL   C28731611   5.984   6.150   5.917  0.0756 -0.4648 -0.2974
   83MOL   C28831612   5.961   6.099   6.071  0.3906  0.1957  0.4773
   83MOL   C28931613   6.007   6.195   6.172  0.1225 -0.5171 -0.1709
   83MOL   O29031614   6.117   6.247   6.172  0.5778  0.3765 -0.7482
   83MOL   N29131615   5.919   6.226   6.268  0.5638 -0.6224  0.8160
   83MOL   C29231616   5.931   6.328   6.370 -0.1943 -0.5018  0.1350
   83MOL   C29331617   5.865   6.458   6.321 -0.5364  0.0550  0.5503
   83MOL   C29431618   5.861   6.281   6.498 -0.1149 -0.0455 -0.2084
   83MOL   H29531619   5.935   6.083   5.847 -1.7531 -1.5445  1.9538
   83MOL   H29631620   6.089   6.155   5.890  0.4573 -0.1890  1.2012
   83MOL   H29731621   5.857   6.083   6.097  0.7137 -0.6017  1.2932
   83MOL   H29831622   5.835   6.173   6.283 -0.0745 -0.3432 -1.5208
   83MOL   H29931623   6.030   6.352   6.410 -0.6395  3.0471 -0.7023
   83MOL   H30031624   5.915   6.512   6.240  0.5432 -0.8213  0.6206
   83MOL   H30131625   5.760   6.450   6.294  0.0692  1.9848 -2.6349
   83MOL   H30231626   5.873   6.518   6.411 -2.0648  0.6777  0.2994
   83MOL   H30331627   5.904   6.190   6.538  0.1690 -0.1131 -0.6577
   83MOL   H30431628   5.881   6.352   6.578 -0.3508  0.7449 -0.8364
   83MOL   H30531629   5.754   6.266   6.486 -0.0373  0.0963 -1.1276
   83MOL   C30631630   6.034   5.960   6.087 -0.1547 -0.0530 -0.6860
   83MOL   C30731631   5.975   5.841   6.008 -0.3513  0.0435 -0.3297
   83MOL   C30831632   5.833   5.801   6.052  0.6392 -0.4313  0.2630
   83MOL   O30931633   5.825   5.754   6.161 -0.1479  0.1174  0.0478
   83MOL   N31031634   5.730   5.821   5.974 -0.3772 -0.1328 -0.1764
   83MOL   C31131635   5.590   5.791   6.012 -0.0822  0.8550 -0.1859
   83MOL   C31231636   5.493   5.893   5.944 -0.3053  0.2382  0.3952
   83MOL   C31331637   5.553   5.648   5.984 -0.6630  0.5697 -0.5697
   83MOL   H31431638   6.137   5.967   6.052  0.5916  2.0948  1.7901
   83MOL   H31531639   6.049   5.937   6.192  1.3265 -1.6140 -1.2093
   83MOL   H31631640   5.966   5.869   5.903  0.5479  1.0607 -0.1341
   83MOL   H31731641   5.752   5.843   5.878 -1.4766  0.1622 -0.3621
   83MOL   H31831642   5.584   5.792   6.121  1.5056  0.5060 -0.0915
   83MOL   H31931643   5.508   5.996   5.977  1.1387  0.0909  0.2221
   83MOL   H32031644   5.387   5.875   5.956  0.0088 -0.2880  2.5739
   83MOL   H32131645   5.516   5.894   5.837 -0.5648 -1.3044  0.3093
   83MOL   H32231646   5.466   5.625   6.046  0.9754  1.5819  2.2109
   83MOL   H32331647   5.629   5.574   6.012  0.7501  1.1088 -2.8373
   83MOL   H32431648   5.526   5.624   5.882  1.1794  1.4063 -1.2850
   83MOL   C32531649   6.079   5.727   6.024  0.0886  0.1034  0.0358
   83MOL   C32631650   6.048   5.595   5.945 -0.8901  0.1530 -0.1150
   83MOL   C32731651   6.044   5.613   5.797  0.1468  0.7589 -0.3242
   83MOL   O32831652   6.153   5.630   5.729  0.0379 -0.4140 -0.4610
   83MOL   N32931653   5.924   5.609   5.742 -0.4814 -0.0779  0.1228
   83MOL   C33031654   5.897   5.617   5.597  0.0363  0.1177 -1.3541
   83MOL   C33131655   5.904   5.766   5.554 -0.0498 -0.5813  0.5099
   83MOL   C33231656   5.758   5.549   5.581 -0.1485  0.0664 -0.3169
   83MOL   H33331657   6.104   5.702   6.127 -0.2630 -0.2364  0.0392
   83MOL   H33431658   6.172   5.771   5.987  0.1160  1.7746  2.0416
   83MOL   H33531659   5.948   5.560   5.970  0.0169 -2.0495  0.5239
   83MOL   H33631660   5.858   5.565   5.804  2.7738 -3.7899  1.1659
   83MOL   H33731661   5.979   5.559   5.554  1.0604  0.3660  0.2291
   83MOL   H33831662   5.831   5.834   5.596 -0.6637  0.4134 -2.0861
   83MOL   H33931663   6.005   5.805   5.564 -1.1839  2.5631  0.0827
   83MOL   H34031664   5.888   5.766   5.446  3.8515  3.1699 -0.1980
   83MOL   H34131665   5.716   5.557   5.480  0.7825  1.7372 -0.5882
   83MOL   H34231666   5.680   5.597   5.640 -0.8630 -0.2287 -1.0072
   83MOL   H34331667   5.767   5.442   5.598  0.4753  0.1236 -0.2965
   83MOL   C34431668   6.159   5.492   5.988  0.2999 -0.4275  0.1965
   83MOL   C34531669   6.143   5.413   6.120 -0.3403  0.0899  0.7689
   83MOL   C34631670   6.007   5.344   6.134 -1.1636 -0.4122  0.1922
   83MOL   O34731671   5.936   5.319   6.031 -0.1960  0.4344 -0.4872
   83MOL   N34831672   5.967   5.312   6.258 -0.1548 -0.2858  0.0142
   83MOL   C34931673   5.843   5.242   6.292  0.4656  0.4938 -0.6425
   83MOL   C35031674   5.874   5.141   6.395 -0.8370  0.3491  0.3276
   83MOL   C35131675   5.739   5.346   6.344  0.0748  0.4421 -0.3051
   83MOL   H35231676   6.259   5.535   5.998  1.0376 -1.2232 -3.1916
   83MOL   H35331677   6.168   5.422   5.905 -2.9749 -1.2000  0.4132
   83MOL   H35431678   6.156   5.472   6.211  0.6095  1.9650 -0.5423
   83MOL   H35531679   6.024   5.336   6.338  0.4787  1.9313 -1.0669
   83MOL   H35631680   5.802   5.183   6.210 -2.0053 -0.5475  1.2803
   83MOL   H35731681   5.911   5.189   6.486  1.7597  1.1843 -1.1237
   83MOL   H35831682   5.786   5.085   6.427 -1.6172  1.3148 -0.1042
   83MOL   H35931683   5.950   5.071   6.361 -0.1012  0.7480  1.1055
   83MOL   H36031684   5.732   5.420   6.264  0.8510 -0.0514 -0.8370
   83MOL   H36131685   5.641   5.300   6.357 -1.2234  2.6559 -1.8532
   83MOL   H36231686   5.786   5.398   6.428  1.1051 -0.8440 -0.0713
   83MOL   C36331687   6.255   5.300   6.125 -0.2265 -0.1914 -0.2390
   83MOL   C36431688   6.401   5.346   6.164  0.0402 -0.0796 -0.1729
   83MOL   C36531689   6.413   5.383   6.314 -0.4536  0.3624 -0.0375
   83MOL   O36631690   6.344   5.320   6.397  0.1304  0.1166 -0.2048
   83MOL   N36731691   6.480   5.496   6.338 -0.1024 -0.4686 -0.1569
   83MOL   C36831692   6.494   5.583   6.450 -0.0133  0.6907 -0.4430
   83MOL   C36931693   6.598   5.516   6.555  0.2752  0.2753  0.2983
   83MOL   C37031694   6.536   5.724   6.411 -0.1816  0.0571  0.4300
   83MOL   H37131695   6.264   5.242   6.033 -1.5959 -0.6141 -0.1092
   83MOL   H37231696   6.228   5.223   6.197 -1.0694  2.8840  2.8977
   83MOL   H37331697   6.444   5.423   6.100  1.6762 -1.2810 -0.5424
   83MOL   H37431698   6.517   5.544   6.257  1.2186 -0.7151  0.2911
   83MOL   H37531699   6.399   5.586   6.502  0.1589 -3.0973  0.2930
   83MOL   H37631700   6.702   5.516   6.522  0.7573  0.9446  1.7895
   83MOL   H37731701   6.600   5.595   6.630 -1.8644 -0.4007  1.1306
   83MOL   H37831702   6.562   5.425   6.603 -2.8727  0.9244 -0.6622
   83MOL   H37931703   6.562   5.784   6.498 -1.3598  0.2762  0.6449
   83MOL   H38031704   6.621   5.732   6.344 -0.8308  1.2973 -0.2485
   83MOL   H38131705   6.456   5.782   6.364  0.2275 -0.4685 -0.9360
   83MOL   H38231706   6.467   5.261   6.145  3.0820  2.3831 -1.0901
   84MOL     C131707   2.698   7.180   1.767  0.0876 -0.1999 -0.2545
   84MOL     C231708   2.783   7.256   1.869 -0.1719  0.3657 -0.6430
   84MOL     C331709   2.693   7.256   1.997 -0.2171 -0.2965  0.1122
   84MOL     O431710   2.657   7.144   2.046  0.2782  0.1152  0.1237
   84MOL     N531711   2.658   7.374   2.046 -0.2911 -0.1779 -0.0695
   84MOL     C631712   2.575   7.393   2.167 -0.4529 -1.0743 -0.6114
   84MOL     C731713   2.672   7.406   2.284 -0.2956  0.7504  0.2392
   84MOL     C831714   2.481   7.518   2.157 -0.2132 -0.3990  0.2524
   84MOL     H931715   2.700   7.073   1.788 -2.8845 -0.0151  1.2372
   84MOL    H1031716   2.738   7.204   1.669 -0.0406  1.1411  0.0162
   84MOL    H1131717   2.808   7.360   1.851  1.4088  0.1415  0.2045
   84MOL    H1231718   2.689   7.457   1.998  0.6437 -2.0354 -2.8106
   84MOL    H1331719   2.525   7.299   2.192 -1.9363 -0.1148  0.0567
   84MOL    H1431720   2.698   7.306   2.319 -0.5316  0.5680 -0.1005
   84MOL    H1531721   2.625   7.458   2.368  1.3511 -1.5003  2.6453
   84MOL    H1631722   2.760   7.461   2.250  0.8635 -2.1463 -1.6243
   84MOL    H1731723   2.535   7.612   2.146  1.5337 -0.8776  3.6738
   84MOL    H1831724   2.416   7.505   2.071  0.1888 -1.6563  0.1339
   84MOL    H1931725   2.422   7.517   2.249  0.2299  1.2625  0.5723
   84MOL    H2031726   2.592   7.204   1.767 -0.6433 -3.1766 -0.0428
   84MOL    C2131727   2.921   7.185   1.894 -0.6993 -0.2876  0.3776
   84MOL    C2231728   3.005   7.160   1.766 -0.5460  0.2944 -0.1627
   84MOL    C2331729   3.130   7.077   1.810 -0.4567  0.1279  0.5433
   84MOL    O2431730   3.211   7.123   1.884 -0.1406  0.5302  0.7225
   84MOL    N2531731   3.158   6.960   1.753  0.3473  0.1824  0.9958
   84MOL    C2631732   3.285   6.884   1.761 -0.4773  0.0676 -0.1179
   84MOL    C2731733   3.385   6.924   1.651  0.1700  0.0930  0.2276
   84MOL    C2831734   3.240   6.739   1.740 -0.0448  0.3115  0.0027
   84MOL    H2931735   2.902   7.090   1.944  0.6922 -0.2023  1.1234
   84MOL    H3031736   2.983   7.244   1.963 -0.0120  0.3291 -0.7575
   84MOL    H3131737   2.949   7.088   1.706 -0.1689  0.1968 -0.4011
   84MOL    H3231738   3.099   6.942   1.673  0.6190  1.1968  0.5607
   84MOL    H3331739   3.329   6.901   1.859  0.1472  1.3873 -0.6046
   84MOL    H3431740   3.442   7.011   1.686 -0.5530 -0.2347  2.2875
   84MOL    H3531741   3.342   6.950   1.554 -1.7136  0.6323  1.1912
   84MOL    H3631742   3.469   6.855   1.638 -0.1267 -0.8144  2.8145
   84MOL    H3731743   3.188   6.723   1.646  1.3609 -1.4509 -0.5057
   84MOL    H3831744   3.328   6.676   1.725 -1.1336 -0.7889 -1.9531
   84MOL    H3931745   3.176   6.695   1.816 -2.4194  0.4955 -1.8216
   84MOL    C4031746   3.043   7.295   1.704  0.1479  0.0853  0.7769
   84MOL    C4131747   3.070   7.287   1.551  0.5543  0.3910  0.0352
   84MOL    C4231748   3.145   7.410   1.507 -0.0318 -1.2509  0.8752
   84MOL    O4331749   3.119   7.523   1.549  0.8590  0.7201 -0.3514
   84MOL    N4431750   3.244   7.382   1.427  0.3173  0.0790  0.2408
   84MOL    C4531751   3.336   7.469   1.359  1.0736 -0.5000  0.5390
   84MOL    C4631752   3.438   7.378   1.286  0.1324 -0.2541 -0.5842
   84MOL    C4731753   3.249   7.546   1.261  0.2667 -0.6376  0.8365
   84MOL    H4831754   3.124   7.344   1.759  0.8182  0.1427 -0.2554
   84MOL    H4931755   2.954   7.359   1.702  0.6971  0.8544  0.6306
   84MOL    H5031756   3.144   7.208   1.534  0.8932  1.1721 -2.2571
   84MOL    H5131757   3.252   7.281   1.420  1.7035  0.2017 -0.0269
   84MOL    H5231758   3.381   7.531   1.436 -3.0048  0.3959  2.3411
   84MOL    H5331759   3.495   7.428   1.207  2.9973 -1.4439  0.6461
   84MOL    H5431760   3.394   7.293   1.235 -2.4695  0.7302 -0.0567
   84MOL    H5531761   3.510   7.348   1.363  3.0568  3.4290 -1.6848
   84MOL    H5631762   3.204   7.494   1.177 -0.9040 -0.1479  1.1608
   84MOL    H5731763   3.319   7.615   1.213 -1.3581  0.3744 -0.1120
   84MOL    H5831764   3.178   7.614   1.309 -0.4747  1.0018 -2.4498
   84MOL    C5931765   2.946   7.255   1.460  0.1719  0.7158  0.9009
   84MOL    C6031766   2.971   7.207   1.309  0.1798  0.5531 -0.4782
   84MOL    C6131767   3.066   7.084   1.302 -0.6780 -0.3624  0.2218
   84MOL    O6231768   3.193   7.098   1.294 -0.2775 -0.3011  0.0877
   84MOL    N6331769   3.007   6.966   1.296 -0.0379  0.2512 -1.3147
   84MOL    C6431770   3.070   6.853   1.231  0.4963 -0.9882 -0.1695
   84MOL    C6531771   3.136   6.745   1.326 -0.0249  0.0041 -0.2109
   84MOL    C6631772   2.953   6.786   1.159  0.6461 -0.4903  0.2078
   84MOL    H6731773   2.880   7.188   1.515  1.8495 -0.0572  2.0111
   84MOL    H6831774   2.879   7.339   1.441  0.3266  0.3968 -1.1635
   84MOL    H6931775   2.874   7.170   1.276 -0.1406 -1.2575  2.3010
   84MOL    H7031776   2.909   6.954   1.319  0.6048  1.6764  2.4512
   84MOL    H7131777   3.136   6.893   1.154 -0.9299  1.1426 -0.3331
   84MOL    H7231778   3.216   6.785   1.388  0.0664 -2.5872  1.4413
   84MOL    H7331779   3.059   6.710   1.395 -0.6399  0.5441 -0.6113
   84MOL    H7431780   3.179   6.661   1.271  0.4309  0.2779 -0.2736
   84MOL    H7531781   2.986   6.722   1.077 -0.6648  0.6931 -1.2742
   84MOL    H7631782   2.888   6.728   1.224  0.5395 -0.0286  0.5209
   84MOL    H7731783   2.885   6.860   1.117  0.1320 -0.3198  1.3428
   84MOL    C7831784   3.009   7.312   1.198  0.2113 -0.0587 -0.3113
   84MOL    C7931785   2.935   7.298   1.062  0.3275  0.1771 -0.0808
   84MOL    C8031786   2.973   7.421   0.973 -0.0763  0.2923 -0.5564
   84MOL    O8131787   3.073   7.425   0.899 -0.2917 -0.2055  0.4675
   84MOL    N8231788   2.896   7.531   0.978  0.7887  0.2451  0.2706
   84MOL    C8331789   2.918   7.661   0.913 -0.3528 -1.3924  0.6347
   84MOL    C8431790   2.777   7.719   0.889  0.4304  0.1842 -0.7941
   84MOL    C8531791   2.996   7.752   1.010  0.1997  0.3506  0.1405
   84MOL    H8631792   3.116   7.315   1.179  0.1260 -0.2347 -0.8207
   84MOL    H8731793   2.974   7.412   1.226  0.9437 -0.4494  2.1287
   84MOL    H8831794   2.829   7.303   1.089  1.2176 -0.4748  3.8711
   84MOL    H8931795   2.824   7.548   1.047  1.1912 -1.1521  1.0554
   84MOL    H9031796   2.972   7.665   0.819 -0.4948 -0.5312  0.5776
   84MOL    H9131797   2.720   7.726   0.981 -0.0738 -1.3207 -0.9678
   84MOL    H9231798   2.778   7.823   0.858  2.0907  0.7795  1.1581
   84MOL    H9331799   2.727   7.652   0.819 -0.0627  1.6018 -1.8235
   84MOL    H9431800   3.002   0.018   0.973  0.0258 -0.1543 -1.3172
   84MOL    H9531801   3.091   7.706   1.040 -0.0830  0.0371  0.5642
   84MOL    H9631802   2.929   7.763   1.094 -0.2435 -1.2520  0.0128
   84MOL    C9731803   2.978   7.165   0.988  0.0787  0.3105 -0.4320
   84MOL    C9831804   2.926   7.128   0.842  0.6010  0.3136 -0.0642
   84MOL    C9931805   2.777   7.139   0.828 -0.1166  0.3713 -0.2871
   84MOL   O10031806   2.705   7.075   0.905 -0.3453 -0.1898  0.7785
   84MOL   N10131807   2.729   7.221   0.735  0.2873  0.8509  0.5490
   84MOL   C10231808   2.590   7.241   0.698  0.6513  0.0266 -0.3935
   84MOL   C10331809   2.568   7.380   0.637  0.1618 -0.7563 -0.1964
   84MOL   C10431810   2.553   7.124   0.607  0.4085  0.0153  0.0067
   84MOL   H10531811   2.953   7.076   1.046 -2.0195  0.2956 -1.3025
   84MOL   H10631812   3.086   7.152   0.994  0.1996  1.5691  0.1520
   84MOL   H10731813   2.967   7.197   0.768 -1.1129 -0.4331 -1.7543
   84MOL   H10831814   2.797   7.277   0.685 -2.1933  0.5741 -3.3208
   84MOL   H10931815   2.526   7.229   0.785 -0.1033  0.2193 -0.9150
   84MOL   H11031816   2.463   7.401   0.616  0.6522  0.0101 -1.9995
   84MOL   H11131817   2.605   7.461   0.700  1.0891 -0.7311 -0.7645
   84MOL   H11231818   2.601   7.393   0.534 -3.8026  2.4091 -1.1997
   84MOL   H11331819   2.473   7.148   0.538  1.5692  0.4356 -1.2122
   84MOL   H11431820   2.536   7.024   0.649  1.4745 -0.2258 -0.1033
   84MOL   H11531821   2.629   7.122   0.529 -0.1216 -1.6024 -0.4900
   84MOL   C11631822   2.955   6.984   0.798 -0.8597  0.2467  0.1174
   84MOL   C11731823   3.105   6.935   0.802  0.2979  0.1698 -0.9263
   84MOL   C11831824   3.205   7.019   0.720  0.2778 -1.0141  0.7468
   84MOL   O11931825   3.200   7.020   0.594 -0.0552  0.2445 -0.5224
   84MOL   N12031826   3.278   7.109   0.784 -0.1201 -0.1343  0.1685
   84MOL   C12131827   3.352   7.217   0.717 -0.3005  0.4648  0.1835
   84MOL   C12231828   3.396   7.324   0.816 -0.3982 -0.3559 -0.0277
   84MOL   C12331829   3.493   7.171   0.657  0.5835  0.2456 -0.3003
   84MOL   H12431830   2.929   6.974   0.692 -0.7195 -1.4338  0.2315
   84MOL   H12531831   2.906   6.909   0.860  0.7911  1.1867  2.6413
   84MOL   H12631832   3.130   6.958   0.905  1.5634  0.3144 -1.2508
   84MOL   H12731833   3.259   7.111   0.883  0.8834 -0.5015  0.3705
   84MOL   H12831834   3.296   7.266   0.638  0.0168  1.9570  0.8772
   84MOL   H12931835   3.463   7.280   0.890  1.7351  0.5709 -1.3646
   84MOL   H13031836   3.303   7.355   0.864 -0.7556 -1.7565  0.1985
   84MOL   H13131837   3.439   7.413   0.769  2.6702 -1.7596 -0.0392
   84MOL   H13231838   3.482   7.084   0.592 -0.0480  1.0442 -1.2638
   84MOL   H13331839   3.542   7.248   0.598 -1.1605  1.8460  0.2818
   84MOL   H13431840   3.561   7.142   0.737 -0.9065 -1.3683  0.4447
   84MOL   C13531841   3.108   6.783   0.774  0.0766 -0.4737  0.3022
   84MOL   C13631842   3.246   6.709   0.790  0.3364  0.1342  0.0399
   84MOL   C13731843   3.291   6.729   0.929  0.2252 -0.2090 -0.0308
   84MOL   O13831844   3.247   6.663   1.019 -0.2438  0.4396 -0.0752
   84MOL   N13931845   3.380   6.831   0.949  0.3219 -0.3106  0.6537
   84MOL   C14031846   3.433   6.866   1.074 -0.4501 -0.3491  0.2492
   84MOL   C14131847   3.473   7.012   1.088 -0.3675 -0.0083 -0.6709
   84MOL   C14231848   3.550   6.783   1.113 -0.8091 -0.1115 -0.4489
   84MOL   H14331849   3.059   6.776   0.677  0.0477  1.2309  0.1731
   84MOL   H14431850   3.038   6.741   0.845  1.2547 -1.3407  0.9718
   84MOL   H14531851   3.321   6.748   0.721  0.8915  0.4477  0.8096
   84MOL   H14631852   3.391   6.897   0.873 -0.0438  1.4887  2.1081
   84MOL   H14731853   3.349   6.866   1.143 -3.1867  0.3718 -2.9084
   84MOL   H14831854   3.548   7.036   1.013  1.1072  0.8057  1.0378
   84MOL   H14931855   3.393   7.081   1.061  0.0989  0.6352 -0.4191
   84MOL   H15031856   3.519   7.040   1.182 -0.5159  0.7681 -0.8272
   84MOL   H15131857   3.518   6.681   1.132  2.5141 -0.9964  0.7071
   84MOL   H15231858   3.597   6.819   1.205  2.5461 -0.4592 -1.9419
   84MOL   H15331859   3.628   6.787   1.036  1.7677  0.0289  2.0823
   84MOL   C15431860   3.229   6.557   0.760 -0.5834  0.4510  0.4699
   84MOL   C15531861   3.360   6.467   0.770 -0.7694  0.1665  0.4804
   84MOL   C15631862   3.480   6.527   0.684  0.9648 -0.0214 -0.1214
   84MOL   O15731863   3.463   6.546   0.562  0.2937  0.2175  0.2078
   84MOL   N15831864   3.600   6.552   0.743 -0.5169 -0.0181  0.4888
   84MOL   C15931865   3.706   6.624   0.692 -0.5326  0.5622  0.0663
   84MOL   C16031866   3.822   6.618   0.798  0.2502 -0.6067 -0.7249
   84MOL   C16131867   3.675   6.773   0.669  0.4812 -0.4924  0.2940
   84MOL   H16231868   3.191   6.548   0.658  0.4850 -2.1660  0.2643
   84MOL   H16331869   3.154   6.514   0.827 -1.3785  0.2025 -0.5602
   84MOL   H16431870   3.389   6.486   0.873  1.0328 -0.9608  0.2065
   84MOL   H16531871   3.605   6.518   0.838 -1.1108 -2.3703 -0.2792
   84MOL   H16631872   3.748   6.575   0.604 -0.0243 -0.1401  0.6929
   84MOL   H16731873   3.801   6.656   0.898 -0.8135 -0.7215 -0.8960
   84MOL   H16831874   3.872   6.522   0.811  1.3326 -0.0037 -0.4196
   84MOL   H16931875   3.903   6.688   0.779  0.3758 -0.3921  0.5944
   84MOL   H17031876   3.647   6.810   0.768  0.4576  0.7261 -0.1563
   84MOL   H17131877   3.589   6.784   0.603  0.3797  0.9033  0.6293
   84MOL   H17231878   3.759   6.834   0.636  0.8239 -1.0827  0.0656
   84MOL   C17331879   3.331   6.309   0.746 -0.6243 -0.3050 -0.3930
   84MOL   C17431880   3.457   6.220   0.789  0.1271 -0.9212  0.6620
   84MOL   C17531881   3.476   6.229   0.939 -0.0348  0.4646 -0.4716
   84MOL   O17631882   3.539   6.316   0.994  0.1788  0.4061 -0.3390
   84MOL   N17731883   3.433   6.123   1.008 -0.2990  0.0482  0.0304
   84MOL   C17831884   3.410   6.106   1.150  0.1978  0.4276  0.0424
   84MOL   C17931885   3.526   6.056   1.236 -0.3398  0.4168 -0.1697
   84MOL   C18031886   3.274   6.027   1.176 -0.2242 -0.0981  0.2501
   84MOL   H18131887   3.318   6.300   0.638  1.5324 -1.8214 -0.5439
   84MOL   H18231888   3.240   6.272   0.793  0.3393 -0.2639  1.5541
   84MOL   H18331889   3.544   6.274   0.752 -1.6518  2.0589  0.6367
   84MOL   H18431890   3.392   6.055   0.946  2.5045 -0.9976 -0.7367
   84MOL   H18531891   3.380   6.204   1.185  0.6249  1.5067 -2.5041
   84MOL   H18631892   3.557   5.953   1.221 -0.6284  0.0825  1.4070
   84MOL   H18731893   3.493   6.060   1.340 -0.5379  0.9159 -0.2501
   84MOL   H18831894   3.620   6.112   1.239 -0.9239  1.3501  1.4660
   84MOL   H18931895   3.258   6.016   1.284  1.2213 -0.0576  0.4890
   84MOL   H19031896   3.284   5.929   1.130  2.5662  0.0865  0.3389
   84MOL   H19131897   3.189   6.073   1.126  0.2967 -1.7777 -2.2241
   84MOL   C19231898   3.455   6.089   0.711  0.0458  0.1278  0.5171
   84MOL   C19331899   3.570   5.991   0.747  0.3625 -0.0450  0.4130
   84MOL   C19431900   3.708   6.061   0.731  0.3809  0.1023 -0.4547
   84MOL   O19531901   3.755   6.092   0.623  0.4557  0.8057  0.6104
   84MOL   N19631902   3.767   6.087   0.854 -0.1566 -0.2100  0.4969
   84MOL   C19731903   3.886   6.171   0.864 -0.0070 -0.1955 -0.8316
   84MOL   C19831904   3.882   6.264   0.995 -0.2417  0.0697  0.6508
   84MOL   C19931905   4.005   6.080   0.849  1.0239 -0.2840 -0.0136
   84MOL   H20031906   3.471   6.130   0.612  1.6407 -0.9117  0.3334
   84MOL   H20131907   3.360   6.040   0.730 -0.8661  2.3332  1.9030
   84MOL   H20231908   3.560   5.948   0.846 -1.4139  0.0350  0.2878
   84MOL   H20331909   3.731   6.072   0.947  0.4454 -2.1436  0.4299
   84MOL   H20431910   3.902   6.233   0.775 -1.3965 -1.7661 -2.1996
   84MOL   H20531911   3.852   6.218   1.090  1.2940  0.5287  1.3695
   84MOL   H20631912   3.808   6.343   0.984  0.7950  1.0473  0.6344
   84MOL   H20731913   3.977   6.313   1.014 -0.3176 -0.1730  1.7308
   84MOL   H20831914   3.989   6.004   0.925 -1.3344 -0.6228 -0.8140
   84MOL   H20931915   4.094   6.136   0.877  0.8880 -1.4940  3.0146
   84MOL   H21031916   4.026   6.026   0.757 -1.4146  0.8338 -1.2832
   84MOL   C21131917   3.552   5.867   0.654  0.2943  0.3113 -0.1415
   84MOL   C21231918   3.600   5.732   0.713  0.3663  0.1605 -0.1569
   84MOL   C21331919   3.512   5.690   0.833 -0.5414  0.5790  0.7226
   84MOL   O21431920   3.389   5.706   0.838 -0.2402 -0.2455 -0.4803
   84MOL   N21531921   3.572   5.628   0.941 -0.0674 -0.2956 -0.1364
   84MOL   C21631922   3.509   5.553   1.047 -0.2505  0.0172 -0.3016
   84MOL   C21731923   3.518   5.625   1.179 -0.0698  0.5301  0.0234
   84MOL   C21831924   3.556   5.409   1.055 -0.3419  0.3883 -0.0922
   84MOL   H21931925   3.600   5.885   0.558 -0.8930 -0.0687 -0.8094
   84MOL   H22031926   3.447   5.859   0.627 -0.0047 -0.6202  1.2429
   84MOL   H22131927   3.700   5.755   0.750 -0.2454 -0.1652  1.7828
   84MOL   H22231928   3.673   5.621   0.938 -0.0190  0.3902 -0.2917
   84MOL   H22331929   3.403   5.547   1.023 -0.4008  1.0483  0.0954
   84MOL   H22431930   3.620   5.615   1.218 -0.2709 -4.0575 -0.3009
   84MOL   H22531931   3.489   5.730   1.175 -0.2891  0.4866  0.4297
   84MOL   H22631932   3.462   5.572   1.257 -0.4426 -0.2660 -0.7822
   84MOL   H22731933   3.559   5.359   0.958  1.7481  0.2505  0.0388
   84MOL   H22831934   3.504   5.349   1.130 -2.0928 -2.9366 -3.7210
   84MOL   H22931935   3.661   5.407   1.081 -0.5577 -0.5104  0.7350
   84MOL   C23031936   3.621   5.620   0.611 -0.0939 -0.5685  0.4284
   84MOL   C23131937   3.502   5.530   0.567 -0.1924 -0.0374  0.6742
   84MOL   C23231938   3.409   5.593   0.457 -0.7485  0.3300  0.2416
   84MOL   O23331939   3.445   5.593   0.336  0.6319 -0.5020 -0.3161
   84MOL   N23431940   3.293   5.646   0.493 -0.1872  0.7186 -0.1641
   84MOL   C23531941   3.197   5.721   0.414  0.0086  0.4716  0.1486
   84MOL   C23631942   3.072   5.637   0.396 -0.5525  0.7307  0.1589
   84MOL   C23731943   3.167   5.854   0.487 -0.5909 -0.3704  0.5198
   84MOL   H23831944   3.686   5.551   0.665  1.5302  1.2564  0.8795
   84MOL   H23931945   3.678   5.657   0.526  0.3008 -0.2162  0.8461
   84MOL   H24031946   3.430   5.521   0.648 -0.2738 -0.6017  0.5388
   84MOL   H24131947   3.281   5.641   0.594  1.0698 -0.1818 -0.0542
   84MOL   H24231948   3.247   5.741   0.320  0.5836 -0.4297  0.2556
   84MOL   H24331949   3.030   5.602   0.490 -0.3612 -0.0785 -0.0478
   84MOL   H24431950   2.994   5.697   0.350  2.2934  3.1154 -1.7075
   84MOL   H24531951   3.083   5.554   0.326  1.2733  0.3892  0.8013
   84MOL   H24631952   3.108   5.846   0.579 -0.9646 -0.0457  0.3068
   84MOL   H24731953   3.103   5.915   0.424 -0.6676 -0.0180  0.9402
   84MOL   H24831954   3.256   5.914   0.502 -0.3002 -0.6950  0.1189
   84MOL   C24931955   3.541   5.383   0.544  0.1886  0.0404 -0.2866
   84MOL   C25031956   3.436   5.272   0.490 -0.2077 -0.0459 -1.1795
   84MOL   C25131957   3.297   5.285   0.550 -0.0488 -0.3175 -0.5812
   84MOL   O25231958   3.197   5.280   0.485  0.2498 -0.8394 -0.1932
   84MOL   N25331959   3.298   5.294   0.682 -0.2373  0.3797 -0.8236
   84MOL   C25431960   3.180   5.293   0.774 -0.2055  0.2466 -0.4588
   84MOL   C25531961   3.185   5.176   0.877  0.2062  0.0417  0.2203
   84MOL   C25631962   3.171   5.427   0.849 -0.6826  0.0297 -0.0268
   84MOL   H25731963   3.585   5.351   0.639 -0.6288  0.4677  0.2481
   84MOL   H25831964   3.621   5.388   0.471  0.0416  2.3418 -0.3139
   84MOL   H25931965   3.420   5.304   0.387 -0.3256  0.9888 -0.8443
   84MOL   H26031966   3.387   5.301   0.728  0.0589 -1.4326 -1.0743
   84MOL   H26131967   3.090   5.279   0.715 -1.2266 -0.5156  1.2443
   84MOL   H26231968   3.258   5.207   0.952 -0.4322  1.3998  0.2996
   84MOL   H26331969   3.091   5.159   0.931 -0.8145 -1.3178 -1.9122
   84MOL   H26431970   3.222   5.083   0.835  1.4634  0.7584 -0.2554
   84MOL   H26531971   3.074   5.443   0.896 -0.4063 -0.0588  0.5828
   84MOL   H26631972   3.241   5.417   0.932 -0.5714 -1.0726 -0.2525
   84MOL   H26731973   3.197   5.513   0.788  3.2403 -0.8380  0.2782
   84MOL   C26831974   3.511   5.132   0.494 -0.6978  0.8518 -0.2779
   84MOL   C26931975   3.426   5.004   0.481  1.2135 -0.2144 -0.0579
   84MOL   C27031976   3.401   4.969   0.338 -0.0671  0.0035 -0.3468
   84MOL   O27131977   3.481   4.896   0.281  0.4326  0.4479  0.2281
   84MOL   N27231978   3.293   5.027   0.295 -0.0055 -0.5471  0.1971
   84MOL   C27331979   3.216   4.983   0.181  0.8650 -0.0024 -0.0934
   84MOL   C27431980   3.076   5.051   0.176 -0.0742  0.0124 -0.2054
   84MOL   C27531981   3.283   5.008   0.046 -0.2118 -0.4181  0.0742
   84MOL   H27631982   3.586   5.134   0.416  2.9926 -0.3414  3.0655
   84MOL   H27731983   3.566   5.125   0.588 -1.0631 -2.4540 -0.2230
   84MOL   H27831984   3.330   5.022   0.529  0.7730 -2.9536  0.2089
   84MOL   H27931985   3.261   5.106   0.348 -1.8340 -0.0579 -1.5714
   84MOL   H28031986   3.189   4.878   0.193 -0.0396  0.2388  0.0780
   84MOL   H28131987   3.010   5.043   0.262  0.2462 -0.2198  0.0226
   84MOL   H28231988   3.087   5.157   0.151  2.4122 -1.0727 -4.2392
   84MOL   H28331989   3.028   5.005   0.090  1.0487 -0.6134 -0.5126
   84MOL   H28431990   3.389   4.986   0.029 -0.4386 -0.5939 -1.1487
   84MOL   H28531991   3.225   4.972   7.797 -2.4144 -1.2761  1.9074
   84MOL   H28631992   3.277   5.117   0.040 -1.2995 -0.3866  1.6196
   84MOL   C28731993   3.493   4.886   0.567  0.0590 -0.0948  0.9314
   84MOL   C28831994   3.421   4.751   0.557  0.0321  0.4056 -0.6679
   84MOL   C28931995   3.311   4.734   0.662  0.1037  0.5914  0.2679
   84MOL   O29031996   3.336   4.688   0.773  0.3038 -0.7487 -0.6266
   84MOL   N29131997   3.189   4.765   0.616 -0.2358 -0.2099  0.0886
   84MOL   C29231998   3.069   4.782   0.690  0.1075 -0.2010  0.5447
   84MOL   C29331999   3.002   4.912   0.650 -0.9087 -0.2120 -0.0751
   84MOL   C29432000   2.992   4.659   0.655  0.5807 -1.0659  0.6938
   84MOL   H29532001   3.592   4.881   0.522 -0.2360  4.8362 -0.5129
   84MOL   H29632002   3.508   4.921   0.669  1.2729 -1.9726  1.4335
   84MOL   H29732003   3.371   4.738   0.461  0.9853  1.3877 -1.3157
   84MOL   H29832004   3.170   4.793   0.521  0.6847 -0.4396 -0.1660
   84MOL   H29932005   3.100   4.778   0.794  1.0583  0.8697  0.3130
   84MOL   H30032006   3.009   4.943   0.546 -0.2794  1.9128  0.5784
   84MOL   H30132007   2.894   4.916   0.665 -0.9462  2.0496 -0.7969
   84MOL   H30232008   3.053   4.988   0.708 -0.4549  0.7159 -1.6686
   84MOL   H30332009   2.894   4.663   0.705 -1.0001 -0.8065 -2.3373
   84MOL   H30432010   2.962   4.666   0.551  0.5754  0.2277  0.7750
   84MOL   H30532011   3.048   4.566   0.656  1.8663 -0.4522 -4.1406
   84MOL   C30632012   3.511   4.629   0.566  0.3731  0.7911  0.1557
   84MOL   C30732013   3.599   4.597   0.446  0.2489  0.4981 -0.3859
   84MOL   C30832014   3.512   4.520   0.341  0.2747 -0.5178  0.0128
   84MOL   O30932015   3.467   4.409   0.359  0.0407 -0.4108 -0.0458
   84MOL   N31032016   3.484   4.585   0.231 -0.4585 -0.4500 -0.3976
   84MOL   C31132017   3.424   4.539   0.106  0.8410 -0.7430 -0.5308
   84MOL   C31232018   3.284   4.584   0.101 -0.2693 -0.4979  0.4774
   84MOL   C31332019   3.499   4.578   7.809 -0.2041  0.4351 -0.3822
   84MOL   H31432020   3.570   4.631   0.657 -0.2732 -0.0103  0.5972
   84MOL   H31532021   3.453   4.539   0.584 -0.0049  0.6008 -1.8155
   84MOL   H31632022   3.629   4.692   0.402  1.1160 -1.0661 -3.3473
   84MOL   H31732023   3.511   4.682   0.224 -3.5962  0.3237 -3.2807
   84MOL   H31832024   3.424   4.431   0.116 -1.2034 -0.7046 -0.0421
   84MOL   H31932025   3.228   4.564   0.193  0.5825 -2.2573  0.6376
   84MOL   H32032026   3.223   4.548   0.018 -2.7113 -0.0528  2.0247
   84MOL   H32132027   3.285   4.692   0.093 -1.2373 -0.5052  0.2253
   84MOL   H32232028   3.490   4.681   7.775  1.6762  0.9083  0.5125
   84MOL   H32332029   3.488   4.507   7.727  2.0971 -0.8787  0.4160
   84MOL   H32432030   3.605   4.564   7.829 -0.2348 -0.5652 -0.8614
   84MOL   C32532031   3.724   4.506   0.490 -0.3944  0.1072  0.6566
   84MOL   C32632032   3.803   4.430   0.376 -0.1587  0.4926  0.1900
   84MOL   C32732033   3.850   4.517   0.251 -0.1559 -0.3751 -0.3303
   84MOL   O32832034   3.816   4.632   0.234  0.0087 -0.4496 -0.3482
   84MOL   N32932035   3.928   4.452   0.162 -0.4509  0.1964  0.0261
   84MOL   C33032036   4.002   4.508   0.048  0.2129  0.0266  0.0778
   84MOL   C33132037   3.919   4.513   7.763 -0.3982  0.2960  0.4850
   84MOL   C33232038   4.125   4.426   0.025  0.3996  0.1206 -0.2655
   84MOL   H33332039   3.698   4.425   0.558  2.2966 -0.6420  0.8666
   84MOL   H33432040   3.793   4.570   0.546  0.4921 -0.5840  0.3497
   84MOL   H33532041   3.738   4.349   0.345  0.8806  0.4836 -2.1248
   84MOL   H33632042   3.940   4.353   0.176  1.3612  0.2420 -1.0130
   84MOL   H33732043   4.036   4.610   0.067 -0.7555  0.3351  0.2164
   84MOL   H33832044   3.946   4.598   7.700  1.4908 -0.7389 -0.1679
   84MOL   H33932045   3.929   4.427   7.697 -0.2331  1.4302 -1.0156
   84MOL   H34032046   3.813   4.514   7.788 -1.3425  0.1017 -3.1512
   84MOL   H34132047   4.186   4.447   0.112  2.0335  0.9494 -1.5781
   84MOL   H34232048   4.179   4.460   7.772  1.0833 -1.0955 -0.3227
   84MOL   H34332049   4.100   4.320   0.020 -2.7592  0.7615  1.0295
   84MOL   C34432050   3.942   4.366   0.433 -0.0162 -0.2475  0.2085
   84MOL   C34532051   3.939   4.215   0.466  0.0200 -0.1805 -0.0558
   84MOL   C34632052   3.910   4.143   0.335  0.3908 -0.4595  0.5576
   84MOL   O34732053   3.978   4.169   0.235 -0.4440  0.4218  0.0565
   84MOL   N34832054   3.803   4.062   0.330  0.1992 -0.6263 -0.2955
   84MOL   C34932055   3.737   4.013   0.211 -0.7541 -0.0973  0.2557
   84MOL   C35032056   3.731   3.859   0.220  0.6494 -0.9301 -0.1029
   84MOL   C35132057   3.598   4.077   0.180 -0.7756  0.3108 -0.2052
   84MOL   H35232058   3.957   4.424   0.524 -2.9945  0.2413  0.4532
   84MOL   H35332059   4.029   4.389   0.371  0.9233 -2.6299  0.6097
   84MOL   H35432060   3.861   4.213   0.543  0.7643 -1.6609  0.6695
   84MOL   H35532061   3.750   4.054   0.416 -2.2505 -0.8563 -1.7870
   84MOL   H35632062   3.804   4.032   0.127 -0.7177 -2.0569 -0.1868
   84MOL   H35732063   3.701   3.808   0.129  0.5728 -2.2440  0.6399
   84MOL   H35832064   3.824   3.825   0.266  1.4809  1.2326 -0.1012
   84MOL   H35932065   3.651   3.823   0.285 -1.2351 -0.2290 -1.9938
   84MOL   H36032066   3.531   4.026   0.111  0.2375  0.8489 -1.6181
   84MOL   H36132067   3.542   4.081   0.273 -0.8480 -1.0596 -0.1705
   84MOL   H36232068   3.603   4.179   0.143  1.0474 -0.0999 -1.1988
   84MOL   C36332069   4.078   4.163   0.525  0.0179 -0.0863 -0.0863
   84MOL   C36432070   4.057   4.030   0.597 -0.7406 -0.4415 -0.3283
   84MOL   C36532071   4.057   4.043   0.750  0.8689 -0.0731 -0.2470
   84MOL   O36632072   4.065   4.151   0.811 -0.1648 -0.4651  0.0324
   84MOL   N36732073   4.039   3.924   0.818  0.2828  0.3283  0.0690
   84MOL   C36832074   4.042   3.896   0.964 -0.3540 -0.0535 -0.1694
   84MOL   C36932075   3.932   3.960   1.048 -0.2848 -0.2671  0.1731
   84MOL   C37032076   4.051   3.748   0.992  0.1269 -0.0914  0.3130
   84MOL   H37132077   4.122   4.235   0.595 -1.1507 -0.5731  1.1739
   84MOL   H37232078   4.148   4.150   0.443  1.3318 -0.2211  1.0256
   84MOL   H37332079   4.142   3.964   0.580 -0.1042  0.4844 -0.7866
   84MOL   H37432080   4.035   3.841   0.760  0.4750  0.4967 -0.1866
   84MOL   H37532081   4.138   3.939   0.995 -0.9769  3.3316 -2.6633
   84MOL   H37632082   3.954   4.065   1.064 -1.1696 -0.1593  0.7437
   84MOL   H37732083   3.835   3.954   0.998 -0.0772 -0.8954 -0.1638
   84MOL   H37832084   3.913   3.902   1.139  3.1334  0.7341  1.6042
   84MOL   H37932085   3.953   3.703   0.978  0.1297 -0.3908  1.1754
   84MOL   H38032086   4.123   3.701   0.924 -1.8124 -0.1219 -1.7585
   84MOL   H38132087   4.073   3.724   1.096 -1.0427  0.6750  0.7417
   84MOL   H38232088   3.981   3.973   0.544 -1.3848  0.2224 -0.1299
   85MOL     C132089   4.604   3.760   0.069 -0.6302  0.3454 -0.0632
   85MOL     C232090   4.635   3.903   0.001  0.2737  0.2304 -0.1344
   85MOL     C332091   4.774   3.943   0.025 -0.0190 -0.1326  0.5857
   85MOL     O432092   4.861   3.864   7.823  0.5221 -0.7438  0.1627
   85MOL     N532093   4.797   4.067   0.073  0.1376 -0.0479 -0.3366
   85MOL     C632094   4.926   4.131   0.075  0.7078  1.1612  0.2565
   85MOL     C732095   4.965   4.171   7.772 -0.0854  0.4557 -0.3530
   85MOL     C832096   4.925   4.241   0.176  0.5839 -0.1060 -0.2228
   85MOL     H932097   4.580   3.770   0.175 -0.8552 -1.5949  0.0929
   85MOL    H1032098   4.696   3.702   0.062 -0.1629  1.2670 -1.6923
   85MOL    H1132099   4.573   3.977   0.052 -1.7600 -0.3029 -1.7775
   85MOL    H1232100   4.718   4.126   0.095 -0.0924 -0.3569 -0.3315
   85MOL    H1332101   5.001   4.065   0.118  0.8211  2.9977  2.9901
   85MOL    H1432102   4.979   4.084   7.708 -0.8406 -0.4341  0.6728
   85MOL    H1532103   5.045   4.243   7.788 -0.7132  0.7067  1.8023
   85MOL    H1632104   4.885   4.229   7.724  0.2812  1.2299 -0.0353
   85MOL    H1732105   4.859   4.321   0.144 -0.2117 -1.1389 -1.2094
   85MOL    H1832106   4.901   4.206   0.277 -1.3445  1.2537 -0.1738
   85MOL    H1932107   5.016   4.300   0.176  1.5421 -1.5419 -1.1770
   85MOL    H2032108   4.532   3.702   0.012 -0.0688  0.2758 -0.7027
   85MOL    C2132109   4.580   3.905   7.688 -0.1404  0.0273  0.3888
   85MOL    C2232110   4.572   4.044   7.618 -0.0251 -1.0550  0.1512
   85MOL    C2332111   4.485   4.147   7.689  0.1858  0.0082  0.3874
   85MOL    O2432112   4.367   4.122   7.701  0.1663  0.0597  0.5800
   85MOL    N2532113   4.551   4.253   7.739 -0.1545 -0.1039 -0.2591
   85MOL    C2632114   4.484   4.347   7.826 -0.3395  0.4363 -0.3731
   85MOL    C2732115   4.533   4.491   7.810 -0.4926 -0.1921 -0.7089
   85MOL    C2832116   4.491   4.298   0.137 -0.0434 -0.2800 -0.5048
   85MOL    H2932117   4.482   3.860   7.678 -0.3115  0.1014  1.7174
   85MOL    H3032118   4.641   3.830   7.637  0.6797 -1.3212  3.2606
   85MOL    H3132119   4.675   4.079   7.616  0.9179 -3.7318  0.4072
   85MOL    H3232120   4.646   4.255   7.705 -0.0888  2.2497 -0.0280
   85MOL    H3332121   4.378   4.353   7.805 -0.1861 -1.4414 -1.8525
   85MOL    H3432122   4.525   4.520   7.705  0.0644  0.2008 -0.6476
   85MOL    H3532123   4.639   4.503   7.834 -0.3533 -0.1656 -1.3330
   85MOL    H3632124   4.472   4.562   0.029  0.2255 -0.1413  0.0374
   85MOL    H3732125   4.450   4.369   0.209  1.0413 -0.2624  0.1149
   85MOL    H3832126   4.456   4.196   0.154  0.3182 -0.4036 -0.4759
   85MOL    H3932127   4.598   4.295   0.158  0.3483  2.2909 -1.9876
   85MOL    C4032128   4.530   4.019   7.473 -0.1286 -0.4550  0.4087
   85MOL    C4132129   4.561   4.139   7.372 -0.2050  0.1540 -0.1327
   85MOL    C4232130   4.703   4.194   7.392 -0.0653 -0.3037  1.0851
   85MOL    O4332131   4.730   4.267   7.486  1.0037 -0.0034 -0.1764
   85MOL    N4432132   4.796   4.165   7.303 -0.1669 -0.0678 -0.2479
   85MOL    C4532133   4.929   4.232   7.297 -0.1841  0.2518 -0.9067
   85MOL    C4632134   5.041   4.123   7.298  0.3369 -0.5115  0.0369
   85MOL    C4732135   4.935   4.321   7.173  0.4844  0.5863 -0.8823
   85MOL    H4832136   4.432   3.973   7.458  0.0436 -1.3739  2.0109
   85MOL    H4932137   4.603   3.945   7.440  0.3958 -0.6300  1.9237
   85MOL    H5032138   4.556   4.089   7.276  0.0562 -0.5818  0.2373
   85MOL    H5132139   4.770   4.106   7.226  0.7875  0.4028 -0.9288
   85MOL    H5232140   4.946   4.304   7.376  1.0040 -0.1071 -0.8204
   85MOL    H5332141   5.016   4.042   7.366 -3.4093  1.0437  0.6235
   85MOL    H5432142   5.137   4.170   7.317  1.2989 -2.7918  1.0365
   85MOL    H5532143   5.057   4.085   7.197 -2.2362  2.9221 -1.7716
   85MOL    H5632144   4.876   4.413   7.179 -1.1765 -0.2356 -3.8521
   85MOL    H5732145   4.895   4.278   7.082 -0.4696  1.0372 -0.6854
   85MOL    H5832146   5.041   4.346   7.164  0.6507 -0.2493 -1.2621
   85MOL    C5932147   4.456   4.249   7.366  0.2096 -0.7652 -0.4215
   85MOL    C6032148   4.439   4.313   7.223  0.4890  0.2300 -0.4969
   85MOL    C6132149   4.383   4.205   7.126 -0.4964  0.5023  0.5269
   85MOL    O6232150   4.461   4.138   7.060  0.0071  0.4324  0.1084
   85MOL    N6332151   4.250   4.191   7.120 -0.2576 -0.3235  0.3393
   85MOL    C6432152   4.170   4.089   7.047  0.2151 -0.2036  0.0149
   85MOL    C6532153   4.207   3.945   7.085  0.2877 -0.0458 -0.0374
   85MOL    C6632154   4.013   4.120   7.053 -0.2628 -1.0688 -0.1764
   85MOL    H6732155   4.361   4.212   7.402 -0.4151  0.9483 -0.2363
   85MOL    H6832156   4.489   4.332   7.430 -1.1960  1.2093 -2.1871
   85MOL    H6932157   4.368   4.394   7.241 -0.2801 -0.6999  0.6868
   85MOL    H7032158   4.195   4.260   7.171 -0.1179  1.3236 -1.6795
   85MOL    H7132159   4.198   4.110   6.943 -1.2480 -0.9008 -0.5449
   85MOL    H7232160   4.148   3.866   7.038 -1.4156 -0.2731  2.3832
   85MOL    H7332161   4.307   3.928   7.045 -0.2370 -0.9843 -0.9736
   85MOL    H7432162   4.202   3.919   7.191  0.5644 -0.4946 -0.1301
   85MOL    H7532163   3.990   4.097   7.157  1.6322  0.1100  0.5208
   85MOL    H7632164   4.003   4.228   7.043  0.6263 -0.9545  0.1452
   85MOL    H7732165   3.953   4.063   6.982  1.7824 -1.0050 -2.0424
   85MOL    C7832166   4.567   4.389   7.169 -0.2759 -0.1586  0.4828
   85MOL    C7932167   4.542   4.466   7.043 -0.0801 -0.3159 -0.1150
   85MOL    C8032168   4.425   4.571   7.052 -0.0297  0.8063  0.4879
   85MOL    O8132169   4.399   4.626   7.156 -0.3695  0.3451 -0.3324
   85MOL    N8232170   4.363   4.599   6.937  0.0617 -0.5882  0.2113
   85MOL    C8332171   4.246   4.678   6.923 -0.3692  0.4320  0.2458
   85MOL    C8432172   4.278   4.800   6.842 -0.2336 -0.0084 -0.3918
   85MOL    C8532173   4.139   4.600   6.852 -0.5741 -0.4307  0.6384
   85MOL    H8632174   4.651   4.320   7.164 -1.2644 -1.3185 -0.4227
   85MOL    H8732175   4.607   4.463   7.239 -0.2467  3.2226 -2.9505
   85MOL    H8832176   4.512   4.391   6.969 -1.0712  1.0784 -1.1587
   85MOL    H8932177   4.371   4.527   6.867 -1.8097  0.6759 -1.3286
   85MOL    H9032178   4.208   4.708   7.021 -0.4976 -0.4597  0.4672
   85MOL    H9132179   4.187   4.845   6.802 -0.5036  0.4476  0.7103
   85MOL    H9232180   4.309   4.882   6.908  1.1445 -0.8988  0.0840
   85MOL    H9332181   4.350   4.780   6.762  0.9940 -1.2190  0.9879
   85MOL    H9432182   4.182   4.553   6.763  1.2791  2.1274  0.1327
   85MOL    H9532183   4.052   4.653   6.813  0.3526  2.7386  2.7357
   85MOL    H9632184   4.101   4.527   6.923 -2.9165  0.0698 -0.0356
   85MOL    C9732185   4.682   4.528   7.005  0.2940  0.2939 -0.4656
   85MOL    C9832186   4.688   4.626   6.886  0.0630 -0.4515 -0.0373
   85MOL    C9932187   4.697   4.557   6.747 -0.1659 -1.2215  0.3238
   85MOL   O10032188   4.787   4.478   6.723 -0.2971 -0.1529 -0.5085
   85MOL   N10132189   4.610   4.587   6.654  0.5108 -0.1920 -0.2720
   85MOL   C10232190   4.625   4.548   6.516  0.1447  0.2623 -0.0196
   85MOL   C10332191   4.566   4.410   6.487 -0.1710  0.0577  0.1922
   85MOL   C10432192   4.573   4.667   6.427 -0.2972  0.2293  0.3746
   85MOL   H10532193   4.751   4.447   6.980  0.5652  0.5778 -0.6393
   85MOL   H10632194   4.726   4.584   7.088  1.3264  1.9871 -2.1184
   85MOL   H10732195   4.602   4.692   6.882 -0.1127 -0.6103  0.9540
   85MOL   H10832196   4.536   4.650   6.680  1.1885  1.6067 -2.4895
   85MOL   H10932197   4.732   4.534   6.497  0.1647 -0.1847  0.4193
   85MOL   H11032198   4.460   4.434   6.474 -0.4041 -0.7659  0.5466
   85MOL   H11132199   4.605   4.366   6.395  0.6868 -0.9159  1.0226
   85MOL   H11232200   4.584   4.345   6.573  1.9392 -2.1355 -1.8186
   85MOL   H11332201   4.643   4.751   6.434  0.6834 -0.6274  1.0008
   85MOL   H11432202   4.479   4.705   6.466 -0.9244 -0.3768 -0.5025
   85MOL   H11532203   4.563   4.629   6.325  0.6819 -0.5289  0.5529
   85MOL   C11632204   4.809   4.724   6.903  0.1910  0.5568  0.4224
   85MOL   C11732205   4.798   4.855   6.823  0.5392 -0.7678 -0.2836
   85MOL   C11832206   4.932   4.916   6.830  0.0752 -0.3501  0.3722
   85MOL   O11932207   5.007   4.926   6.733  0.1508 -0.4155  0.1441
   85MOL   N12032208   4.969   4.980   6.950  0.6464  0.3553  0.3877
   85MOL   C12132209   5.086   5.067   6.969  0.7290  0.6029  0.1776
   85MOL   C12232210   5.225   4.991   6.959 -0.0878 -0.1092 -0.0136
   85MOL   C12332211   5.089   5.200   6.893 -0.0791  0.4857  0.2079
   85MOL   H12432212   4.897   4.678   6.860 -0.1843  1.5555 -1.5074
   85MOL   H12532213   4.826   4.748   7.008  0.0024  1.7278  0.2013
   85MOL   H12632214   4.790   4.824   6.718  1.8053  0.4750 -0.7594
   85MOL   H12732215   4.909   4.973   7.030 -2.2027  1.1607 -1.6123
   85MOL   H12832216   5.070   5.088   7.074  0.3609 -2.9580  0.8836
   85MOL   H12932217   5.265   4.991   6.858  0.1611 -3.4641  0.0359
   85MOL   H13032218   5.216   4.889   6.997 -1.5826 -0.2094 -0.5764
   85MOL   H13132219   5.305   5.041   7.014  1.0450 -1.6522 -0.2491
   85MOL   H13232220   5.051   5.279   6.957  1.7355 -0.9748  3.2009
   85MOL   H13332221   5.192   5.221   6.863 -0.9447 -0.2341 -3.5993
   85MOL   H13432222   5.032   5.200   6.800 -0.7801  2.1486  0.6335
   85MOL   C13532223   4.676   4.942   6.867  0.3689 -0.2966  0.7448
   85MOL   C13632224   4.672   5.089   6.810  0.0944  0.1144  0.4487
   85MOL   C13732225   4.685   5.075   6.661  0.7537  0.2699  0.7116
   85MOL   O13832226   4.613   4.996   6.600 -0.0591 -0.3593  0.2308
   85MOL   N13932227   4.773   5.159   6.603  0.3935  0.4090  0.0905
   85MOL   C14032228   4.825   5.137   6.465  0.2802  0.3641 -0.6291
   85MOL   C14132229   4.967   5.193   6.461 -0.2295  0.0485  0.0386
   85MOL   C14232230   4.731   5.196   6.364 -0.3997  0.2704 -0.1011
   85MOL   H14332231   4.696   4.966   6.971 -0.3592  1.5012  0.4904
   85MOL   H14432232   4.574   4.903   6.863 -0.4734  1.6904  1.9442
   85MOL   H14532233   4.759   5.132   6.859  0.2878 -1.1413  1.2423
   85MOL   H14632234   4.811   5.226   6.669 -1.5969 -0.5774  2.3333
   85MOL   H14732235   4.830   5.029   6.448 -0.6306  0.4055 -1.2043
   85MOL   H14832236   5.027   5.131   6.528 -1.0749 -0.3012  0.4818
   85MOL   H14932237   4.997   5.186   6.357  1.8839  2.3093  0.4578
   85MOL   H15032238   4.978   5.297   6.493  2.6979 -0.3950  0.6382
   85MOL   H15132239   4.785   5.203   6.269 -1.6481  2.1683 -0.6938
   85MOL   H15232240   4.715   5.300   6.392 -1.4755 -0.3792  1.7569
   85MOL   H15332241   4.635   5.144   6.361  0.2894 -1.0444  0.6083
   85MOL   C15432242   4.551   5.181   6.851 -0.0925  0.2125 -0.7647
   85MOL   C15532243   4.591   5.314   6.913 -0.8509  0.2636  0.0433
   85MOL   C15632244   4.655   5.401   6.814  0.1120  0.3434  0.3587
   85MOL   O15732245   4.774   5.398   6.791  0.2875  0.5292 -0.7289
   85MOL   N15832246   4.576   5.490   6.747 -0.0209  0.4301  0.5218
   85MOL   C15932247   4.624   5.597   6.663 -0.0504  0.3166  0.2167
   85MOL   C16032248   4.699   5.546   6.540 -0.1724 -0.3198 -0.6176
   85MOL   C16132249   4.706   5.709   6.734  0.2658 -0.0725 -0.3968
   85MOL   H16232250   4.496   5.123   6.925 -0.5221  0.3428 -0.9781
   85MOL   H16332251   4.489   5.192   6.762  1.4894 -0.7258 -2.0235
   85MOL   H16432252   4.506   5.371   6.952  0.1512  1.9666 -0.1875
   85MOL   H16532253   4.477   5.485   6.768  0.1013 -2.4338  0.5407
   85MOL   H16632254   4.532   5.646   6.631 -1.0443 -1.3403  0.4558
   85MOL   H16732255   4.640   5.475   6.481 -0.8212 -0.0074 -0.3546
   85MOL   H16832256   4.708   5.629   6.470  0.0991 -0.2683 -0.5208
   85MOL   H16932257   4.801   5.510   6.551 -0.1837 -0.1837 -0.0958
   85MOL   H17032258   4.807   5.672   6.753  1.5147  4.0571  1.4216
   85MOL   H17132259   4.658   5.743   6.825  0.2305 -1.1240 -0.0182
   85MOL   H17232260   4.720   5.797   6.672 -0.4658 -0.0846 -0.5909
   85MOL   C17332261   4.682   5.311   7.038  0.0934 -0.7848 -0.3134
   85MOL   C17432262   4.711   5.445   7.115 -0.3322  0.4959 -0.0331
   85MOL   C17532263   4.579   5.515   7.162 -0.1427  0.3446  0.7481
   85MOL   O17632264   4.511   5.452   7.241  0.2023  0.3056 -0.3485
   85MOL   N17732265   4.533   5.631   7.109  0.2563 -0.2035 -0.1156
   85MOL   C17832266   4.406   5.693   7.151 -0.1952 -0.0262  1.1194
   85MOL   C17932267   4.356   5.810   7.059 -0.2423 -0.8813  1.2394
   85MOL   C18032268   4.428   5.748   7.296 -0.2528 -0.2115 -0.1004
   85MOL   H18132269   4.779   5.274   7.005  1.0160  1.3907 -0.1589
   85MOL   H18232270   4.644   5.229   7.098 -1.9104  0.0890 -0.3556
   85MOL   H18332271   4.761   5.517   7.050 -0.9711  2.6927  1.8322
   85MOL   H18432272   4.587   5.680   7.038 -2.4082  0.1837 -1.9365
   85MOL   H18532273   4.329   5.615   7.148  0.5432 -0.7897  1.5513
   85MOL   H18632274   4.312   5.760   6.973  1.1437  1.2393 -0.7684
   85MOL   H18732275   4.436   5.874   7.022 -1.8138  0.6102  0.4065
   85MOL   H18832276   4.289   5.880   7.108  1.2219  1.4850 -0.0328
   85MOL   H18932277   4.334   5.799   7.316 -0.2107 -0.9342  2.0823
   85MOL   H19032278   4.507   5.822   7.297 -0.7334  0.2969  0.5464
   85MOL   H19132279   4.444   5.672   7.373 -0.6859 -1.6649 -1.4142
   85MOL   C19232280   4.807   5.423   7.231 -0.2184 -0.1531  0.1983
   85MOL   C19332281   4.780   5.299   7.329 -0.1845  0.2595 -0.1876
   85MOL   C19432282   4.763   5.343   7.478  0.1381 -0.0858 -0.2848
   85MOL   O19532283   4.852   5.324   7.560  0.6662 -0.4252  0.2586
   85MOL   N19632284   4.643   5.384   7.508  0.2639  0.0084 -0.0722
   85MOL   C19732285   4.589   5.426   7.637  0.4035 -0.9368 -0.4482
   85MOL   C19832286   4.432   5.435   7.618  0.4413  0.5047 -0.0550
   85MOL   C19932287   4.622   5.334   7.757 -0.1631 -0.0941 -0.3551
   85MOL   H20032288   4.798   5.512   7.293 -1.6880 -0.0355 -0.1685
   85MOL   H20132289   4.912   5.419   7.200  0.4884  4.8825  1.5706
   85MOL   H20232290   4.691   5.241   7.301 -0.5826  1.4023 -1.3365
   85MOL   H20332291   4.583   5.403   7.429  1.9252 -0.0807 -1.3965
   85MOL   H20432292   4.628   5.526   7.655  1.0479 -1.2592 -0.0401
   85MOL   H20532293   4.397   5.484   7.527  0.3455  0.9676  0.2255
   85MOL   H20632294   4.380   5.479   7.704  1.3800  0.6030  0.4709
   85MOL   H20732295   4.404   5.331   7.606 -1.0014  1.1199 -2.2327
   85MOL   H20832296   4.728   5.339   7.781  0.0151 -1.5656 -0.7428
   85MOL   H20932297   4.593   5.230   7.737  0.8067 -0.5833  0.7096
   85MOL   H21032298   4.567   5.362   0.010 -2.4265  1.0747 -2.0666
   85MOL   C21132299   4.903   5.203   7.310  0.5496 -0.0458  0.2951
   85MOL   C21232300   4.909   5.060   7.377 -0.6328  0.3703  0.2773
   85MOL   C21332301   4.803   4.976   7.300  0.1726 -0.3260  0.3357
   85MOL   O21432302   4.806   4.962   7.181 -0.3191 -0.1022  0.1229
   85MOL   N21532303   4.703   4.924   7.370 -0.0143 -0.3426 -0.2408
   85MOL   C21632304   4.593   4.839   7.328  1.1967  0.3214 -0.0607
   85MOL   C21732305   4.467   4.929   7.308 -0.3808 -0.3134 -0.9720
   85MOL   C21832306   4.575   4.730   7.427 -0.0644 -0.2541  0.0568
   85MOL   H21932307   4.988   5.271   7.323 -1.0525  1.8442  1.2112
   85MOL   H22032308   4.914   5.172   7.206  0.0781 -1.2197  0.5890
   85MOL   H22132309   4.875   5.066   7.480 -0.0090 -0.2412  0.5229
   85MOL   H22232310   4.706   4.955   7.466  0.1558  2.9601 -1.2664
   85MOL   H22332311   4.630   4.781   7.244 -2.2097 -0.7508 -0.8881
   85MOL   H22432312   4.452   5.001   7.388 -3.6122 -3.7297  1.7159
   85MOL   H22532313   4.487   4.996   7.225  1.7841  1.5755  1.0063
   85MOL   H22632314   4.375   4.876   7.280 -0.6704 -0.7628  0.7331
   85MOL   H22732315   4.507   4.647   7.406 -0.7697  0.0298  1.1844
   85MOL   H22832316   4.541   4.767   7.524  0.3730 -1.4413  0.6652
   85MOL   H22932317   4.671   4.684   7.447  0.3699  0.0707 -1.1883
   85MOL   C23032318   5.039   4.977   7.376 -0.1692 -0.4858 -0.3541
   85MOL   C23132319   5.146   5.044   7.469  0.2843  0.2051  0.4695
   85MOL   C23232320   5.105   5.046   7.620 -0.7691  0.1262 -0.3730
   85MOL   O23332321   5.124   4.945   7.695  0.1218  0.0969 -0.2915
   85MOL   N23432322   5.049   5.156   7.666  0.0104 -0.4955  0.1070
   85MOL   C23532323   5.003   5.183   7.794 -0.4766 -0.3079 -0.5883
   85MOL   C23632324   4.886   5.085   7.822 -0.4453  0.6365 -0.5076
   85MOL   C23732325   5.115   5.191   0.056 -0.1020  0.4095  0.2709
   85MOL   H23832326   5.078   4.967   7.274 -1.6566 -1.6997 -0.8277
   85MOL   H23932327   5.023   4.876   7.413 -0.4116 -0.9484 -1.6825
   85MOL   H24032328   5.157   5.147   7.435  0.5785  0.8763  2.5614
   85MOL   H24132329   5.006   5.218   7.598 -0.7552  0.5614  1.5364
   85MOL   H24232330   4.957   5.282   7.793  0.8631  0.3357  0.1095
   85MOL   H24332331   4.842   5.120   0.079 -1.8429 -0.2670 -0.8196
   85MOL   H24432332   4.807   5.073   7.748  1.4904 -1.0420 -2.3522
   85MOL   H24532333   4.928   4.987   0.004  0.2199  0.9784 -0.1640
   85MOL   H24632334   5.140   5.091   0.091  1.0697 -0.1673 -2.1185
   85MOL   H24732335   5.087   5.254   0.140  0.8067 -0.1953  1.0355
   85MOL   H24832336   5.215   5.215   0.020 -1.2912  1.0397 -2.7890
   85MOL   C24932337   5.276   4.972   7.439 -0.4223  0.0033 -0.5444
   85MOL   C25032338   5.287   4.814   7.453  0.2375  0.4959  0.6272
   85MOL   C25132339   5.398   4.775   7.549 -0.1751  0.1117  0.0650
   85MOL   O25232340   5.491   4.707   7.513  0.1019  0.1307 -0.3773
   85MOL   N25332341   5.372   4.806   7.675 -0.4137 -0.0053  0.0705
   85MOL   C25432342   5.449   4.786   7.791 -0.1391 -0.3431 -0.2905
   85MOL   C25532343   5.478   4.918   0.021  0.4225 -0.0904 -0.2960
   85MOL   C25632344   5.394   4.674   0.042 -0.7243 -0.3718 -0.9443
   85MOL   H25732345   5.345   5.019   7.508  0.1010  0.9111 -1.6810
   85MOL   H25832346   5.289   4.998   7.334 -3.4260  0.4612 -0.8539
   85MOL   H25932347   5.193   4.786   7.502 -1.1415  2.0910 -1.0065
   85MOL   H26032348   5.279   4.844   7.680 -0.1284  0.8740 -1.1706
   85MOL   H26132349   5.544   4.754   7.750 -0.6473 -3.2232  0.6745
   85MOL   H26232350   5.520   4.913   0.121  1.3970 -0.7694 -0.7332
   85MOL   H26332351   5.548   4.966   7.789  0.8661  0.2323  0.3806
   85MOL   H26432352   5.396   4.990   0.030 -0.1394 -0.6635 -0.8174
   85MOL   H26532353   5.344   4.595   7.822 -0.6861 -0.0226 -1.4753
   85MOL   H26632354   5.480   4.622   0.083  1.3690  3.0605 -0.7627
   85MOL   H26732355   5.330   4.714   0.121  0.9580 -1.7811  1.1615
   85MOL   C26832356   5.278   4.733   7.316 -0.5658 -0.1219  0.6627
   85MOL   C26932357   5.287   4.581   7.313  0.6748 -0.2871  0.3106
   85MOL   C27032358   5.196   4.507   7.406 -0.2313  0.5492  0.3039
   85MOL   O27132359   5.231   4.398   7.435 -0.4057  0.7148  0.0531
   85MOL   N27232360   5.085   4.564   7.460 -0.3501  0.1119 -0.5786
   85MOL   C27332361   5.000   4.524   7.571  0.1646 -0.2463  0.4890
   85MOL   C27432362   5.035   4.618   7.694 -0.2402 -0.1193  0.5912
   85MOL   C27532363   4.854   4.536   7.549 -0.1852 -0.2185  0.5132
   85MOL   H27632364   5.183   4.767   7.274 -0.0012  0.9414  0.2216
   85MOL   H27732365   5.367   4.769   7.265  0.6914  0.9168  3.4690
   85MOL   H27832366   5.389   4.560   7.343  1.1748 -0.5024 -1.4915
   85MOL   H27932367   5.076   4.661   7.433  2.2502  0.2109 -1.1814
   85MOL   H28032368   5.032   4.424   7.601 -0.0397 -0.4453  0.0473
   85MOL   H28132369   4.957   4.614   7.769 -0.3278 -0.4128  0.4861
   85MOL   H28232370   5.130   4.586   7.737  0.6238 -0.5039 -1.5099
   85MOL   H28332371   5.044   4.723   7.665  1.0711  0.0566  1.6105
   85MOL   H28432372   4.832   4.528   7.442  0.6573  0.5288  0.2762
   85MOL   H28532373   4.801   4.462   7.608 -0.4274 -0.6338 -0.2139
   85MOL   H28632374   4.816   4.633   7.582 -0.5651  0.1168 -0.8692
   85MOL   C28732375   5.267   4.535   7.167  0.2095 -0.3851  0.1810
   85MOL   C28832376   5.321   4.400   7.118 -0.1502  0.1458  0.6006
   85MOL   C28932377   5.460   4.362   7.181 -0.4207 -0.0817  0.0991
   85MOL   O29032378   5.571   4.379   7.130 -0.2163 -0.0409 -0.0410
   85MOL   N29132379   5.452   4.308   7.303 -0.7754 -0.3711 -0.6281
   85MOL   C29232380   5.561   4.252   7.381 -0.1055  0.6330 -0.5312
   85MOL   C29332381   5.653   4.369   7.441  0.6168  0.7851 -0.1380
   85MOL   C29432382   5.511   4.165   7.491  0.4157  0.1548  0.2104
   85MOL   H29532383   5.163   4.540   7.134  0.3138  2.0284  0.1468
   85MOL   H29632384   5.310   4.614   7.105  0.4761  0.2178  1.1199
   85MOL   H29732385   5.257   4.324   7.163  1.9957 -2.6201 -0.8787
   85MOL   H29832386   5.362   4.316   7.348 -0.1749  1.5981  0.2850
   85MOL   H29932387   5.620   4.192   7.312 -1.6394 -1.6800  0.1186
   85MOL   H30032388   5.600   4.430   7.515 -1.7128 -0.9536 -0.3224
   85MOL   H30132389   5.736   4.317   7.489 -0.2188 -1.5973 -1.1870
   85MOL   H30232390   5.690   4.427   7.357 -0.8101  2.3346  0.2791
   85MOL   H30332391   5.450   4.087   7.445 -0.4558  0.4242  0.9011
   85MOL   H30432392   5.587   4.119   7.555  0.2190  0.7593  0.8733
   85MOL   H30532393   5.453   4.217   7.566 -0.7808 -0.1591 -0.4819
   85MOL   C30632394   5.334   4.403   6.963 -0.1715  0.5905 -0.2047
   85MOL   C30732395   5.333   4.267   6.889  0.0334  0.6613 -0.0329
   85MOL   C30832396   5.465   4.255   6.805  0.4308  0.2133 -0.7168
   85MOL   O30932397   5.468   4.250   6.684 -0.3855  0.4951  0.6966
   85MOL   N31032398   5.570   4.228   6.879  0.1311  0.4796  0.1089
   85MOL   C31132399   5.707   4.208   6.837 -0.5189  0.5374  0.0619
   85MOL   C31232400   5.797   4.309   6.915 -0.7371 -0.4007  0.3608
   85MOL   C31332401   5.750   4.059   6.854  0.3310  0.2915  0.7156
   85MOL   H31432402   5.251   4.464   6.926 -1.2452 -0.0044  1.1475
   85MOL   H31532403   5.429   4.452   6.948  1.0087 -2.3782 -2.9655
   85MOL   H31632404   5.330   4.182   6.958 -0.5728  0.0799 -0.7630
   85MOL   H31732405   5.556   4.241   6.978 -2.5131 -0.4014 -0.1230
   85MOL   H31832406   5.710   4.238   6.732  2.1223  1.0590  0.2529
   85MOL   H31932407   5.792   4.303   7.024  1.2649 -2.6518  0.3730
   85MOL   H32032408   5.768   4.412   6.893  3.3979  0.6951 -0.3155
   85MOL   H32132409   5.904   4.301   6.895 -0.6008 -0.2954  1.0310
   85MOL   H32232410   5.815   4.019   6.776 -0.5348  0.4510 -0.0971
   85MOL   H32332411   5.663   3.995   6.846  1.5468 -1.1951 -1.0480
   85MOL   H32432412   5.791   4.038   6.953 -1.2569 -2.7101  0.7925
   85MOL   C32532413   5.209   4.258   6.794  0.9620 -0.3873 -0.5688
   85MOL   C32632414   5.178   4.122   6.732 -0.0788 -0.5704  0.3101
   85MOL   C32732415   5.154   4.013   6.834 -0.1156  0.7118 -0.3281
   85MOL   O32832416   5.067   4.021   6.918 -0.1656 -0.2984  0.0358
   85MOL   N32932417   5.237   3.912   6.832 -0.3060  0.2450 -0.1838
   85MOL   C33032418   5.213   3.780   6.909  0.0277 -0.2559  1.1308
   85MOL   C33132419   5.358   3.720   6.933 -0.3583 -0.5299 -0.3960
   85MOL   C33232420   5.120   3.682   6.831  0.4938 -0.6834  0.2764
   85MOL   H33332421   5.230   4.332   6.717 -0.4232 -2.4882 -3.0545
   85MOL   H33432422   5.119   4.288   6.848  0.6717 -0.4643 -1.0071
   85MOL   H33532423   5.257   4.087   6.665 -0.5543  0.6063 -0.8785
   85MOL   H33632424   5.296   3.901   6.750 -0.8743 -1.0509 -0.4369
   85MOL   H33732425   5.173   3.794   7.009 -2.3102 -0.1011  0.2074
   85MOL   H33832426   5.433   3.790   6.970 -0.6786  0.1535 -1.0025
   85MOL   H33932427   5.355   3.640   7.006 -3.0345 -0.6066 -0.5593
   85MOL   H34032428   5.403   3.676   6.844 -2.3006 -1.5646 -0.8977
   85MOL   H34132429   5.144   3.580   6.860  2.2518 -0.6757 -1.0363
   85MOL   H34232430   5.152   3.688   6.727  0.4150 -1.5010  0.2059
   85MOL   H34332431   5.013   3.701   6.833  0.4062 -1.0715 -0.4297
   85MOL   C34432432   5.063   4.118   6.623 -0.2137  0.3188 -0.3340
   85MOL   C34532433   5.087   4.201   6.491  0.0438 -0.4727 -0.4127
   85MOL   C34632434   5.190   4.122   6.408  0.6710  0.8790 -0.1104
   85MOL   O34732435   5.160   4.017   6.355 -0.4540  0.7412 -0.3149
   85MOL   N34832436   5.309   4.178   6.388 -0.3156 -0.6468 -0.4651
   85MOL   C34932437   5.417   4.134   6.300 -0.1324  0.1203 -0.1120
   85MOL   C35032438   5.513   4.245   6.250 -0.2918 -0.2697 -0.9443
   85MOL   C35132439   5.489   4.028   6.370  0.2796  0.2315  0.1704
   85MOL   H35232440   4.972   4.146   6.677  0.1447  1.1417 -0.1491
   85MOL   H35332441   5.050   4.013   6.597  1.8069  0.0330 -0.2593
   85MOL   H35432442   5.122   4.296   6.529  1.4981 -0.8429 -0.7983
   85MOL   H35532443   5.331   4.267   6.430 -1.5642 -1.6764  2.5302
   85MOL   H35632444   5.374   4.084   6.213  1.6672 -0.3243 -0.7542
   85MOL   H35732445   5.557   4.303   6.331  0.7031 -0.4798 -1.3289
   85MOL   H35832446   5.594   4.191   6.200 -0.8525 -1.9125 -0.1037
   85MOL   H35932447   5.466   4.302   6.170 -1.4438 -1.8251 -1.3882
   85MOL   H36032448   5.536   3.954   6.305 -2.2403 -0.3463 -1.0694
   85MOL   H36132449   5.568   4.071   6.430  2.6679 -0.6945 -2.2058
   85MOL   H36232450   5.427   3.975   6.442  1.6215  1.4310  2.2378
   85MOL   C36332451   4.961   4.218   6.411  0.3001  0.4236  0.2575
   85MOL   C36432452   4.988   4.277   6.273  0.9783  0.1880  0.4038
   85MOL   C36532453   4.849   4.271   6.197 -0.4712 -0.1026  0.5359
   85MOL   O36632454   4.773   4.363   6.204  0.1795  0.5866 -0.4205
   85MOL   N36732455   4.829   4.158   6.129  0.5305  1.1424 -0.2941
   85MOL   C36832456   4.715   4.118   6.044  0.4294 -0.2616 -0.4682
   85MOL   C36932457   4.760   4.104   5.894  0.4189  0.6335 -0.3926
   85MOL   C37032458   4.658   3.987   6.092  0.8079  0.5184 -0.0878
   85MOL   H37132459   4.890   4.277   6.470  1.3405 -0.8249  2.8086
   85MOL   H37232460   4.928   4.114   6.418 -0.8742  0.8468  1.2511
   85MOL   H37332461   5.074   4.241   6.217 -0.1789 -2.3960  0.1805
   85MOL   H37432462   4.913   4.102   6.122  1.7940  2.9733 -0.0481
   85MOL   H37532463   4.631   4.187   6.033 -2.2146 -3.4348 -1.0162
   85MOL   H37632464   4.826   4.021   5.870 -1.6324 -1.0763 -0.3210
   85MOL   H37732465   4.673   4.095   5.828  0.0836 -1.7810  0.3071
   85MOL   H37832466   4.803   4.202   5.875 -2.4535  2.4040  1.6650
   85MOL   H37932467   4.617   3.988   6.193 -1.3087 -0.0490 -0.9100
   85MOL   H38032468   4.577   3.962   6.023 -0.3132  0.6515  1.1596
   85MOL   H38132469   4.741   3.917   6.098 -0.0458 -0.5079 -0.1021
   85MOL   H38232470   5.004   4.384   6.277  0.9562  0.1850  0.6014
   86MOL     C132471   5.306   3.638   3.067 -0.7186  0.3007  0.3062
   86MOL     C232472   5.156   3.591   3.087 -0.2429  0.5369 -0.4435
   86MOL     C332473   5.151   3.521   3.221 -0.0555  0.3636 -0.7229
   86MOL     O432474   5.159   3.581   3.327  0.5869 -0.5964 -0.2377
   86MOL     N532475   5.120   3.390   3.222  0.0241 -0.0058  0.5650
   86MOL     C632476   5.112   3.297   3.331  0.1437  0.0923 -0.0947
   86MOL     C732477   4.985   3.331   3.421  0.3066  0.1731  0.6484
   86MOL     C832478   5.111   3.150   3.279  0.3715 -0.5028 -0.0447
   86MOL     H932479   5.329   3.660   2.963  0.0905  1.5421  0.7421
   86MOL    H1032480   5.383   3.563   3.085 -1.8566 -0.7892  0.6916
   86MOL    H1132481   5.127   3.523   3.008  2.9972 -0.3525 -0.9458
   86MOL    H1232482   5.131   3.341   3.135 -2.8307  0.2917 -0.0086
   86MOL    H1332483   5.199   3.316   3.394  0.8783  1.0382 -1.3658
   86MOL    H1432484   4.903   3.354   3.354 -0.5044 -0.9107  1.2613
   86MOL    H1532485   5.016   3.413   3.486  0.2616  0.7133 -0.0015
   86MOL    H1632486   4.957   3.241   3.475  0.3322 -0.7623 -0.8624
   86MOL    H1732487   5.176   3.124   3.196  0.4092  1.2203 -0.5748
   86MOL    H1832488   5.140   3.088   3.364  3.3183  1.0330  0.1487
   86MOL    H1932489   5.010   3.128   3.246  0.3098 -0.1808 -0.0772
   86MOL    H2032490   5.325   3.727   3.127 -0.6051  0.2013  0.4162
   86MOL    C2132491   5.052   3.709   3.076 -0.5174 -0.2235 -0.6141
   86MOL    C2232492   4.904   3.682   3.117  0.2385  0.1411  0.3788
   86MOL    C2332493   4.841   3.564   3.043 -0.1973  0.8868 -0.1023
   86MOL    O2432494   4.877   3.517   2.938 -0.0816  0.7756  0.1587
   86MOL    N2532495   4.747   3.505   3.117 -0.5099 -0.3088 -0.4771
   86MOL    C2632496   4.655   3.397   3.072  0.9406  0.0832 -0.5185
   86MOL    C2732497   4.530   3.418   3.154  0.5230  0.0560  1.0127
   86MOL    C2832498   4.721   3.262   3.110  0.2725  0.2042  0.5280
   86MOL    H2932499   5.050   3.737   2.970 -2.1356 -1.2666 -0.8735
   86MOL    H3032500   5.085   3.800   3.126  2.6949 -0.2423 -2.6115
   86MOL    H3132501   4.909   3.659   3.224  0.1684  1.6547  0.7290
   86MOL    H3232502   4.715   3.566   3.191  0.0183 -0.7301  0.0971
   86MOL    H3332503   4.635   3.403   2.965  1.2900  1.9572 -0.4807
   86MOL    H3432504   4.520   3.367   3.250  1.3812 -2.3217 -0.1371
   86MOL    H3532505   4.464   3.371   3.082  0.8033  0.1160  0.7150
   86MOL    H3632506   4.506   3.525   3.151  0.5281  0.0499  0.8135
   86MOL    H3732507   4.729   3.263   3.219 -0.3094  4.1650  0.6271
   86MOL    H3832508   4.660   3.178   3.077 -0.0548  0.9601 -0.8350
   86MOL    H3932509   4.824   3.240   3.082  0.2223  0.4059  0.1875
   86MOL    C4032510   4.813   3.807   3.092  1.1482 -0.5686  0.0447
   86MOL    C4132511   4.782   3.906   3.212  0.3888  0.0464 -0.2687
   86MOL    C4232512   4.685   3.850   3.317 -0.3964 -0.2162 -0.5055
   86MOL    O4332513   4.645   3.732   3.302 -0.1535 -0.6603  0.2249
   86MOL    N4432514   4.635   3.937   3.410  0.1043 -0.5391  0.2674
   86MOL    C4532515   4.540   3.895   3.510  0.8242  0.1636 -0.5986
   86MOL    C4632516   4.599   3.842   3.640  0.7479  0.3577  0.3081
   86MOL    C4732517   4.455   4.015   3.544 -0.2825  0.2141 -0.3039
   86MOL    H4832518   4.713   3.782   3.057  0.7838  1.8658 -0.7461
   86MOL    H4932519   4.864   3.863   3.014 -0.5058  0.9342  0.0045
   86MOL    H5032520   4.883   3.913   3.253  0.4238 -0.7710 -0.2086
   86MOL    H5132521   4.686   4.024   3.414  0.7977 -0.9092 -0.4519
   86MOL    H5232522   4.479   3.816   3.467 -0.6283  1.1078 -0.3050
   86MOL    H5332523   4.516   3.823   3.708  0.3614 -1.2193 -0.5972
   86MOL    H5432524   4.666   3.915   3.686  0.9168  0.2492  0.2330
   86MOL    H5532525   4.637   3.740   3.630 -1.2933 -0.3049 -0.9961
   86MOL    H5632526   4.506   4.097   3.593  2.4489 -1.7806  0.3211
   86MOL    H5732527   4.374   3.966   3.598  0.0843 -0.1389 -0.0707
   86MOL    H5832528   4.403   4.053   3.456 -1.8560 -0.7236  0.1921
   86MOL    C5932529   4.737   4.049   3.167  0.5133  0.1035  0.1037
   86MOL    C6032530   4.616   4.061   3.070 -0.1543 -0.1773 -0.2696
   86MOL    C6132531   4.646   4.011   2.926 -0.2713  0.0595  0.5548
   86MOL    O6232532   4.593   3.910   2.885  0.5941 -0.1685  0.0448
   86MOL    N6332533   4.734   4.084   2.849  0.6030  0.7349 -0.4532
   86MOL    C6432534   4.786   4.039   2.723 -0.2311  0.4857 -0.3226
   86MOL    C6532535   4.735   4.124   2.613  0.4440  0.4235  0.1423
   86MOL    C6632536   4.939   4.061   2.732 -0.1540  0.6278 -0.5581
   86MOL    H6732537   4.733   4.115   3.254  0.2443  0.1596  0.0487
   86MOL    H6832538   4.820   4.087   3.108  0.2960 -2.4868 -1.9442
   86MOL    H6932539   4.544   3.986   3.105  0.1188  0.0636  0.8378
   86MOL    H7032540   4.773   4.169   2.887 -1.8250  2.1481 -1.0153
   86MOL    H7132541   4.763   3.936   2.695  0.0066  0.4092 -0.2409
   86MOL    H7232542   4.795   4.125   2.522  0.3882 -0.6329  0.0989
   86MOL    H7332543   4.633   4.109   2.577  0.6288  2.4127 -1.3190
   86MOL    H7432544   4.727   4.230   2.639  0.7328  0.4486  0.1338
   86MOL    H7532545   4.973   4.021   2.827 -3.1994 -1.8538 -0.4270
   86MOL    H7632546   5.005   4.012   2.661  0.1061 -1.3467  1.0010
   86MOL    H7732547   4.961   4.168   2.736  3.1497  0.0255 -1.0746
   86MOL    C7832548   4.549   4.202   3.069  0.1577  0.1190 -1.0841
   86MOL    C7932549   4.402   4.191   3.016  0.5040  0.5090  0.2059
   86MOL    C8032550   4.324   4.117   3.126 -0.2268  0.4193 -1.0356
   86MOL    O8132551   4.293   4.181   3.225 -0.5431 -0.1786  0.2293
   86MOL    N8232552   4.273   3.999   3.088  0.0662  0.2158 -0.3003
   86MOL    C8332553   4.168   3.923   3.155  0.1804 -0.1225 -0.2336
   86MOL    C8432554   4.061   3.878   3.050 -0.1448 -0.0731 -0.0198
   86MOL    C8532555   4.228   3.806   3.234 -0.7646  0.2943 -0.4208
   86MOL    H8632556   4.603   4.274   3.008  0.1425 -1.1251 -2.6051
   86MOL    H8732557   4.551   4.239   3.172  0.4824  1.3768 -1.5388
   86MOL    H8832558   4.399   4.126   2.929  1.4790  0.8672 -0.1012
   86MOL    H8932559   4.294   3.978   2.991 -0.7058 -1.2974 -0.1668
   86MOL    H9032560   4.128   3.987   3.234  2.2950  2.8305 -1.4421
   86MOL    H9132561   3.996   3.957   3.011  1.2074 -0.2894 -2.8209
   86MOL    H9232562   4.120   3.834   2.970 -0.5311 -0.5222 -0.0645
   86MOL    H9332563   3.998   3.800   3.093  0.1960 -0.2485  0.1550
   86MOL    H9432564   4.153   3.764   3.300 -1.0804  2.3812  0.5622
   86MOL    H9532565   4.320   3.816   3.292 -0.0564  0.2864 -1.5101
   86MOL    H9632566   4.259   3.733   3.159 -3.3941  0.2605 -1.5304
   86MOL    C9732567   4.345   4.334   2.982 -0.0244 -0.1523  0.0027
   86MOL    C9832568   4.271   4.367   2.848 -0.4052 -0.3218 -0.2365
   86MOL    C9932569   4.148   4.281   2.835 -0.0409  0.3916 -0.0531
   86MOL   O10032570   4.155   4.158   2.833 -0.3372  0.6090  0.2904
   86MOL   N10132571   4.030   4.349   2.828 -0.0416 -0.0852  0.0356
   86MOL   C10232572   3.893   4.290   2.827 -0.1810 -0.4204 -0.2737
   86MOL   C10332573   3.793   4.401   2.868  0.3884  0.4462 -0.2097
   86MOL   C10432574   3.852   4.226   2.688  0.4103 -0.4884 -0.1207
   86MOL   H10532575   4.421   4.412   2.987 -0.3630  0.1925 -0.2354
   86MOL   H10632576   4.280   4.366   3.063  1.2631 -1.5561  1.6343
   86MOL   H10732577   4.233   4.469   2.855 -1.4293 -0.8255  2.1466
   86MOL   H10832578   4.030   4.449   2.812  1.7181 -0.0904 -0.0842
   86MOL   H10932579   3.894   4.217   2.907  0.1304 -0.8099 -0.6346
   86MOL   H11032580   3.695   4.360   2.893  0.8275 -0.9055 -0.6446
   86MOL   H11132581   3.823   4.455   2.957 -0.3034 -0.8560  0.8453
   86MOL   H11232582   3.772   4.470   2.787  0.7991  2.5729  1.4435
   86MOL   H11332583   3.788   4.139   2.704  0.2519 -0.1706  1.0360
   86MOL   H11432584   3.948   4.193   2.648  0.8124  1.6238 -0.9571
   86MOL   H11532585   3.813   4.300   2.618  3.3770  1.0755 -0.1995
   86MOL   C11632586   4.370   4.347   2.732 -0.1099  0.2785 -0.2516
   86MOL   C11732587   4.334   4.388   2.584 -0.0020 -0.6674  0.1100
   86MOL   C11832588   4.455   4.358   2.492  0.4731 -0.9427 -0.4331
   86MOL   O11932589   4.563   4.409   2.511  0.1111  0.6637  0.1388
   86MOL   N12032590   4.435   4.273   2.387  0.1277 -0.2098  0.3753
   86MOL   C12132591   4.535   4.239   2.283 -0.7766 -0.2865 -0.2804
   86MOL   C12232592   4.480   4.115   2.214  0.8253  0.3572 -0.4244
   86MOL   C12332593   4.559   4.345   2.181 -0.5672  0.5303 -0.3279
   86MOL   H12432594   4.405   4.246   2.752 -1.3709 -0.0829  0.1788
   86MOL   H12532595   4.462   4.404   2.748  0.9298 -1.2126 -0.8213
   86MOL   H12632596   4.239   4.342   2.557  0.1986 -0.3450 -1.2118
   86MOL   H12732597   4.350   4.220   2.393 -0.3672  0.2758 -2.0302
   86MOL   H12832598   4.630   4.214   2.330 -0.8741 -0.5657 -0.2316
   86MOL   H12932599   4.404   4.140   2.140 -0.9548  1.5044  1.7173
   86MOL   H13032600   4.447   4.034   2.279  1.4327  0.1135 -0.4183
   86MOL   H13132601   4.555   4.061   2.157 -1.1272 -0.7483 -2.0049
   86MOL   H13232602   4.639   4.331   2.108 -0.2225 -0.8212  0.2904
   86MOL   H13332603   4.467   4.379   2.134 -0.8993 -1.7937 -1.4364
   86MOL   H13432604   4.600   4.435   2.227 -0.8287  0.7733 -0.5625
   86MOL   C13532605   4.308   4.547   2.583 -0.3908 -0.1966  1.1049
   86MOL   C13632606   4.265   4.607   2.445 -0.7845 -0.6173 -0.3788
   86MOL   C13732607   4.148   4.551   2.376  0.0006 -0.2004 -0.2992
   86MOL   O13832608   4.048   4.622   2.371 -0.2306 -0.0320  0.5428
   86MOL   N13932609   4.159   4.437   2.310  0.4215  0.1207 -0.2176
   86MOL   C14032610   4.063   4.382   2.218 -0.0238  0.0139  0.3732
   86MOL   C14132611   3.954   4.309   2.304 -0.1955 -0.1572  0.4635
   86MOL   C14232612   4.133   4.291   2.117  0.1585  0.0115  0.1089
   86MOL   H14332613   4.396   4.604   2.615  0.1573  2.3985 -4.4263
   86MOL   H14432614   4.220   4.556   2.647  0.3898 -0.4536  2.2268
   86MOL   H14532615   4.342   4.581   2.372  0.2467  0.1470  0.4248
   86MOL   H14632616   4.254   4.403   2.315  0.1340 -0.6734 -0.1460
   86MOL   H14732617   4.014   4.461   2.162 -1.6901 -1.3308 -0.1132
   86MOL   H14832618   3.864   4.288   2.246 -0.2929  0.4982  0.3725
   86MOL   H14932619   3.998   4.217   2.342 -0.5292 -0.5104  0.0039
   86MOL   H15032620   3.932   4.356   2.400  0.5375  2.4288 -0.5979
   86MOL   H15132621   4.057   4.237   2.062 -0.7108  0.5899  0.7405
   86MOL   H15232622   4.201   4.215   2.156 -0.2680 -0.6290 -0.4038
   86MOL   H15332623   4.185   4.349   2.041 -0.1615  0.5553  0.3058
   86MOL   C15432624   4.269   4.760   2.466 -0.7613 -0.6406 -0.0018
   86MOL   C15532625   4.172   4.808   2.576  0.4200  0.1426 -0.1767
   86MOL   C15632626   4.105   4.943   2.528  0.5056 -0.1070 -0.0777
   86MOL   O15732627   4.148   5.055   2.561  0.0731  0.2407 -0.0452
   86MOL   N15832628   3.994   4.930   2.447 -0.5589 -0.1574 -0.2576
   86MOL   C15932629   3.910   5.035   2.384  0.4800  0.2756 -0.0752
   86MOL   C16032630   3.859   5.139   2.486 -0.3762 -0.4065 -0.0723
   86MOL   C16132631   3.799   4.975   2.294  0.3974  0.4434  0.1213
   86MOL   H16232632   4.244   4.817   2.376  0.4134 -0.6007 -0.3180
   86MOL   H16332633   4.373   4.791   2.479 -0.1802 -2.2230 -0.7833
   86MOL   H16432634   4.096   4.730   2.589  0.1549  0.2649 -0.9752
   86MOL   H16532635   3.985   4.836   2.413 -1.0987 -0.1628 -0.1078
   86MOL   H16632636   3.976   5.089   2.315 -1.8720  0.3108 -2.3412
   86MOL   H16732637   3.798   5.101   2.568  0.5750 -0.2501  0.7186
   86MOL   H16832638   3.935   5.185   2.550 -1.1439 -1.5992  1.7323
   86MOL   H16932639   3.793   5.215   2.443  0.0006  0.7052  1.2746
   86MOL   H17032640   3.742   5.057   2.249  0.8913  0.3702 -0.6400
   86MOL   H17132641   3.728   4.921   2.357  1.0030  1.3704  1.6450
   86MOL   H17232642   3.842   4.917   2.213  1.6672  2.0059 -0.3712
   86MOL   C17332643   4.236   4.832   2.712 -0.2511 -0.0562 -0.1095
   86MOL   C17432644   4.149   4.872   2.836  0.9285 -0.2042  0.4814
   86MOL   C17532645   4.025   4.773   2.841 -0.4681 -0.1946  0.1513
   86MOL   O17632646   4.044   4.650   2.860  0.6192  0.7395 -0.0926
   86MOL   N17732647   3.910   4.834   2.811 -0.4852 -0.6042  0.0279
   86MOL   C17832648   3.784   4.756   2.796  1.2749 -0.3448 -0.4651
   86MOL   C17932649   3.769   4.696   2.653 -0.3333 -0.0671 -0.1716
   86MOL   C18032650   3.665   4.853   2.832 -0.2558 -0.2575  0.5611
   86MOL   H18132651   4.322   4.898   2.696  0.5686 -0.4876  2.3493
   86MOL   H18232652   4.289   4.744   2.747 -1.3588 -0.0263  1.6731
   86MOL   H18332653   4.115   4.975   2.826  1.3742 -0.1965 -1.3094
   86MOL   H18432654   3.915   4.926   2.770  1.0970 -0.5940  0.2383
   86MOL   H18532655   3.788   4.676   2.869 -1.0671 -0.5332 -0.5172
   86MOL   H18632656   3.855   4.639   2.618  0.1886 -0.2828  1.4042
   86MOL   H18732657   3.760   4.772   2.576  3.2739  0.2129 -0.3821
   86MOL   H18832658   3.695   4.616   2.643  1.8182 -1.9236 -1.5849
   86MOL   H18932659   3.658   4.927   2.753 -2.8493  0.1970  1.1863
   86MOL   H19032660   3.685   4.912   2.921  0.5061  2.1779 -1.1585
   86MOL   H19132661   3.572   4.797   2.837 -0.1931 -0.5593 -1.2114
   86MOL   C19232662   4.231   4.880   2.970 -0.1791  0.5553 -0.2413
   86MOL   C19332663   4.329   5.000   2.986 -0.1069 -0.4800 -0.8627
   86MOL   C19432664   4.460   4.986   2.912  0.3552 -0.1822 -0.7135
   86MOL   O19532665   4.534   4.894   2.945  0.1398 -1.1778  0.2543
   86MOL   N19632666   4.504   5.077   2.827 -0.2607 -0.4385 -0.2981
   86MOL   C19732667   4.640   5.093   2.776  0.0283 -0.1518 -0.8569
   86MOL   C19832668   4.654   5.091   2.626 -0.3820  0.5147 -0.1723
   86MOL   C19932669   4.702   5.215   2.835 -0.5294 -0.1018 -0.1935
   86MOL   H20032670   4.287   4.787   2.977  0.2164  0.8378  0.4440
   86MOL   H20132671   4.157   4.881   3.050 -1.4034  2.5829 -1.3634
   86MOL   H20232672   4.278   5.085   2.942  1.8212  0.3449 -1.5088
   86MOL   H20332673   4.436   5.149   2.802  2.2126  1.1038 -2.8556
   86MOL   H20432674   4.705   5.014   2.815  2.0018  1.3044 -1.1389
   86MOL   H20532675   4.592   5.170   2.583  0.4495  2.4102  2.0130
   86MOL   H20632676   4.619   5.003   2.572  0.6466 -0.3298  0.5083
   86MOL   H20732677   4.751   5.121   2.587 -0.3448  0.4014 -0.1687
   86MOL   H20832678   4.635   5.299   2.818  1.6578  1.5512 -0.8434
   86MOL   H20932679   4.803   5.229   2.796  0.3139 -0.0194  1.9366
   86MOL   H21032680   4.707   5.198   2.942 -1.8715 -0.3060 -0.1551
   86MOL   C21132681   4.358   5.048   3.133  0.8269 -0.1948  0.8801
   86MOL   C21232682   4.431   5.189   3.159 -0.4190  0.4202  0.6258
   86MOL   C21332683   4.360   5.307   3.090 -0.3158 -0.3217  0.2272
   86MOL   O21432684   4.239   5.327   3.117  0.4145 -0.2921 -0.1409
   86MOL   N21532685   4.422   5.377   2.998  0.2027  0.4543 -0.3234
   86MOL   C21632686   4.389   5.501   2.942  1.0297 -0.3769  0.2613
   86MOL   C21732687   4.381   5.485   2.791  0.0547 -0.2342 -0.7783
   86MOL   C21832688   4.497   5.604   2.975 -0.1809 -0.1098  0.6024
   86MOL   H21932689   4.405   4.974   3.198 -0.7052 -0.5222  1.6570
   86MOL   H22032690   4.258   5.065   3.174 -0.0704 -1.7648 -0.6115
   86MOL   H22132691   4.527   5.185   3.107 -1.0217 -2.0093 -0.4015
   86MOL   H22232692   4.519   5.352   2.986  0.3119  0.8745 -0.3268
   86MOL   H22332693   4.295   5.545   2.977  0.4112 -0.2371 -1.4667
   86MOL   H22432694   4.290   5.434   2.759 -0.8184  0.1119  1.0622
   86MOL   H22532695   4.375   5.584   2.745  0.8252 -1.2618 -3.1661
   86MOL   H22632696   4.465   5.437   2.742  1.6577  1.3445  0.3711
   86MOL   H22732697   4.485   5.660   3.068  0.1451  1.7640 -0.4502
   86MOL   H22832698   4.507   5.688   2.906  0.8942 -1.4874 -0.9467
   86MOL   H22932699   4.594   5.554   2.976  0.1814  0.5189 -1.0263
   86MOL   C23032700   4.464   5.204   3.310 -0.1457  0.3310 -0.0354
   86MOL   C23132701   4.572   5.126   3.381 -0.1069  0.5568  0.2868
   86MOL   C23232702   4.699   5.112   3.304 -0.2558  0.3198 -0.3659
   86MOL   O23332703   4.743   5.207   3.244  0.1482 -0.0559  0.1856
   86MOL   N23432704   4.755   4.996   3.300  0.0732  0.0529 -0.0132
   86MOL   C23532705   4.889   4.971   3.240  0.2298  0.2914 -0.5559
   86MOL   C23632706   5.008   5.033   3.316  0.2377  0.3874 -0.0070
   86MOL   C23732707   4.910   4.818   3.220  0.1467 -0.5888 -0.2954
   86MOL   H23832708   4.371   5.190   3.365 -0.4204 -1.2053 -0.8830
   86MOL   H23932709   4.488   5.308   3.332 -0.1880 -0.0258  1.8448
   86MOL   H24032710   4.532   5.025   3.396  1.5877  0.0078  1.3084
   86MOL   H24132711   4.691   4.924   3.330 -1.5614  0.7864 -1.6552
   86MOL   H24232712   4.882   5.008   3.138 -1.7044 -0.5483 -0.7506
   86MOL   H24332713   5.000   5.142   3.308  1.5963  0.4378 -0.6969
   86MOL   H24432714   5.019   5.007   3.422  1.2016  1.6182  0.2131
   86MOL   H24532715   5.104   5.007   3.271  0.7015 -1.4652  1.9631
   86MOL   H24632716   4.836   4.767   3.159  0.3604 -2.1684  0.7287
   86MOL   H24732717   4.900   4.767   3.316 -0.2065  1.0347  0.5528
   86MOL   H24832718   5.011   4.792   3.187  0.5045 -3.9402  3.0118
   86MOL   C24932719   4.617   5.179   3.524 -0.4776  0.3159  0.0140
   86MOL   C25032720   4.514   5.190   3.640  0.1167  0.0451  0.5005
   86MOL   C25132721   4.401   5.294   3.612  0.2885  0.1217  0.4419
   86MOL   O25232722   4.289   5.258   3.649 -0.0964  0.0745 -0.0359
   86MOL   N25332723   4.432   5.414   3.554 -0.8477  0.4698 -0.9811
   86MOL   C25432724   4.342   5.526   3.535 -0.3061 -0.6351 -0.1883
   86MOL   C25532725   4.323   5.611   3.663  0.2554  0.8267  0.4368
   86MOL   C25632726   4.399   5.616   3.423 -0.7302 -0.0636 -0.4599
   86MOL   H25732727   4.664   5.275   3.502  3.5311 -1.3145  0.8848
   86MOL   H25832728   4.702   5.118   3.554 -1.3766 -0.7894  0.3167
   86MOL   H25932729   4.460   5.095   3.633 -3.1843  1.8871 -0.4453
   86MOL   H26032730   4.521   5.417   3.506  0.0890 -1.8872  0.5376
   86MOL   H26132731   4.249   5.483   3.500  0.8140 -0.4694 -3.5520
   86MOL   H26232732   4.419   5.657   3.688 -0.1839  1.4030  1.0495
   86MOL   H26332733   4.249   5.690   3.653 -2.5664 -2.0529 -2.8178
   86MOL   H26432734   4.282   5.551   3.744 -0.3885 -0.5473 -0.8713
   86MOL   H26532735   4.335   5.696   3.387 -2.2748 -0.1794  1.9312
   86MOL   H26632736   4.493   5.658   3.460 -1.3474  1.7521 -0.9319
   86MOL   H26732737   4.419   5.555   3.335 -0.9426 -2.0893  0.8546
   86MOL   C26832738   4.569   5.223   3.783 -0.1836 -0.1551  0.1555
   86MOL   C26932739   4.462   5.227   3.900 -0.6776  0.1715 -0.0077
   86MOL   C27032740   4.408   5.084   3.930 -0.0736 -0.4502  0.3540
   86MOL   O27132741   4.457   5.015   4.019 -0.0544 -0.8820  0.0506
   86MOL   N27232742   4.302   5.040   3.857 -0.2666  0.1327 -0.6107
   86MOL   C27332743   4.249   4.904   3.860  0.0311 -0.0221 -0.3397
   86MOL   C27432744   4.125   4.896   3.951 -0.9703 -0.1392  0.1299
   86MOL   C27532745   4.209   4.857   3.720  0.8664  0.2597  0.1918
   86MOL   H27632746   4.655   5.158   3.799  0.5682  0.9710  0.6971
   86MOL   H27732747   4.602   5.325   3.763  2.4893 -1.3606 -1.9349
   86MOL   H27832748   4.377   5.292   3.878 -0.2733  0.2961 -1.2768
   86MOL   H27932749   4.264   5.105   3.790 -2.2744 -0.1603  0.2289
   86MOL   H28032750   4.327   4.835   3.892  1.0023  0.6197 -1.3435
   86MOL   H28132751   4.154   4.907   4.056  0.9570  1.9403 -0.5734
   86MOL   H28232752   4.044   4.966   3.929 -0.1362  1.7429  2.7172
   86MOL   H28332753   4.085   4.796   3.937 -0.4840  0.1494 -3.6487
   86MOL   H28432754   4.145   4.932   3.674  0.2214 -0.4202 -0.0278
   86MOL   H28532755   4.301   4.837   3.665  1.4094  0.3198  1.0710
   86MOL   H28632756   4.155   4.763   3.710  0.4562  0.7728 -2.7457
   86MOL   C28732757   4.526   5.304   4.019 -0.7613 -0.0253  0.0308
   86MOL   C28832758   4.649   5.233   4.094 -0.2555  0.1048 -0.0976
   86MOL   C28932759   4.606   5.207   4.240 -0.2221 -0.2810 -0.1858
   86MOL   O29032760   4.620   5.296   4.327  0.4985 -0.3862  0.5010
   86MOL   N29132761   4.538   5.094   4.264  0.4368 -0.0571 -0.2485
   86MOL   C29232762   4.447   5.086   4.376 -0.6654 -0.0909 -0.0811
   86MOL   C29332763   4.302   5.060   4.317 -0.6165  0.2524 -0.5393
   86MOL   C29432764   4.496   4.988   4.485 -0.5077 -0.0234  0.7460
   86MOL   H29532765   4.560   5.391   3.963 -2.6745 -0.2705 -1.5367
   86MOL   H29632766   4.447   5.328   4.090 -0.2978  1.5523  0.0458
   86MOL   H29732767   4.665   5.135   4.049 -0.4798  0.6700 -1.4223
   86MOL   H29832768   4.538   5.028   4.187 -1.2047  0.3341 -0.5999
   86MOL   H29932769   4.444   5.182   4.428  0.1023 -0.1850  0.1529
   86MOL   H30032770   4.229   5.065   4.397  0.3240 -0.3535  0.3686
   86MOL   H30132771   4.277   5.142   4.249  3.1497 -0.1722 -2.6110
   86MOL   H30232772   4.284   4.964   4.269  0.1077 -0.3023  0.2804
   86MOL   H30332773   4.436   5.002   4.575 -2.5513  0.4847 -0.6551
   86MOL   H30432774   4.487   4.882   4.463  1.7591  0.1555 -1.2603
   86MOL   H30532775   4.599   5.014   4.508 -0.8292  1.3161  0.7556
   86MOL   C30632776   4.782   5.312   4.092  0.0858  1.0143 -0.6454
   86MOL   C30732777   4.900   5.219   4.042 -0.9667 -0.3815 -0.1406
   86MOL   C30832778   4.925   5.101   4.139  0.4110  0.3770 -0.4950
   86MOL   O30932779   4.946   5.121   4.257  0.7414  0.0402 -0.3509
   86MOL   N31032780   4.904   4.982   4.092 -0.0825  0.0829 -0.2454
   86MOL   C31132781   4.904   4.868   4.176  1.0586  0.1235 -0.3488
   86MOL   C31232782   4.772   4.840   4.244  0.4188 -0.2263  0.2430
   86MOL   C31332783   4.921   4.740   4.086  0.1036 -0.2618 -0.3494
   86MOL   H31432784   4.779   5.383   4.009 -0.0342 -0.2015 -1.7092
   86MOL   H31532785   4.808   5.361   4.185  0.1874  1.4520 -0.9054
   86MOL   H31632786   4.857   5.165   3.958 -0.3287 -0.8931 -0.1383
   86MOL   H31732787   4.879   4.968   3.995 -1.0064  0.8761 -0.1312
   86MOL   H31832788   4.987   4.866   4.247  1.9048 -4.8770 -1.2765
   86MOL   H31932789   4.764   4.901   4.333 -3.7534  0.1878 -0.2936
   86MOL   H32032790   4.763   4.738   4.282 -2.3008 -0.0830  0.0768
   86MOL   H32132791   4.680   4.859   4.189  1.5253  2.9628 -0.5917
   86MOL   H32232792   4.998   4.752   4.010 -0.2892  1.1489 -0.5407
   86MOL   H32332793   4.825   4.717   4.038 -0.6228 -1.7897  1.7719
   86MOL   H32432794   4.932   4.652   4.149  1.5972  0.3011  0.2025
   86MOL   C32532795   5.027   5.292   4.010 -0.4356  0.0886  0.6711
   86MOL   C32632796   5.063   5.296   3.853  0.4053  0.1491 -0.3417
   86MOL   C32732797   5.096   5.154   3.797 -0.4715  0.2830  0.3232
   86MOL   O32832798   5.006   5.072   3.767  0.1253 -0.5255  0.2313
   86MOL   N32932799   5.224   5.115   3.797 -0.0274 -0.2966 -1.2910
   86MOL   C33032800   5.266   4.981   3.768 -0.3253  0.5525  0.1485
   86MOL   C33132801   5.274   4.904   3.900 -0.1923  0.6158  0.4814
   86MOL   C33232802   5.388   4.974   3.679  0.2999  0.4077  0.2008
   86MOL   H33332803   5.109   5.235   4.052 -0.1485 -1.6669 -2.2007
   86MOL   H33432804   5.033   5.392   4.054  0.2797  1.9104 -3.3263
   86MOL   H33532805   5.163   5.339   3.845  1.4317 -2.1499 -0.2974
   86MOL   H33632806   5.287   5.181   3.839 -1.4941 -0.5404  1.4097
   86MOL   H33732807   5.187   4.924   3.719  1.6284 -3.9026  1.8285
   86MOL   H33832808   5.272   4.798   3.875 -1.9152  1.3559 -2.9156
   86MOL   H33932809   5.360   4.937   3.958 -1.5638  1.8060  1.9113
   86MOL   H34032810   5.181   4.919   3.955 -0.6125  4.1034 -1.0369
   86MOL   H34132811   5.362   5.024   3.586  0.4860  3.0552  1.5374
   86MOL   H34232812   5.416   4.869   3.672  0.0033  0.3312  0.1560
   86MOL   H34332813   5.481   5.027   3.701  0.2413  0.9206 -0.7396
   86MOL   C34432814   4.957   5.381   3.772 -0.1120 -0.3148 -0.0033
   86MOL   C34532815   5.005   5.443   3.638  0.4213  0.8186 -0.4075
   86MOL   C34632816   4.891   5.481   3.537  0.0173 -0.6329 -0.8094
   86MOL   O34732817   4.773   5.502   3.574 -0.3490 -0.1906  0.5919
   86MOL   N34832818   4.936   5.497   3.406  0.4643 -0.4094  0.9398
   86MOL   C34932819   4.864   5.568   3.304 -0.3163 -0.4122  0.5484
   86MOL   C35032820   4.855   5.712   3.347  0.2788  0.2452 -0.0694
   86MOL   C35132821   4.923   5.554   3.163 -0.0314  0.5368 -0.3617
   86MOL   H35232822   4.922   5.464   3.834 -2.5694  0.7229 -2.6568
   86MOL   H35332823   4.871   5.318   3.747 -0.5599 -0.2734  1.3683
   86MOL   H35432824   5.066   5.362   3.597 -0.5152 -0.3868  0.5638
   86MOL   H35532825   5.031   5.481   3.379 -0.6959 -1.2168 -2.9601
   86MOL   H35632826   4.762   5.531   3.296 -0.8655  0.9778  0.9122
   86MOL   H35732827   4.823   5.775   3.263  0.4156  4.4380  2.8679
   86MOL   H35832828   4.780   5.720   3.425  1.3481  1.2793  0.8499
   86MOL   H35932829   4.950   5.752   3.380  0.4894 -0.1651 -0.1754
   86MOL   H36032830   4.936   5.450   3.132 -2.0500 -0.2638  1.3894
   86MOL   H36132831   4.864   5.599   3.084  0.8759  1.5177 -0.4959
   86MOL   H36232832   5.026   5.590   3.159  0.1674 -0.0598 -0.6314
   86MOL   C36332833   5.099   5.567   3.656  0.1771 -0.6407  0.0740
   86MOL   C36432834   5.029   5.689   3.711  0.0131 -0.3252  0.0600
   86MOL   C36532835   5.116   5.818   3.684  0.7128 -0.4787 -0.2622
   86MOL   O36632836   5.194   5.826   3.593  0.4241 -0.0293 -0.3148
   86MOL   N36732837   5.115   5.909   3.783 -0.2528 -0.1047 -0.2318
   86MOL   C36832838   5.165   6.041   3.785 -0.0501  0.6442 -0.4419
   86MOL   C36932839   5.083   6.145   3.702  0.0234  0.3267  0.6303
   86MOL   C37032840   5.194   6.081   3.932 -0.0492 -0.9075  0.2616
   86MOL   H37132841   5.134   5.594   3.556 -1.7698  1.9226  0.0441
   86MOL   H37232842   5.185   5.541   3.718  1.7945  0.0644 -1.7988
   86MOL   H37332843   5.011   5.684   3.819  1.1433  0.8438  0.3105
   86MOL   H37432844   5.046   5.888   3.853 -1.0438  0.8475 -0.7132
   86MOL   H37532845   5.257   6.038   3.728 -0.2446  3.1954 -0.9313
   86MOL   H37632846   5.141   6.226   3.659 -2.1426  1.7909  0.3650
   86MOL   H37732847   5.023   6.104   3.620 -1.1747 -0.1305  1.7198
   86MOL   H37832848   5.010   6.198   3.764 -1.7347 -1.2812  0.0130
   86MOL   H37932849   5.105   6.114   3.985 -0.2186  1.7027 -1.5557
   86MOL   H38032850   5.246   5.996   3.976 -0.1597 -0.2988  1.6127
   86MOL   H38132851   5.274   6.154   3.948 -0.9603  0.3775 -0.9792
   86MOL   H38232852   4.928   5.700   3.670  0.2981 -0.9023 -0.8066
   87MOL     C132853   6.326   0.320   2.829 -0.7132 -0.0050 -0.3321
   87MOL     C232854   6.210   0.309   2.928 -0.6660 -0.2907  0.7040
   87MOL     C332855   6.137   0.180   2.911  0.1205  0.0582  0.5227
   87MOL     O432856   6.194   0.083   2.970 -0.4999  0.2048 -0.0250
   87MOL     N532857   6.022   0.175   2.843 -0.2121 -0.4065  0.0251
   87MOL     C632858   5.935   0.056   2.830 -0.3754 -0.3418 -0.0382
   87MOL     C732859   5.790   0.086   2.866 -0.0688  0.0557  0.2077
   87MOL     C832860   5.950   7.833   2.691 -0.1618  0.1916 -1.0318
   87MOL     H932861   6.400   0.243   2.852 -1.2928  0.2939  2.8157
   87MOL    H1032862   6.373   0.418   2.842  1.6041 -1.2597  1.2865
   87MOL    H1132863   6.140   0.390   2.911  0.6085  0.2422 -2.4664
   87MOL    H1232864   5.977   0.262   2.819 -1.2829 -0.6637  1.0553
   87MOL    H1332865   5.964   7.815   2.901 -2.7978  0.7592  2.2736
   87MOL    H1432866   5.728   7.834   2.852  0.5723 -0.2417 -0.8181
   87MOL    H1532867   5.765   0.177   2.811  0.3590 -0.8089 -1.4512
   87MOL    H1632868   5.783   0.117   2.970  1.8054  1.4739 -0.0597
   87MOL    H1732869   5.920   0.062   2.608 -1.4737 -0.1707 -0.8558
   87MOL    H1832870   6.053   7.805   2.667 -0.5465 -0.0474 -2.4623
   87MOL    H1932871   5.884   7.747   2.680  2.1614 -1.7273 -0.4895
   87MOL    H2032872   6.290   0.323   2.726  0.3548  0.0611 -0.7162
   87MOL    C2132873   6.249   0.331   3.080 -0.1079  0.0488  0.4814
   87MOL    C2232874   6.143   0.311   3.195 -0.0136 -0.6171  0.3720
   87MOL    C2332875   6.027   0.407   3.188 -0.0702 -0.5193 -0.0209
   87MOL    O2432876   5.924   0.364   3.139 -0.0422 -0.0899  0.4035
   87MOL    N2532877   6.049   0.531   3.230  0.0029 -0.5634  0.2773
   87MOL    C2632878   5.954   0.637   3.209  0.0299 -0.2041  0.4074
   87MOL    C2732879   6.002   0.734   3.109 -0.4688  0.0494  0.3755
   87MOL    C2832880   5.932   0.711   3.344 -0.5036  0.5684 -0.8968
   87MOL    H2932881   6.291   0.432   3.086  1.3434 -0.4659 -0.6018
   87MOL    H3032882   6.335   0.267   3.099  0.5719  0.7491 -0.2128
   87MOL    H3132883   6.102   0.215   3.163  1.1867 -0.3246 -2.1558
   87MOL    H3232884   6.139   0.554   3.270  0.8183 -0.3387 -1.6168
   87MOL    H3332885   5.860   0.589   3.179  0.6665 -0.1338 -1.7884
   87MOL    H3432886   5.921   0.795   3.068 -0.3068 -1.7036 -2.6854
   87MOL    H3532887   6.039   0.684   3.020  1.5364 -2.1381  2.3599
   87MOL    H3632888   6.076   0.808   3.141  0.0747 -0.1332 -0.4595
   87MOL    H3732889   5.837   0.764   3.336 -0.5743  0.5889  0.0756
   87MOL    H3832890   5.924   0.650   3.434  2.3158  0.0579 -0.9320
   87MOL    H3932891   6.021   0.773   3.357 -0.9178  0.5633  2.2140
   87MOL    C4032892   6.204   0.287   3.337  0.5273 -0.0323 -0.1295
   87MOL    C4132893   6.106   0.210   3.426 -0.1416 -0.0713  0.8827
   87MOL    C4232894   6.028   0.300   3.525 -0.4399 -0.2547 -0.6035
   87MOL    O4332895   6.098   0.354   3.609 -0.2843 -0.5008 -0.4060
   87MOL    N4432896   5.898   0.306   3.525  0.2138  0.1721  0.4334
   87MOL    C4532897   5.814   0.404   3.595 -0.9921  0.7726 -0.0633
   87MOL    C4632898   5.695   0.446   3.508  0.5470 -0.2193 -0.2429
   87MOL    C4732899   5.763   0.340   3.725  0.7875  0.0962  0.4594
   87MOL    H4832900   6.211   0.389   3.375 -1.1965 -0.8753  2.5573
   87MOL    H4932901   6.307   0.253   3.325  0.6193  0.4713 -0.8687
   87MOL    H5032902   6.024   0.172   3.365  0.3806 -3.1772  2.0394
   87MOL    H5132903   5.859   0.244   3.455 -1.9053 -0.1490  1.8548
   87MOL    H5232904   5.881   0.488   3.615 -3.4801  2.8824 -0.3906
   87MOL    H5332905   5.641   0.371   3.451 -1.4707 -1.3850  3.0812
   87MOL    H5432906   5.732   0.523   3.440 -1.2042 -2.1160 -3.4676
   87MOL    H5532907   5.619   0.501   3.563  1.6544  0.3305  0.7673
   87MOL    H5632908   5.686   0.401   3.774 -0.9803  0.7518 -2.9989
   87MOL    H5732909   5.846   0.321   3.793 -0.5292 -1.4139  1.6781
   87MOL    H5832910   5.711   0.245   3.717 -1.4683  1.5712 -3.9272
   87MOL    C5932911   6.174   0.083   3.481  0.7451  0.4006  0.2057
   87MOL    C6032912   6.093   7.786   3.475  0.2336 -0.5977  0.1304
   87MOL    C6132913   5.946   7.803   3.526 -0.0255  1.4778  0.5299
   87MOL    O6232914   5.927   0.008   3.642 -0.4959  0.2600  0.5499
   87MOL    N6332915   5.847   7.763   3.440 -0.1772  0.3446 -0.5065
   87MOL    C6432916   5.702   7.792   3.433  0.0426 -0.0613 -0.3534
   87MOL    C6532917   5.657   0.111   3.434 -0.0158  1.1829  0.2748
   87MOL    C6632918   5.636   7.708   3.319  0.3742 -0.7001 -0.1810
   87MOL    H6732919   6.271   0.071   3.432  2.5845  2.9336  3.0135
   87MOL    H6832920   6.203   0.104   3.584  1.2123 -0.1413  0.1913
   87MOL    H6932921   6.089   7.764   3.368 -0.2188  0.8581 -0.1636
   87MOL    H7032922   5.877   7.738   3.347  2.1493  0.3160  0.2253
   87MOL    H7132923   5.658   7.740   3.518 -0.5690 -2.8656 -2.3005
   87MOL    H7232924   5.699   0.160   3.346  0.7962  0.4412  0.2316
   87MOL    H7332925   5.551   0.120   3.415  0.1919 -0.8493 -2.1973
   87MOL    H7432926   5.688   0.157   3.528  3.2736 -0.1923 -0.0635
   87MOL    H7532927   5.532   7.742   3.316  0.2515 -1.1725 -1.2434
   87MOL    H7632928   5.665   7.727   3.216 -1.3638 -0.1547 -0.5955
   87MOL    H7732929   5.627   7.601   3.336 -0.1114 -0.7636 -0.8335
   87MOL    C7832930   6.176   7.666   3.536 -0.0668 -0.5348  0.0113
   87MOL    C7932931   6.110   7.524   3.517  0.1003  0.6608 -0.4299
   87MOL    C8032932   6.103   7.483   3.363  0.2008  0.6023 -0.5200
   87MOL    O8132933   6.211   7.467   3.307  0.9258  0.0639  0.7400
   87MOL    N8232934   5.983   7.453   3.311  0.3152 -0.0920 -0.2346
   87MOL    C8332935   5.970   7.409   3.170  1.0736 -0.1748  0.0438
   87MOL    C8432936   5.958   7.258   3.174  0.0397 -0.5161 -0.6066
   87MOL    C8532937   5.850   7.478   3.105  0.5035 -0.3309  0.5984
   87MOL    H8632938   6.154   7.674   3.643 -1.1270 -2.2195 -0.0567
   87MOL    H8732939   6.279   7.670   3.501  0.6069 -0.8118  1.9008
   87MOL    H8832940   6.007   7.533   3.550 -0.0561  0.9304 -0.9765
   87MOL    H8932941   5.904   7.471   3.371  2.3010  3.3815  1.5058
   87MOL    H9032942   6.063   7.440   3.123  0.3218  3.2812  0.7101
   87MOL    H9132943   5.884   7.228   3.248 -0.0840  1.5061  0.1103
   87MOL    H9232944   5.941   7.208   3.078 -0.0945 -2.5740  0.4594
   87MOL    H9332945   6.050   7.222   3.219 -0.9386 -0.9644  1.0608
   87MOL    H9432946   5.870   7.574   3.059  0.3548 -0.5636  0.0424
   87MOL    H9532947   5.760   7.478   3.166 -0.6160  3.4487 -0.9672
   87MOL    H9632948   5.839   7.426   3.010  0.0048 -2.0240  1.5579
   87MOL    C9732949   6.172   7.410   3.601  0.4946  0.4125 -0.2221
   87MOL    C9832950   6.116   7.266   3.598 -0.3193 -0.2041 -0.0786
   87MOL    C9932951   5.966   7.260   3.627 -0.3996  0.0950 -0.5303
   87MOL   O10032952   5.928   7.291   3.745 -0.4478 -0.1411  0.4376
   87MOL   N10132953   5.890   7.240   3.523  0.0390 -0.1969 -0.3033
   87MOL   C10232954   5.743   7.241   3.531  1.0552  0.1014 -0.0192
   87MOL   C10332955   5.696   7.356   3.452 -0.0447 -0.1130 -0.4515
   87MOL   C10432956   5.683   7.107   3.470  0.2317  0.3574  0.1977
   87MOL   H10532957   6.186   7.441   3.705  0.3468  0.6524 -0.2754
   87MOL   H10632958   6.276   7.405   3.569  0.6440  0.9141  0.1746
   87MOL   H10732959   6.122   7.226   3.497  0.0679  0.3257 -0.2670
   87MOL   H10832960   5.935   7.214   3.436 -3.3999 -0.5343 -2.1015
   87MOL   H10932961   5.707   7.251   3.633  1.1888 -1.6630  0.2043
   87MOL   H11032962   5.589   7.357   3.432 -0.5071  0.3610  1.9245
   87MOL   H11132963   5.700   7.442   3.519 -1.2104  1.1759 -1.9872
   87MOL   H11232964   5.753   7.377   3.361 -1.3923  3.0606 -0.6116
   87MOL   H11332965   5.746   7.026   3.509 -0.8562 -1.5430 -1.8781
   87MOL   H11432966   5.695   7.091   3.363 -1.8768  1.0205 -0.1493
   87MOL   H11532967   5.584   7.086   3.510  0.1525 -2.4728 -1.3261
   87MOL   C11632968   6.188   7.170   3.694  0.5127 -0.0068  0.4747
   87MOL   C11732969   6.149   7.023   3.683  0.1694  0.6065 -0.7322
   87MOL   C11832970   6.191   6.954   3.808  0.0950  0.4246 -0.8233
   87MOL   O11932971   6.296   6.894   3.818  0.4263  0.2396 -0.0792
   87MOL   N12032972   6.105   6.956   3.900  0.7468 -0.5002 -0.6632
   87MOL   C12132973   6.117   6.922   4.042 -0.3655  0.8870 -0.5746
   87MOL   C12232974   6.105   7.053   4.124  0.1473 -0.1737  0.4072
   87MOL   C12332975   6.027   6.799   4.082 -0.3123 -0.3613 -0.0484
   87MOL   H12432976   6.163   7.199   3.796 -0.6407 -1.4994  0.6367
   87MOL   H12532977   6.296   7.181   3.690  0.3544  0.9653 -1.9821
   87MOL   H12632978   6.041   7.012   3.690  0.2415  0.4620  0.2337
   87MOL   H12732979   6.012   6.991   3.879  0.6842 -0.4867 -0.3672
   87MOL   H12832980   6.220   6.887   4.053 -0.5901  0.8474  1.5749
   87MOL   H12932981   6.122   7.027   4.229  2.5413 -1.4322 -0.2633
   87MOL   H13032982   6.004   7.095   4.118  0.3508  0.0156 -2.3038
   87MOL   H13132983   6.184   7.124   4.102  0.7703 -0.7522  0.7331
   87MOL   H13232984   6.047   6.758   4.181 -0.8007  1.5986  0.8955
   87MOL   H13332985   5.921   6.821   4.088  0.0488  1.1905  0.8093
   87MOL   H13432986   6.063   6.722   4.013 -1.4085 -0.3249 -0.6742
   87MOL   C13532987   6.196   6.962   3.551  0.1075  0.0152  0.7010
   87MOL   C13632988   6.105   6.840   3.497  0.1001  0.1622  0.3139
   87MOL   C13732989   5.983   6.875   3.402  0.2024 -0.1870  0.6343
   87MOL   O13832990   5.966   6.991   3.361  0.4664 -0.7650  0.0926
   87MOL   N13932991   5.904   6.779   3.364 -0.3283  0.4939  0.1158
   87MOL   C14032992   5.774   6.788   3.297 -0.3474 -0.3162  0.4576
   87MOL   C14132993   5.715   6.647   3.297 -1.4551 -0.2804  0.1563
   87MOL   C14232994   5.789   6.839   3.148 -0.4136 -0.2400 -0.3656
   87MOL   H14332995   6.301   6.933   3.562  0.9530  1.4157 -2.7759
   87MOL   H14432996   6.201   7.040   3.474  0.5781  0.2476  0.9634
   87MOL   H14532997   6.057   6.806   3.589  1.0103 -0.0315  0.7311
   87MOL   H14632998   5.925   6.688   3.401  1.4050  0.3284 -1.2321
   87MOL   H14732999   5.712   6.852   3.360  0.7517 -0.4469  1.6931
   87MOL   H14833000   5.620   6.658   3.245 -1.3859 -0.2291  0.0422
   87MOL   H14933001   5.777   6.587   3.230  0.1091  1.9749 -0.4888
   87MOL   H15033002   5.711   6.597   3.394 -0.9103  0.2239  0.4458
   87MOL   H15133003   5.787   6.948   3.148 -0.9415 -0.2456 -0.5602
   87MOL   H15233004   5.707   6.812   3.081 -0.6633 -0.4335  0.0161
   87MOL   H15333005   5.875   6.804   3.092 -0.7097 -1.6699  0.0556
   87MOL   C15433006   6.200   6.730   3.437  0.0835  0.1170 -0.2448
   87MOL   C15533007   6.292   6.663   3.550 -0.3322  0.1051 -0.4658
   87MOL   C15633008   6.435   6.709   3.556 -0.0731  0.5485  0.1112
   87MOL   O15733009   6.503   6.693   3.451 -0.1452  0.0340 -0.6292
   87MOL   N15833010   6.487   6.758   3.671  0.7015  0.2616  0.3524
   87MOL   C15933011   6.630   6.773   3.704 -0.2524 -0.0529 -0.1262
   87MOL   C16033012   6.698   6.633   3.698  0.1014  0.1536  0.6015
   87MOL   C16133013   6.637   6.841   3.840  0.8562  0.0969  0.0299
   87MOL   H16233014   6.275   6.779   3.374  1.9691 -2.1550  0.1538
   87MOL   H16333015   6.155   6.658   3.369  1.0569  0.2394 -1.0353
   87MOL   H16433016   6.243   6.693   3.642 -0.1092  1.1997 -0.7051
   87MOL   H16533017   6.425   6.798   3.740 -0.7790 -1.7368  0.2059
   87MOL   H16633018   6.676   6.829   3.623 -0.2143  0.6588  0.3804
   87MOL   H16733019   6.678   6.578   3.607 -1.9672  2.1267 -0.1725
   87MOL   H16833020   6.807   6.645   3.701  0.2638 -1.0910 -0.0793
   87MOL   H16933021   6.659   6.570   3.778 -0.0189 -0.6908 -0.1252
   87MOL   H17033022   6.729   6.889   3.874  0.9116  0.4562 -0.6186
   87MOL   H17133023   6.602   6.779   3.922 -0.1633 -0.0330 -0.4884
   87MOL   H17233024   6.571   6.928   3.845  0.3533 -0.3161  0.4676
   87MOL   C17333025   6.287   6.506   3.531  0.0517  0.2425 -0.0596
   87MOL   C17433026   6.372   6.425   3.636 -0.6835 -0.0018 -0.0042
   87MOL   C17533027   6.334   6.450   3.783  0.1505 -0.1449 -0.3363
   87MOL   O17633028   6.224   6.413   3.821  0.2158 -0.0433  0.8401
   87MOL   N17733029   6.419   6.512   3.861  0.1226  0.7474 -0.0851
   87MOL   C17833030   6.423   6.519   4.002 -0.1388  0.2622 -0.5580
   87MOL   C17933031   6.349   6.647   4.056  0.3386 -0.0502  0.1498
   87MOL   C18033032   6.568   6.500   4.053  0.4384  0.7172 -0.1665
   87MOL   H18133033   6.316   6.470   3.432 -0.7004  0.5509 -0.3952
   87MOL   H18233034   6.179   6.491   3.528  0.0856  0.2290 -2.9288
   87MOL   H18333035   6.474   6.457   3.615 -0.6247  0.5184  1.0421
   87MOL   H18433036   6.494   6.560   3.813 -0.9436  1.3430 -1.1679
   87MOL   H18533037   6.381   6.434   4.056  2.4680  0.0226  1.2040
   87MOL   H18633038   6.348   6.717   3.972 -0.7120 -1.2511 -0.8753
   87MOL   H18733039   6.393   6.693   4.144 -2.6864  0.7452  1.2988
   87MOL   H18833040   6.250   6.618   4.091 -0.4302  0.1493 -1.7703
   87MOL   H18933041   6.558   6.531   4.157 -2.1266 -1.7530  0.3813
   87MOL   H19033042   6.649   6.546   3.997  2.3172  0.0550  1.9419
   87MOL   H19133043   6.602   6.396   4.058  2.2938  1.2078 -1.7980
   87MOL   C19233044   6.366   6.267   3.597  0.0411 -0.1619 -0.3421
   87MOL   C19333045   6.457   6.176   3.679  0.5519  0.5015  0.6315
   87MOL   C19433046   6.600   6.192   3.635 -0.4999 -0.5123  0.4675
   87MOL   O19533047   6.625   6.192   3.516  0.4941  0.2173 -0.1927
   87MOL   N19633048   6.689   6.214   3.734  0.7760 -0.1874 -0.2715
   87MOL   C19733049   6.836   6.214   3.738 -0.7789 -0.4191  0.4688
   87MOL   C19833050   6.895   6.301   3.845  0.3791  0.4242  0.3239
   87MOL   C19933051   6.890   6.066   3.753  0.0336 -0.1520  0.0797
   87MOL   H20033052   6.395   6.276   3.493  0.0819  1.9840 -0.1630
   87MOL   H20133053   6.262   6.240   3.614  0.2115 -1.5159 -1.4203
   87MOL   H20233054   6.449   6.211   3.782  1.0403 -0.0348  0.8582
   87MOL   H20333055   6.643   6.228   3.823 -1.0330  0.0170 -1.2184
   87MOL   H20433056   6.871   6.250   3.641 -0.1078  1.9282  1.5471
   87MOL   H20533057   6.870   6.276   3.948  3.2160  0.0049  0.9673
   87MOL   H20633058   6.875   6.408   3.834  0.0348  0.4267  0.9372
   87MOL   H20733059   7.003   6.285   3.851  0.1582 -1.0293  0.5774
   87MOL   H20833060   6.849   5.999   3.678 -0.7665  1.7341 -1.2080
   87MOL   H20933061   6.863   6.024   3.850 -0.3988  0.0964  0.0711
   87MOL   H21033062   6.997   6.060   3.737 -0.3010 -0.5728 -2.1410
   87MOL   C21133063   6.406   6.031   3.657 -0.0820 -0.0560  0.0718
   87MOL   C21233064   6.484   5.926   3.747 -0.5243 -0.5164  0.5090
   87MOL   C21333065   6.472   5.943   3.900 -1.0086 -0.4505  0.5042
   87MOL   O21433066   6.369   5.980   3.955  0.4270  0.4204  0.0928
   87MOL   N21533067   6.584   5.921   3.966  0.3414 -0.5866  0.1182
   87MOL   C21633068   6.609   5.944   4.108  0.4345  0.3120  0.4318
   87MOL   C21733069   6.662   6.082   4.137 -0.0378 -0.7917  0.2251
   87MOL   C21833070   6.710   5.849   4.161  0.1532  0.4867  0.2744
   87MOL   H21933071   6.413   6.009   3.551  0.6301  0.4830  0.0006
   87MOL   H22033072   6.300   6.031   3.681 -0.4194 -2.3029 -1.2640
   87MOL   H22133073   6.589   5.933   3.717 -0.9516  0.7355 -0.7631
   87MOL   H22233074   6.658   5.866   3.924  0.9614 -0.8223  1.4718
   87MOL   H22333075   6.513   5.930   4.157  1.8256 -1.7704  2.7071
   87MOL   H22433076   6.759   6.099   4.089  0.7264  1.2726  2.4157
   87MOL   H22533077   6.601   6.163   4.098  0.4225 -0.0560  1.0278
   87MOL   H22633078   6.670   6.108   4.242 -4.5554 -0.5640  0.5919
   87MOL   H22733079   6.796   5.842   4.094  0.4899  2.5169  0.4745
   87MOL   H22833080   6.672   5.746   4.161 -0.0847  0.5651 -1.0601
   87MOL   H22933081   6.731   5.878   4.264  0.7688 -1.0962  0.6176
   87MOL   C23033082   6.439   5.784   3.694 -0.0996 -0.2442  0.4264
   87MOL   C23133083   6.517   5.659   3.737 -0.1234  0.2685  0.4931
   87MOL   C23233084   6.660   5.654   3.685  0.2673 -0.8018 -0.2580
   87MOL   O23333085   6.741   5.718   3.758  0.0389  0.7901  0.3248
   87MOL   N23433086   6.692   5.590   3.574 -0.2821  0.3522 -0.4293
   87MOL   C23533087   6.825   5.545   3.539 -0.1626 -1.4614  0.1688
   87MOL   C23633088   6.862   5.413   3.612  0.1540 -0.1818  0.6889
   87MOL   C23733089   6.845   5.529   3.393  0.6540  0.0333 -0.1552
   87MOL   H23833090   6.441   5.772   3.585 -0.8027 -2.4909  0.6206
   87MOL   H23933091   6.334   5.788   3.725 -0.5959  1.2836 -1.3339
   87MOL   H24033092   6.476   5.576   3.680 -0.8312  1.2218 -0.3961
   87MOL   H24133093   6.617   5.555   3.516  0.4331 -1.6778 -0.1892
   87MOL   H24233094   6.896   5.621   3.570 -3.0053  0.8295  1.2651
   87MOL   H24333095   6.853   5.413   3.721 -1.2884 -0.9363  0.5882
   87MOL   H24433096   6.789   5.341   3.574  0.6445 -0.2839 -0.0713
   87MOL   H24533097   6.962   5.383   3.580  0.3608  0.8797  0.3499
   87MOL   H24633098   6.765   5.475   3.343  0.2524  0.2245  0.2839
   87MOL   H24733099   6.944   5.491   3.367  0.1322 -0.5868 -1.2702
   87MOL   H24833100   6.843   5.632   3.355  0.7332 -0.1099 -0.5552
   87MOL   C24933101   6.497   5.613   3.884  0.3768  0.5226  0.2402
   87MOL   C25033102   6.429   5.477   3.912  0.2095 -0.4014 -0.1917
   87MOL   C25133103   6.510   5.358   3.857  0.0888  0.1886 -0.0641
   87MOL   O25233104   6.523   5.346   3.739 -0.0702 -0.2271 -0.2266
   87MOL   N25333105   6.564   5.271   3.948 -0.2528  0.7330  0.1539
   87MOL   C25433106   6.621   5.132   3.933  0.2567 -0.7460  0.3115
   87MOL   C25533107   6.514   5.015   3.918 -0.2428 -1.0231 -0.8672
   87MOL   C25633108   6.737   5.141   3.829  0.2359 -0.6083  0.0987
   87MOL   H25733109   6.437   5.686   3.938  0.9555  0.8195  0.4880
   87MOL   H25833110   6.595   5.601   3.929 -0.0589  0.2999  1.1301
   87MOL   H25933111   6.426   5.470   4.020  0.0707  0.0341 -0.1664
   87MOL   H26033112   6.543   5.290   4.045 -0.8617  1.1369 -0.0507
   87MOL   H26133113   6.661   5.114   4.033 -1.2939 -1.7691  0.7573
   87MOL   H26233114   6.420   5.041   3.967  0.3684  0.1063 -0.2663
   87MOL   H26333115   6.499   4.990   3.813  0.6904 -1.3098 -0.9444
   87MOL   H26433116   6.555   4.927   3.968  3.5763  1.0180 -0.1897
   87MOL   H26533117   6.688   5.159   3.733 -1.3835  0.5631  1.1189
   87MOL   H26633118   6.805   5.220   3.859  0.4197 -0.7446  0.0402
   87MOL   H26733119   6.791   5.047   3.822 -1.5763 -1.6478 -0.3531
   87MOL   C26833120   6.283   5.483   3.864  0.5870  0.6941  0.0383
   87MOL   C26933121   6.201   5.351   3.885 -0.7506 -0.1402 -0.1280
   87MOL   C27033122   6.171   5.319   4.032  0.0664  0.6827  0.2633
   87MOL   O27133123   6.094   5.395   4.096 -0.1907  0.1524 -0.5232
   87MOL   N27233124   6.229   5.214   4.085  0.1087 -0.9980 -0.4661
   87MOL   C27333125   6.224   5.166   4.222 -0.3736  0.0909  0.1214
   87MOL   C27433126   6.113   5.068   4.253  0.3011 -0.7709 -0.6498
   87MOL   C27533127   6.361   5.101   4.252 -0.4185  0.4852 -0.1315
   87MOL   H27633128   6.232   5.560   3.923 -0.2625 -0.1370  0.4081
   87MOL   H27733129   6.293   5.520   3.762  1.9197  0.2286 -0.0075
   87MOL   H27833130   6.264   5.268   3.855  1.8946  1.4258  0.9293
   87MOL   H27933131   6.287   5.169   4.016 -1.5727  0.0120 -2.6031
   87MOL   H28033132   6.211   5.252   4.287 -0.5020 -1.0944  1.6741
   87MOL   H28133133   6.027   5.113   4.204 -1.4189 -2.9657  0.2783
   87MOL   H28233134   6.135   4.972   4.206  0.4992 -0.7803 -0.5398
   87MOL   H28333135   6.094   5.057   4.359  1.2092  2.0225 -0.1388
   87MOL   H28433136   6.363   5.057   4.352 -0.6496 -0.9623 -0.7479
   87MOL   H28533137   6.369   5.025   4.175  0.1639  2.5662 -2.1930
   87MOL   H28633138   6.447   5.166   4.238  0.2684 -0.4871 -0.4909
   87MOL   C28733139   6.081   5.349   3.787 -0.1501 -0.0954 -0.3163
   87MOL   C28833140   6.056   5.221   3.697  0.0731  0.0145 -0.2368
   87MOL   C28933141   6.025   5.103   3.787 -0.0174  0.4885  0.4995
   87MOL   O29033142   6.121   5.038   3.837 -0.2229 -0.1918  0.1622
   87MOL   N29133143   5.896   5.071   3.812 -0.5802  0.5579  0.4855
   87MOL   C29233144   5.849   4.993   3.926  0.3543  0.4781  0.2712
   87MOL   C29333145   5.695   4.992   3.917  0.9427  0.2744 -0.0514
   87MOL   C29433146   5.901   4.852   3.914 -0.4043  0.2557  0.6712
   87MOL   H29533147   5.984   5.352   3.838 -1.0337 -2.2457 -1.8203
   87MOL   H29633148   6.091   5.440   3.729  2.3626 -1.2863 -1.8117
   87MOL   H29733149   5.966   5.243   3.641 -2.2576 -2.3029  2.3958
   87MOL   H29833150   5.830   5.127   3.760 -2.5543 -0.1835  2.1110
   87MOL   H29933151   5.880   5.026   4.024  0.0500 -0.6200  0.7492
   87MOL   H30033152   5.653   4.941   3.830 -0.3020 -0.1351  0.7809
   87MOL   H30133153   5.651   4.942   4.003  1.2284  1.3541  0.7406
   87MOL   H30233154   5.647   5.089   3.917 -2.0330 -1.1133  2.6989
   87MOL   H30333155   5.856   4.799   3.998  0.6898 -1.2766  0.3147
   87MOL   H30433156   5.861   4.808   3.822 -1.3125 -0.0703  1.2135
   87MOL   H30533157   6.009   4.846   3.919 -0.5284 -1.0988  1.9831
   87MOL   C30633158   6.171   5.182   3.604  0.2063 -0.2061 -1.0497
   87MOL   C30733159   6.199   5.299   3.500  0.4168 -0.7029 -0.5078
   87MOL   C30833160   6.085   5.286   3.392 -0.4681 -0.2228 -0.2683
   87MOL   O30933161   6.094   5.190   3.310  0.2476 -0.1091 -0.2671
   87MOL   N31033162   6.004   5.390   3.378  0.1733  0.1472  0.4963
   87MOL   C31133163   5.913   5.404   3.268  0.6617  0.3754 -0.1912
   87MOL   C31233164   5.780   5.343   3.313  0.1892  0.7488  0.1438
   87MOL   C31333165   5.891   5.546   3.205 -0.5171  0.3922  0.1381
   87MOL   H31433166   6.264   5.163   3.659 -0.2136  0.3444 -0.1474
   87MOL   H31533167   6.142   5.091   3.551  0.8741 -1.2797  0.3891
   87MOL   H31633168   6.195   5.399   3.542  3.5241 -0.1446 -1.4380
   87MOL   H31733169   6.015   5.461   3.449  0.5423 -0.2996  0.8872
   87MOL   H31833170   5.945   5.344   3.183 -0.9986 -1.5440  0.4845
   87MOL   H31933171   5.699   5.364   3.242 -1.4981 -2.8299  0.8920
   87MOL   H32033172   5.753   5.383   3.410  0.3915 -2.1077  1.4262
   87MOL   H32133173   5.786   5.236   3.332 -2.2245  0.3226 -1.2439
   87MOL   H32233174   5.814   5.590   3.269 -1.6588  1.2118 -1.7367
   87MOL   H32333175   5.842   5.531   3.109 -0.7222  0.5641  0.2157
   87MOL   H32433176   5.973   5.617   3.205  0.7227 -1.0023 -0.9948
   87MOL   C32533177   6.345   5.282   3.444  0.1824  0.1747 -0.4907
   87MOL   C32633178   6.389   5.364   3.318 -0.0712 -0.0090 -0.4077
   87MOL   C32733179   6.372   5.517   3.324 -0.7833 -0.5081 -0.3757
   87MOL   O32833180   6.389   5.579   3.429 -0.1226 -0.2063 -0.7031
   87MOL   N32933181   6.353   5.583   3.215  0.6068  0.4415  0.3458
   87MOL   C33033182   6.357   5.734   3.203  0.1555 -0.3622 -0.2065
   87MOL   C33133183   6.224   5.790   3.237 -0.5841  0.7589  0.4683
   87MOL   C33233184   6.424   5.773   3.068  0.2897  0.3167  0.1910
   87MOL   H33333185   6.363   5.176   3.425  0.5173 -0.5841  3.5433
   87MOL   H33433186   6.411   5.302   3.529 -0.7611  1.7501 -0.1115
   87MOL   H33533187   6.323   5.346   3.234  0.7988 -0.0279 -1.1012
   87MOL   H33633188   6.347   5.526   3.131 -2.9959  2.5095 -0.9045
   87MOL   H33733189   6.423   5.765   3.284  0.7981 -2.4107  0.0746
   87MOL   H33833190   6.155   5.785   3.152  0.0140 -0.0468  0.0196
   87MOL   H33933191   6.176   5.742   3.322 -0.4098 -0.0139  0.1319
   87MOL   H34033192   6.224   5.898   3.252  0.1468  1.2483 -2.6387
   87MOL   H34133193   6.522   5.730   3.052 -0.0415 -1.2135  2.1315
   87MOL   H34233194   6.437   5.881   3.064 -0.0488  0.2787 -2.7562
   87MOL   H34333195   6.355   5.748   2.987  1.5256 -3.6016  0.2512
   87MOL   C34433196   6.537   5.338   3.281 -0.4627  0.3800  0.8060
   87MOL   C34533197   6.562   5.207   3.201  0.1813  0.1114 -0.2592
   87MOL   C34633198   6.456   5.203   3.087  0.7564 -0.1384  0.1416
   87MOL   O34733199   6.429   5.296   3.015 -0.3490  0.3450 -0.2151
   87MOL   N34833200   6.383   5.088   3.073  0.5005  0.4096 -0.6312
   87MOL   C34933201   6.274   5.062   2.975 -0.2516 -0.2673 -0.1779
   87MOL   C35033202   6.334   5.014   2.839 -0.8534  0.0739 -0.2951
   87MOL   C35133203   6.182   4.967   3.041 -0.2956  0.1586  0.2769
   87MOL   H35233204   6.606   5.331   3.364  2.8635  1.2130 -1.7551
   87MOL   H35333205   6.580   5.421   3.225  1.1498  0.2193  1.7906
   87MOL   H35433206   6.526   5.121   3.257 -0.3035  0.5623  0.1272
   87MOL   H35533207   6.420   5.004   3.115 -2.3174 -1.1301 -1.1283
   87MOL   H35633208   6.212   5.151   2.962  1.3543  0.9306  0.3047
   87MOL   H35733209   6.272   4.980   2.756  0.2519 -3.1193  0.1044
   87MOL   H35833210   6.390   5.098   2.798  0.5192  0.2742  1.9148
   87MOL   H35933211   6.403   4.932   2.858 -0.9368  0.1292  0.2430
   87MOL   H36033212   6.245   4.879   3.055  0.1140  0.2838 -0.7679
   87MOL   H36133213   6.135   5.007   3.131 -2.6359  0.3617 -0.9993
   87MOL   H36233214   6.100   4.945   2.973  1.6865  1.2137 -2.5219
   87MOL   C36333215   6.705   5.186   3.162 -0.5616  0.1460  0.5140
   87MOL   C36433216   6.744   5.080   3.055 -0.1573 -0.5163 -0.2509
   87MOL   C36533217   6.697   4.933   3.077 -0.0147 -0.0015  0.1022
   87MOL   O36633218   6.599   4.903   3.140 -0.1249  0.0810 -0.1218
   87MOL   N36733219   6.770   4.836   3.025  0.1408  0.2034 -0.6038
   87MOL   C36833220   6.759   4.689   3.049 -0.0655 -0.5819 -0.4345
   87MOL   C36933221   6.667   4.631   2.944 -0.1741  0.0419 -0.3568
   87MOL   C37033222   6.905   4.646   3.022  0.5269 -0.1371 -0.4250
   87MOL   H37133223   6.761   5.160   3.252  0.1972 -0.0807 -0.0129
   87MOL   H37233224   6.746   5.282   3.129 -0.3707 -0.9163 -2.5420
   87MOL   H37333225   6.852   5.088   3.051 -0.2031  0.2928 -0.0212
   87MOL   H37433226   6.852   4.865   2.973 -0.6614  1.1731 -1.3537
   87MOL   H37533227   6.719   4.681   3.150  1.1500  1.5258  0.2608
   87MOL   H37633228   6.630   4.534   2.978  0.3335  1.4172  4.3277
   87MOL   H37733229   6.578   4.691   2.928 -2.6746 -3.2883  0.4480
   87MOL   H37833230   6.714   4.620   2.846 -1.2183 -3.1951 -0.5464
   87MOL   H37933231   6.953   4.689   2.935  0.4205 -0.9090 -0.8666
   87MOL   H38033232   6.967   4.649   3.112 -0.5351 -0.5603  0.3411
   87MOL   H38133233   6.908   4.537   3.011  0.9311 -0.0189 -1.4680
   87MOL   H38233234   6.704   5.121   2.962  2.5824 -0.5495 -1.4865
   88MOL     C133235   2.688   0.431   4.501 -0.4732 -0.1163  0.0454
   88MOL     C233236   2.709   0.580   4.467  0.0403  0.0298  0.0277
   88MOL     C333237   2.853   0.612   4.511  0.2593 -0.2390 -0.1445
   88MOL     O433238   2.946   0.597   4.431  0.1255 -0.1745 -0.5152
   88MOL     N533239   2.867   0.665   4.629  1.0588 -0.1835 -0.4391
   88MOL     C633240   2.982   0.734   4.690 -0.0775 -0.6977 -0.3783
   88MOL     C733241   2.975   0.887   4.686  0.0184  0.5277 -0.2966
   88MOL     C833242   3.001   0.684   4.828 -0.7311 -0.2349  0.1599
   88MOL     H933243   2.747   0.358   4.445  0.6749  0.4564  0.4807
   88MOL    H1033244   2.582   0.415   4.484 -0.8522  3.1534 -1.1422
   88MOL    H1133245   2.640   0.650   4.514 -1.1809 -0.5010 -0.9521
   88MOL    H1233246   2.787   0.666   4.691  0.6447 -4.1076 -0.7620
   88MOL    H1333247   3.067   0.706   4.629  1.5436 -0.5327  1.7486
   88MOL    H1433248   3.044   0.934   4.756  0.3999 -2.5550  1.5150
   88MOL    H1533249   2.877   0.908   4.727  1.0477  1.5026  1.7827
   88MOL    H1633250   2.982   0.929   4.586 -1.6237 -0.4845 -0.8545
   88MOL    H1733251   2.931   0.737   4.893 -0.9484  1.4010 -1.3735
   88MOL    H1833252   2.992   0.576   4.833  0.2850 -0.2566  2.5843
   88MOL    H1933253   3.101   0.719   4.855 -0.3050  0.5488 -2.3202
   88MOL    H2033254   2.704   0.414   4.608 -2.7947  0.2208  0.4547
   88MOL    C2133255   2.677   0.599   4.314 -0.5611  0.0025  0.9237
   88MOL    C2233256   2.712   0.737   4.248 -0.4499  0.1035 -0.1322
   88MOL    C2333257   2.604   0.831   4.301 -0.6728 -0.0484 -0.0538
   88MOL    O2433258   2.488   0.830   4.270  0.7320 -0.5870  0.3224
   88MOL    N2533259   2.655   0.930   4.384  0.4945 -0.7869 -0.0757
   88MOL    C2633260   2.574   1.046   4.439 -0.0975  0.5951 -0.7565
   88MOL    C2733261   2.681   1.138   4.505  0.2792  0.2319  0.1266
   88MOL    C2833262   2.472   0.996   4.546  0.1424 -0.0944 -0.3658
   88MOL    H2933263   2.577   0.565   4.284  1.2248 -1.2415 -4.1201
   88MOL    H3033264   2.742   0.524   4.269  0.7145  0.4989  1.9390
   88MOL    H3133265   2.809   0.779   4.275 -1.1708  1.8163 -0.1452
   88MOL    H3233266   2.752   0.930   4.411  0.2860  0.2200  0.6812
   88MOL    H3333267   2.525   1.099   4.358 -1.5428  2.0568  1.0363
   88MOL    H3433268   2.753   1.184   4.438  0.2462 -0.8704 -0.6711
   88MOL    H3533269   2.730   1.099   4.594  1.4190 -0.3359 -0.7461
   88MOL    H3633270   2.617   1.215   4.548 -0.0941 -0.0001 -0.0118
   88MOL    H3733271   2.509   0.939   4.632 -0.8283 -0.0573  0.0881
   88MOL    H3833272   2.414   1.085   4.569 -0.4324 -1.0119  1.8679
   88MOL    H3933273   2.405   0.924   4.499 -1.3899 -0.2118  1.9064
   88MOL    C4033274   2.691   0.744   4.095 -0.1199  0.8221 -1.0001
   88MOL    C4133275   2.809   0.688   4.017  0.8647 -0.4247 -0.3942
   88MOL    C4233276   2.930   0.785   4.027 -0.2931 -0.5569 -0.3688
   88MOL    O4333277   2.916   0.906   4.002 -0.5056  0.3906 -0.0733
   88MOL    N4433278   3.043   0.734   4.081 -0.3744 -0.9380  0.1900
   88MOL    C4533279   3.149   0.816   4.130 -0.0739  0.4344 -0.3830
   88MOL    C4633280   3.184   0.787   4.275 -0.2532  0.0928  0.4512
   88MOL    C4733281   3.270   0.801   4.041 -0.5918  0.1989  0.1005
   88MOL    H4833282   2.664   0.841   4.053  0.0961  2.2919  2.1468
   88MOL    H4933283   2.599   0.692   4.068  0.6217 -0.8418 -0.3860
   88MOL    H5033284   2.831   0.594   4.068 -2.0201 -1.1104 -0.2987
   88MOL    H5133285   3.060   0.635   4.078  0.1734 -0.8837  1.1911
   88MOL    H5233286   3.113   0.918   4.128  0.5762  0.6655 -0.2553
   88MOL    H5333287   3.186   0.682   4.302  1.9511  0.5460  2.1543
   88MOL    H5433288   3.105   0.834   4.333 -0.2548 -1.1986  1.5329
   88MOL    H5533289   3.281   0.828   4.303 -0.1023 -0.1136  0.2315
   88MOL    H5633290   3.360   0.846   4.082 -0.3264 -2.6210  2.7283
   88MOL    H5733291   3.249   0.832   3.939 -0.6826  1.1579  0.4020
   88MOL    H5833292   3.299   0.697   4.047  1.8886  0.8035 -0.8370
   88MOL    C5933293   2.767   0.655   3.872  0.3092  0.1285  0.1126
   88MOL    C6033294   2.873   0.596   3.779  0.6415 -0.9189 -0.4021
   88MOL    C6133295   2.824   0.602   3.632 -0.2641  0.3006  0.1645
   88MOL    O6233296   2.720   0.537   3.605  0.2246 -0.4149 -1.1645
   88MOL    N6333297   2.879   0.680   3.546  0.0803 -0.5819  0.9107
   88MOL    C6433298   2.843   0.694   3.406 -0.0417  0.0872  0.4025
   88MOL    C6533299   2.729   0.799   3.383 -0.7687 -0.3929  0.5303
   88MOL    C6633300   2.967   0.725   3.327 -1.0397 -0.1620 -0.3359
   88MOL    H6733301   2.687   0.581   3.868 -0.4283  0.9567 -0.5626
   88MOL    H6833302   2.711   0.735   3.823 -0.2356 -1.2679 -1.6358
   88MOL    H6933303   2.957   0.663   3.796  0.2005  0.2566 -2.6942
   88MOL    H7033304   2.971   0.718   3.565  0.1052 -0.7768  1.1810
   88MOL    H7133305   2.796   0.604   3.367 -1.7183  0.4519  1.5447
   88MOL    H7233306   2.683   0.776   3.286 -0.7203  2.2677 -0.1847
   88MOL    H7333307   2.653   0.804   3.461  0.3491  1.0543  1.5421
   88MOL    H7433308   2.768   0.900   3.371 -1.0216 -0.4192 -0.5647
   88MOL    H7533309   3.017   0.819   3.348  1.0230 -1.4512  0.6707
   88MOL    H7633310   3.034   0.641   3.344 -0.1246  0.7440  0.5450
   88MOL    H7733311   2.954   0.719   3.219 -0.8965  0.2577 -0.3793
   88MOL    C7833312   2.906   0.458   3.818  0.6188  0.2532  0.0150
   88MOL    C7933313   3.019   0.379   3.738  0.0685 -0.4524  0.4055
   88MOL    C8033314   3.145   0.464   3.761 -0.0354 -0.1376 -0.0437
   88MOL    O8133315   3.173   0.496   3.879 -0.0391  0.0904  0.7754
   88MOL    N8233316   3.220   0.500   3.660 -0.6454 -0.1361  0.3910
   88MOL    C8333317   3.337   0.593   3.663  0.4358 -0.4442 -0.2880
   88MOL    C8433318   3.460   0.510   3.678  0.1866  0.6046  0.4218
   88MOL    C8533319   3.347   0.671   3.530  0.3900 -0.0749 -0.1374
   88MOL    H8633320   2.819   0.394   3.804 -0.5949  1.8413  0.1654
   88MOL    H8733321   2.907   0.442   3.926 -1.2604  0.0997  0.0353
   88MOL    H8833322   2.990   0.364   3.633  1.0462 -0.5026  0.1416
   88MOL    H8933323   3.186   0.475   3.568  1.6675 -1.1846 -0.2107
   88MOL    H9033324   3.330   0.657   3.751  1.3022 -1.3161  0.4382
   88MOL    H9133325   3.437   0.428   3.747 -0.8806  1.4919  1.1239
   88MOL    H9233326   3.494   0.467   3.584  0.2217 -0.4700  0.9156
   88MOL    H9333327   3.532   0.575   3.726 -0.1298  0.1310  1.5533
   88MOL    H9433328   3.413   0.757   3.540  0.3288 -0.1128  0.6053
   88MOL    H9533329   3.250   0.709   3.498  1.4003  2.5931 -0.1318
   88MOL    H9633330   3.383   0.606   3.451 -1.1382 -3.5225  1.8946
   88MOL    C9733331   3.034   0.239   3.790  0.6030 -0.2883 -0.4731
   88MOL    C9833332   3.157   0.163   3.737  0.3858 -0.7659 -0.4704
   88MOL    C9933333   3.137   0.131   3.589  0.9780  0.6925 -0.0797
   88MOL   O10033334   3.075   0.031   3.552  0.4424 -0.1606  0.3240
   88MOL   N10133335   3.198   0.218   3.505 -0.2682 -0.3848 -0.2756
   88MOL   C10233336   3.186   0.229   3.354 -0.2096 -0.2559  0.3168
   88MOL   C10333337   3.146   0.373   3.315  0.5157 -0.3837  0.1453
   88MOL   C10433338   3.309   0.173   3.288 -0.5704  0.3375 -0.1938
   88MOL   H10533339   2.946   0.181   3.764  0.3386 -0.3952  0.6138
   88MOL   H10633340   3.038   0.248   3.899  2.6967  1.3748 -0.6412
   88MOL   H10733341   3.248   0.224   3.739 -1.4971  2.3393 -3.7006
   88MOL   H10833342   3.246   0.293   3.553 -0.9992 -1.1219  1.6938
   88MOL   H10933343   3.106   0.158   3.334 -0.4052 -0.4493  1.6985
   88MOL   H11033344   3.064   0.409   3.378  2.7251  1.6095  1.9881
   88MOL   H11133345   3.238   0.432   3.312 -0.1812  0.6831 -0.9197
   88MOL   H11233346   3.105   0.376   3.214 -1.9336  0.4893  1.1312
   88MOL   H11333347   3.388   0.245   3.307 -0.8717 -0.2365  3.5703
   88MOL   H11433348   3.288   0.159   3.181  1.3194  0.4402 -0.5979
   88MOL   H11533349   3.330   0.078   3.338  3.4709  0.4054 -1.5459
   88MOL   C11633350   3.191   0.044   3.831 -0.5408 -0.5840 -0.6002
   88MOL   C11733351   3.230   0.068   3.980 -0.1283 -0.5924  0.5559
   88MOL   C11833352   3.296   0.205   4.013  0.6596  1.1594 -0.0311
   88MOL   O11933353   3.398   0.239   3.951  0.1491  0.5368 -0.6892
   88MOL   N12033354   3.246   0.286   4.110 -0.3780 -0.2362  0.2976
   88MOL   C12133355   3.130   0.272   4.194 -0.0276  0.0589  0.5139
   88MOL   C12233356   3.158   0.183   4.317 -0.2457 -0.7982 -0.2311
   88MOL   C12333357   3.070   0.410   4.231 -0.5816 -0.3536 -0.4626
   88MOL   H12433358   3.259   7.811   3.783  1.2394  1.2084 -0.7603
   88MOL   H12533359   3.097   7.827   3.844 -0.3168 -0.3289  2.5750
   88MOL   H12633360   3.139   0.065   4.040 -0.4146 -1.0474  0.0989
   88MOL   H12733361   3.295   0.374   4.113 -1.9212  0.6594  0.0947
   88MOL   H12833362   3.051   0.225   4.135  0.3509  0.8993 -0.6729
   88MOL   H12933363   3.061   0.160   4.362 -0.2001  0.9012  0.7496
   88MOL   H13033364   3.236   0.229   4.378  0.7861  0.9390 -2.7620
   88MOL   H13133365   3.197   0.090   4.275 -1.4219 -2.2330  1.7578
   88MOL   H13233366   3.131   0.451   4.312 -0.2862  3.2177 -2.4051
   88MOL   H13333367   3.071   0.489   4.156 -1.0766  2.7177  2.5908
   88MOL   H13433368   2.968   0.399   4.270 -0.4047 -1.7398 -0.3754
   88MOL   C13533369   3.307   7.787   4.041 -0.1282 -0.6843  1.1930
   88MOL   C13633370   3.463   7.781   3.997  0.4897 -0.4963  0.1052
   88MOL   C13733371   3.548   7.825   4.120  0.4724 -0.4400  0.0366
   88MOL   O13833372   3.564   7.740   4.206 -0.3838 -0.4201  0.4590
   88MOL   N13933373   3.584   0.113   4.131 -1.2444  0.0350 -0.2106
   88MOL   C14033374   3.628   0.184   4.249  0.0744 -0.1026 -0.3778
   88MOL   C14133375   3.502   0.219   4.332 -0.3524 -0.1111  0.3560
   88MOL   C14233376   3.704   0.315   4.222 -0.1001  0.4471 -0.0352
   88MOL   H14333377   3.251   7.695   4.020 -0.0481  0.2231 -3.6593
   88MOL   H14433378   3.302   7.779   4.149  2.6429  2.2891  1.6057
   88MOL   H14533379   3.484   0.016   3.918 -2.3239  1.5849  1.1656
   88MOL   H14633380   3.547   0.177   4.062  1.3272  0.3536 -1.3313
   88MOL   H14733381   3.697   0.117   4.301 -0.8196 -0.5708  0.2150
   88MOL   H14833382   3.455   0.125   4.360  0.9663 -1.2657 -1.1730
   88MOL   H14933383   3.522   0.281   4.420 -1.3578 -0.2032  0.6574
   88MOL   H15033384   3.429   0.277   4.277 -1.2782 -1.1908  0.4205
   88MOL   H15133385   3.724   0.364   4.318 -0.6595  1.2961 -0.3381
   88MOL   H15233386   3.650   0.391   4.165  0.0832  0.3354 -0.3579
   88MOL   H15333387   3.803   0.305   4.178 -1.0696  1.1861 -2.4947
   88MOL   C15433388   3.504   7.636   3.965  0.0273 -0.1144 -0.0418
   88MOL   C15533389   3.630   7.622   3.874  0.3141  0.0144  0.2153
   88MOL   C15633390   3.605   7.681   3.729  0.7637  0.0709  1.5742
   88MOL   O15733391   3.552   7.609   3.643 -0.2826 -0.0180  0.5210
   88MOL   N15833392   3.634   7.808   3.710 -0.2363 -0.1729 -0.1497
   88MOL   C15933393   3.591   0.058   3.600  0.3052  0.0010 -0.1339
   88MOL   C16033394   3.678   0.024   3.473 -0.4626 -0.6856  0.4035
   88MOL   C16133395   3.605   0.211   3.633 -0.1397 -0.0125 -0.1672
   88MOL   H16233396   3.430   7.589   3.901  0.7436  0.4364 -1.2781
   88MOL   H16333397   3.508   7.563   4.045  0.0189 -0.1750 -0.0977
   88MOL   H16433398   3.718   7.671   3.916  1.1419 -1.6663  0.4727
   88MOL   H16533399   3.691   0.016   3.780 -0.6800 -0.0966  0.1620
   88MOL   H16633400   3.491   0.046   3.560 -0.2949  2.9048  0.3593
   88MOL   H16733401   3.784   0.021   3.496 -0.1406 -0.4994 -1.0194
   88MOL   H16833402   3.650   7.769   3.421  1.2074 -1.1350  0.2815
   88MOL   H16933403   3.663   0.106   3.403 -0.7074 -1.5389 -0.5460
   88MOL   H17033404   3.532   0.224   3.712  0.3101 -2.3203  0.6748
   88MOL   H17133405   3.582   0.273   3.546  0.4840 -0.3701 -0.5893
   88MOL   H17233406   3.709   0.225   3.663  0.1403 -1.8172 -0.2508
   88MOL   C17333407   3.693   7.477   3.885  0.7491 -0.2197  0.9382
   88MOL   C17433408   3.602   7.359   3.831  0.2123  0.2875  0.3652
   88MOL   C17533409   3.673   7.271   3.723 -0.3827 -0.1540 -0.0061
   88MOL   O17633410   3.765   7.200   3.751  0.2998 -0.1675  0.0119
   88MOL   N17733411   3.615   7.269   3.601  0.4718  0.2309  0.0216
   88MOL   C17833412   3.677   7.206   3.484  0.0288 -0.9866 -0.1155
   88MOL   C17933413   3.637   7.290   3.358 -0.0515  0.0629  0.1996
   88MOL   C18033414   3.645   7.059   3.468  0.0707  0.1231  0.4373
   88MOL   H18133415   3.715   7.467   3.992  0.1308 -1.4138  0.9623
   88MOL   H18233416   3.795   7.473   3.846 -0.2306 -0.1638 -1.7351
   88MOL   H18333417   3.511   7.397   3.785 -0.2092 -1.5685 -0.4091
   88MOL   H18433418   3.542   7.337   3.588  0.2262 -0.1838 -0.8086
   88MOL   H18533419   3.786   7.212   3.491 -0.0222 -0.2163  0.0410
   88MOL   H18633420   3.675   7.257   3.261  0.8571  0.8640  0.2796
   88MOL   H18733421   3.678   7.390   3.368  1.5528 -0.6421  0.6541
   88MOL   H18833422   3.529   7.303   3.347  0.0453  0.5175 -0.2569
   88MOL   H18933423   3.685   7.015   3.377 -0.6035  0.2539  0.0801
   88MOL   H19033424   3.540   7.031   3.467 -0.1848  1.0686  0.5046
   88MOL   H19133425   3.688   7.006   3.554 -1.0196 -0.3649  0.6906
   88MOL   C19233426   3.544   7.264   3.943 -0.1312  0.4876 -0.2222
   88MOL   C19333427   3.472   7.135   3.897  0.3248 -0.3263 -0.4485
   88MOL   C19433428   3.339   7.165   3.825  0.4189 -0.1585  0.2826
   88MOL   O19533429   3.247   7.227   3.871  0.1945 -0.0360 -0.4269
   88MOL   N19633430   3.337   7.129   3.696  0.2255  0.6969 -0.5805
   88MOL   C19733431   3.219   7.135   3.607 -0.6823  0.4317  0.7058
   88MOL   C19833432   3.268   7.177   3.465  0.2987  0.6237 -0.2255
   88MOL   C19933433   3.152   6.997   3.601  0.0562 -0.0510 -0.4461
   88MOL   H20033434   3.491   7.329   4.012  0.3562  0.7419 -0.0831
   88MOL   H20133435   3.630   7.230   4.000 -0.3032  1.4845  0.6417
   88MOL   H20233436   3.543   7.082   3.834  1.8399  1.6794 -0.4543
   88MOL   H20333437   3.413   7.077   3.656 -1.2557 -0.1645 -2.4124
   88MOL   H20433438   3.141   7.197   3.650 -1.3643 -0.3726  0.6290
   88MOL   H20533439   3.183   7.189   3.398  0.4548 -0.6850 -0.6721
   88MOL   H20633440   3.346   7.111   3.427 -0.7604 -0.5010 -0.4436
   88MOL   H20733441   3.318   7.274   3.467  0.5297  0.5695 -2.1362
   88MOL   H20833442   3.131   6.958   3.701  2.9827 -0.9188 -0.1225
   88MOL   H20933443   3.201   6.924   3.536 -0.0643 -0.2781 -0.2835
   88MOL   H21033444   3.050   7.012   3.565 -0.8661  0.3806  2.2310
   88MOL   C21133445   3.431   7.045   4.016 -0.1177 -1.0436  0.1106
   88MOL   C21233446   3.372   6.905   3.989 -0.6621  0.6091  0.0667
   88MOL   C21333447   3.478   6.805   3.940  0.4441  0.2138 -0.3545
   88MOL   O21433448   3.562   6.759   4.014  0.1821  0.2210 -0.2900
   88MOL   N21533449   3.470   6.769   3.808 -0.3608  0.1235 -0.8360
   88MOL   C21633450   3.555   6.669   3.738  1.0827 -0.0460  1.2871
   88MOL   C21733451   3.667   6.729   3.649 -0.5820  0.0248 -0.3762
   88MOL   C21833452   3.474   6.566   3.658  0.6702  0.2568 -0.4517
   88MOL   H21933453   3.358   7.099   4.076  1.3937  0.3930  0.6887
   88MOL   H22033454   3.520   7.032   4.077  1.3573  4.2525 -0.6083
   88MOL   H22133455   3.292   6.905   3.915  0.1548  0.3278 -0.8272
   88MOL   H22233456   3.411   6.827   3.751 -1.6245 -0.9277 -0.6225
   88MOL   H22333457   3.606   6.611   3.815 -1.0366 -0.6166  2.3264
   88MOL   H22433458   3.744   6.661   3.614  1.3127  0.9886  1.7595
   88MOL   H22533459   3.628   6.780   3.561 -0.0497 -0.8912 -1.1423
   88MOL   H22633460   3.717   6.796   3.719 -0.2479  1.5528 -2.0358
   88MOL   H22733461   3.535   6.506   3.591 -0.8463 -1.4935 -0.2874
   88MOL   H22833462   3.399   6.615   3.597 -0.6075 -1.7796 -0.5600
   88MOL   H22933463   3.414   6.496   3.716  3.4669 -0.4912  1.6911
   88MOL   C23033464   3.303   6.853   4.117 -0.1700  0.0143  0.0656
   88MOL   C23133465   3.154   6.906   4.136  0.4295 -0.3257  0.4167
   88MOL   C23233466   3.046   6.798   4.092 -0.9995 -0.4108  0.1109
   88MOL   O23333467   3.056   6.674   4.109 -0.4521 -0.1047 -0.7556
   88MOL   N23433468   2.937   6.853   4.034 -0.8367 -0.3508 -0.2680
   88MOL   C23533469   2.822   6.774   3.982  0.3879  0.1572 -0.2053
   88MOL   C23633470   2.714   6.761   4.086 -0.4372  0.1268  0.3016
   88MOL   C23733471   2.757   6.865   3.877 -0.5151 -0.3866  1.1118
   88MOL   H23833472   3.360   6.879   4.206 -0.1800  1.0724 -0.2379
   88MOL   H23933473   3.298   6.744   4.118  1.7794 -0.0943 -0.0922
   88MOL   H24033474   3.120   6.992   4.078  1.3817 -0.8197 -0.9000
   88MOL   H24133475   2.937   6.954   4.040  0.7454 -0.3375 -0.1631
   88MOL   H24233476   2.861   6.679   3.944  2.0458  0.2337  1.2632
   88MOL   H24333477   2.747   6.705   4.174  1.7087 -1.0217 -1.1851
   88MOL   H24433478   2.673   6.856   4.120 -0.5737  0.0867  0.2474
   88MOL   H24533479   2.624   6.712   4.048 -0.7489 -0.2984  1.5572
   88MOL   H24633480   2.819   6.890   3.791 -3.7637 -0.0123 -1.2536
   88MOL   H24733481   2.739   6.965   3.917 -0.4004 -0.1262  0.5266
   88MOL   H24833482   2.659   6.824   3.852  0.3107 -3.0644  2.1002
   88MOL   C24933483   3.135   6.950   4.285  0.0675 -0.7592  0.2846
   88MOL   C25033484   3.017   7.041   4.319 -0.1578 -0.0635 -0.2877
   88MOL   C25133485   3.019   7.177   4.233  0.3172 -0.2949 -0.1664
   88MOL   O25233486   3.126   7.235   4.216 -0.8956 -0.9060  0.9504
   88MOL   N25333487   2.908   7.230   4.177  0.0972  0.3985 -0.6228
   88MOL   C25433488   2.901   7.327   4.072 -0.7066 -0.8227 -0.5126
   88MOL   C25533489   2.752   7.331   4.046 -0.2510  0.3671  0.1935
   88MOL   C25633490   2.947   7.469   4.110  0.6527 -0.2848 -0.1372
   88MOL   H25733491   3.224   7.000   4.322  0.1016  0.1093 -0.9322
   88MOL   H25833492   3.145   6.855   4.337 -0.3809 -0.3638  1.1101
   88MOL   H25933493   2.922   6.995   4.292 -0.0312  0.1580 -1.1273
   88MOL   H26033494   2.820   7.187   4.201  1.8320 -3.5772 -0.9352
   88MOL   H26133495   2.966   7.299   3.988  0.7917  1.1133 -0.0276
   88MOL   H26233496   2.727   7.412   3.978  2.5750  2.8123  1.9331
   88MOL   H26333497   2.712   7.239   4.004 -2.2365  2.4508 -2.6168
   88MOL   H26433498   2.702   7.348   4.141 -0.6409  1.0725 -0.1348
   88MOL   H26533499   2.902   7.548   4.051 -2.0441 -2.6326 -1.3567
   88MOL   H26633500   2.905   7.473   4.211 -1.0793 -0.7864 -0.8144
   88MOL   H26733501   3.056   7.473   4.117  0.5367  0.8868  1.2670
   88MOL   C26833502   3.005   7.060   4.473  0.3122 -0.9786 -0.2522
   88MOL   C26933503   2.873   7.138   4.522  0.0972 -0.2459 -0.7510
   88MOL   C27033504   2.740   7.070   4.479  0.2430 -0.2323  0.5222
   88MOL   O27133505   2.670   7.113   4.387 -0.1390 -0.0500 -0.4144
   88MOL   N27233506   2.716   6.958   4.544  0.3042  0.5550 -0.0342
   88MOL   C27333507   2.609   6.859   4.502 -0.8502  0.0339  0.1032
   88MOL   C27433508   2.650   6.708   4.510  0.4153  0.0714 -0.7425
   88MOL   C27533509   2.489   6.887   4.579  0.5030  0.1055  0.3313
   88MOL   H27633510   3.004   6.955   4.503 -1.0779 -0.5169  1.3406
   88MOL   H27733511   3.091   7.112   4.514  0.7462 -0.3615 -1.9073
   88MOL   H27833512   2.869   7.234   4.471  0.9138  1.6967  2.6390
   88MOL   H27933513   2.762   6.949   4.634 -0.1621 -1.0219  0.0674
   88MOL   H28033514   2.578   6.891   4.402 -0.6095  2.3965  0.7571
   88MOL   H28133515   2.583   6.630   4.473  0.7926  0.2656 -1.8513
   88MOL   H28233516   2.740   6.696   4.451  0.9891  2.4526 -0.3820
   88MOL   H28333517   2.683   6.696   4.613  1.6484 -1.9760 -1.3576
   88MOL   H28433518   2.451   6.989   4.569  0.5696  0.3028  1.8503
   88MOL   H28533519   2.414   6.814   4.551 -0.1992  0.7949  0.3758
   88MOL   H28633520   2.504   6.864   4.685  0.6826 -1.2414  0.0206
   88MOL   C28733521   2.885   7.182   4.675 -0.6829 -0.0548 -0.0693
   88MOL   C28833522   2.991   7.126   4.763  0.0115  0.0983 -0.6026
   88MOL   C28933523   2.983   6.979   4.776 -0.3386 -0.4605 -0.3744
   88MOL   O29033524   2.877   6.912   4.764  0.2864  0.3262  0.1537
   88MOL   N29133525   3.095   6.913   4.806  0.3228  0.3628  0.0946
   88MOL   C29233526   3.102   6.768   4.813 -0.5275  0.8788  0.5576
   88MOL   C29333527   3.022   6.710   4.927 -0.1639 -0.0784 -1.0255
   88MOL   C29433528   3.083   6.706   4.669 -0.0756 -0.3064  0.0707
   88MOL   H29533529   2.892   7.290   4.665 -1.3264 -0.2425 -3.1572
   88MOL   H29633530   2.794   7.171   4.734 -1.3580 -0.9127 -1.2587
   88MOL   H29733531   3.081   7.168   4.719  1.5380 -1.3562  0.9877
   88MOL   H29833532   3.179   6.968   4.809  0.4366  0.1184  2.1906
   88MOL   H29933533   3.209   6.753   4.827 -0.1815  1.6390 -1.2081
   88MOL   H30033534   2.915   6.720   4.909 -0.2063  0.5490 -0.4874
   88MOL   H30133535   3.046   6.606   4.950 -0.6532 -0.2991 -1.5043
   88MOL   H30233536   3.042   6.757   5.024  0.5624 -1.3460 -0.5482
   88MOL   H30333537   3.089   6.597   4.662  0.5487 -0.0981 -3.4664
   88MOL   H30433538   2.987   6.733   4.626  0.1954 -1.0641 -1.0516
   88MOL   H30533539   3.165   6.747   4.610 -0.3632 -1.4340 -1.1440
   88MOL   C30633540   3.011   7.208   4.895  0.4068  0.1728  0.5335
   88MOL   C30733541   2.924   7.187   5.025  0.3181  0.0946 -0.0057
   88MOL   C30833542   2.777   7.217   4.993 -0.7338  0.2313 -0.2678
   88MOL   O30933543   2.736   7.333   5.003  0.3003 -0.3621 -0.5116
   88MOL   N31033544   2.705   7.113   4.964  0.4218 -0.0237  0.5649
   88MOL   C31133545   2.566   7.101   4.995  0.0735 -0.2293  0.2763
   88MOL   C31233546   2.496   7.140   4.865 -0.2091  0.5825 -0.1511
   88MOL   C31333547   2.536   6.960   5.038  0.5829  0.2377  0.6817
   88MOL   H31433548   3.111   7.174   4.922  0.5832  0.5159  0.3017
   88MOL   H31533549   3.020   7.315   4.878 -0.2940  0.1052 -0.2568
   88MOL   H31633550   2.936   7.085   5.061 -1.3652  0.4528  1.6360
   88MOL   H31733551   2.753   7.025   4.962  0.3505 -0.0455 -1.3979
   88MOL   H31833552   2.536   7.162   5.081  0.6561  2.2872 -1.2573
   88MOL   H31933553   2.528   7.085   4.777  0.6836  1.4031 -0.3595
   88MOL   H32033554   2.508   7.243   4.830 -1.9474  0.2326 -1.8572
   88MOL   H32133555   2.391   7.116   4.876  0.8371 -4.0055  0.8966
   88MOL   H32233556   2.576   6.937   5.136  0.3039  1.9255  1.2146
   88MOL   H32333557   2.585   6.893   4.968  0.6485  0.3337  0.6353
   88MOL   H32433558   2.427   6.952   5.030  0.5716  1.6748 -1.0987
   88MOL   C32533559   2.965   7.266   5.154 -0.1578 -0.4322  0.8515
   88MOL   C32633560   2.884   7.231   5.287 -0.3266  0.5030  0.1851
   88MOL   C32733561   2.920   7.095   5.348 -0.0376 -0.0371 -0.2648
   88MOL   O32833562   3.036   7.078   5.392  0.3105 -0.6100  0.1753
   88MOL   N32933563   2.817   7.008   5.365  0.0450 -0.2746  0.2990
   88MOL   C33033564   2.831   6.884   5.438  0.2305  0.2097  0.6048
   88MOL   C33133565   2.837   6.913   5.593  0.6804 -0.1405 -0.3867
   88MOL   C33233566   2.930   6.787   5.383  0.4565 -0.2260  0.7166
   88MOL   H33333567   2.961   7.374   5.141  3.1950 -0.3359  0.3348
   88MOL   H33433568   3.069   7.241   5.171  0.4786  1.3144 -0.3133
   88MOL   H33533569   2.779   7.225   5.260 -0.4917  1.3328  0.6204
   88MOL   H33633570   2.724   7.042   5.344  0.1626  0.6917  1.3201
   88MOL   H33733571   2.733   6.837   5.430  1.8047 -2.9829 -0.6204
   88MOL   H33833572   2.925   6.974   5.616  1.0278 -0.7047 -0.1993
   88MOL   H33933573   2.752   6.973   5.625  0.6835 -1.3539  2.0594
   88MOL   H34033574   2.857   6.818   5.644  0.7104 -1.7475 -3.2821
   88MOL   H34133575   2.904   6.772   5.278 -0.9795 -2.4031  1.3468
   88MOL   H34233576   2.925   6.689   5.432  0.4429  0.7668  2.7173
   88MOL   H34333577   3.032   6.819   5.403  0.6457 -0.1946 -0.2760
   88MOL   C34433578   2.895   7.345   5.397  0.3074 -0.0826 -0.7479
   88MOL   C34533579   2.788   7.337   5.509 -0.1071 -0.2935  0.3929
   88MOL   C34633580   2.845   7.366   5.648 -0.0415 -0.3164 -0.4816
   88MOL   O34733581   2.874   7.484   5.684 -0.5375 -0.6852 -0.0989
   88MOL   N34833582   2.856   7.263   5.730  0.4234  0.1202 -0.1560
   88MOL   C34933583   2.897   7.272   5.874 -0.5079  0.9838 -0.0253
   88MOL   C35033584   2.799   7.198   5.959  0.2692 -0.8757  0.5141
   88MOL   C35133585   3.035   7.201   5.891 -0.1407 -0.6456 -0.1456
   88MOL   H35233586   2.893   7.444   5.350 -1.7963  0.9917  1.4702
   88MOL   H35333587   2.994   7.336   5.441 -0.1950  1.6009  0.7802
   88MOL   H35433588   2.746   7.236   5.513 -1.4904  0.2715  0.3793
   88MOL   H35533589   2.848   7.168   5.697  2.3413 -0.1199 -0.0044
   88MOL   H35633590   2.911   7.375   5.906  1.4526  0.7999 -0.1768
   88MOL   H35733591   2.698   7.235   5.940  0.0207 -0.9043  1.7778
   88MOL   H35833592   2.794   7.091   5.936  0.2580 -0.6763 -0.4519
   88MOL   H35933593   2.829   7.219   6.061  3.3306 -1.7656 -0.1449
   88MOL   H36033594   3.117   7.264   5.857 -0.8521 -0.9892 -2.5391
   88MOL   H36133595   3.048   7.199   5.999 -0.8189  1.1387 -0.0174
   88MOL   H36233596   3.036   7.098   5.854 -0.8111 -1.3244  1.6256
   88MOL   C36333597   2.664   7.437   5.476  0.4948 -0.3089 -0.3810
   88MOL   C36433598   2.559   7.366   5.384  0.1368 -0.4750  0.2968
   88MOL   C36533599   2.511   7.224   5.410 -0.0914 -0.4103  0.0463
   88MOL   O36633600   2.550   7.135   5.335  0.4237 -0.5162 -0.0748
   88MOL   N36733601   2.420   7.202   5.507 -0.1479  0.1006  0.1235
   88MOL   C36833602   2.364   7.083   5.557 -0.6077 -0.2858 -0.4156
   88MOL   C36933603   2.289   7.015   5.438  0.0461  0.6043 -0.6499
   88MOL   C37033604   2.466   6.995   5.631  0.2878 -0.6345 -0.0016
   88MOL   H37133605   2.704   7.524   5.424  1.9601 -1.1806 -0.7473
   88MOL   H37233606   2.607   7.459   5.566  1.7189 -0.7138  0.5076
   88MOL   H37333607   2.600   7.360   5.283 -0.2936  0.2877  0.0771
   88MOL   H37433608   2.381   7.283   5.552  1.4901 -0.0338  1.8664
   88MOL   H37533609   2.295   7.108   5.638  0.7755  0.3523  0.5923
   88MOL   H37633610   2.237   7.089   5.378 -2.4822 -0.6836 -0.1337
   88MOL   H37733611   2.358   6.959   5.376  1.0713 -0.7238  1.6219
   88MOL   H37833612   2.219   6.943   5.481  1.7469 -0.4156  0.4748
   88MOL   H37933613   2.424   6.917   5.695 -1.1315 -0.4776 -0.7319
   88MOL   H38033614   2.514   6.930   5.558 -1.0313 -1.0572 -0.5022
   88MOL   H38133615   2.544   7.048   5.686 -1.2853  0.5882  1.0683
   88MOL   H38233616   2.471   7.430   5.380  2.0465  2.4013  1.9698
   89MOL     C133617   7.213   7.463   7.759 -0.1251 -0.2826 -0.6150
   89MOL     C233618   7.160   7.520   0.063  0.0984  0.0316 -0.2520
   89MOL     C333619   7.285   7.569   0.148  0.4458 -0.1252  0.2799
   89MOL     O433620   7.324   7.686   0.137  0.2300 -0.1284  0.0743
   89MOL     N533621   7.341   7.487   0.239  0.1292  0.0142  0.1724
   89MOL     C633622   7.462   7.510   0.327  0.2670  0.1091 -0.5701
   89MOL     C733623   7.424   7.528   0.477  0.2678  0.1013  0.5843
   89MOL     C833624   7.582   7.415   0.300 -0.1900  0.3855 -0.2328
   89MOL     H933625   7.152   7.376   7.734 -1.0210  0.3542 -0.6782
   89MOL    H1033626   7.315   7.428   7.771  0.3064  1.0808 -0.2174
   89MOL    H1133627   7.107   7.438   0.110 -0.8639  1.1816  0.7215
   89MOL    H1233628   7.315   7.389   0.244  1.1855 -0.1936  2.1990
   89MOL    H1333629   7.500   7.608   0.298  0.1837  0.7243  1.3359
   89MOL    H1433630   7.338   7.595   0.475  0.9817  1.0372  1.0230
   89MOL    H1533631   7.507   7.566   0.536 -1.5163  0.5351  2.9356
   89MOL    H1633632   7.403   7.433   0.527 -1.1889 -0.3036 -0.7570
   89MOL    H1733633   7.658   7.450   0.370  0.0565  0.0997 -0.3565
   89MOL    H1833634   7.555   7.310   0.306 -1.0119  0.7032  2.1907
   89MOL    H1933635   7.634   7.425   0.205 -0.7566  1.1397 -0.4725
   89MOL    H2033636   7.223   7.537   7.680  0.1769  0.1793 -0.1465
   89MOL    C2133637   7.056   7.629   0.039 -0.2629  0.8251  0.2730
   89MOL    C2233638   6.997   7.696   0.160 -0.2599 -0.5189  0.4233
   89MOL    C2333639   6.934   7.602   0.256 -0.0189 -0.0401 -0.0520
   89MOL    O2433640   6.846   7.516   0.230 -0.1810  0.3526 -0.1694
   89MOL    N2533641   6.977   7.617   0.380  0.8647 -0.0436  0.0192
   89MOL    C2633642   6.964   7.513   0.480 -0.3926 -0.7204 -0.5842
   89MOL    C2733643   6.988   7.584   0.607  1.2523 -0.3047 -0.6623
   89MOL    C2833644   7.071   7.401   0.444 -0.1022  0.2405 -0.2844
   89MOL    H2933645   6.976   7.586   7.816  2.6815 -1.4283 -2.2564
   89MOL    H3033646   7.105   7.714   7.829  0.4036  0.3212  0.0474
   89MOL    H3133647   7.080   7.739   0.216 -1.2815  2.9994 -0.6496
   89MOL    H3233648   7.028   7.702   0.401 -0.9030  1.4474 -1.5361
   89MOL    H3333649   6.867   7.464   0.477 -0.8129  0.0118  0.6057
   89MOL    H3433650   6.901   7.648   0.620 -0.8355 -2.7995 -1.8005
   89MOL    H3533651   7.082   7.636   0.594  0.1176  1.6035 -1.5356
   89MOL    H3633652   6.994   7.513   0.690  1.5711  0.9606  0.4128
   89MOL    H3733653   7.095   7.341   0.531 -2.6355  0.8696  0.9058
   89MOL    H3833654   7.044   7.340   0.357  1.6467 -2.3720  0.9631
   89MOL    H3933655   7.172   7.430   0.418  0.7266 -1.8142  0.5041
   89MOL    C4033656   6.893   7.808   0.137  0.3155  0.0862  0.0145
   89MOL    C4133657   6.762   7.764   0.059 -0.2941 -0.1348  0.3286
   89MOL    C4233658   6.779   7.759   7.745  0.0476 -0.7398  0.8925
   89MOL    O4333659   6.829   0.012   7.682 -0.1171 -0.1173  0.0344
   89MOL    N4433660   6.738   7.648   7.677  0.5029  0.0593  0.0725
   89MOL    C4533661   6.773   7.603   7.543 -0.4757  0.6881  0.0882
   89MOL    C4633662   6.800   7.450   7.547 -0.4437  0.4234 -0.8516
   89MOL    C4733663   6.664   7.645   7.441 -0.1416  0.4517 -0.7001
   89MOL    H4833664   6.939   0.049   0.075  1.7777 -1.2868 -0.6518
   89MOL    H4933665   6.872   0.021   0.232 -0.0848 -0.7632  0.3698
   89MOL    H5033666   6.735   7.660   0.076 -0.0062  0.0736  2.1844
   89MOL    H5133667   6.702   7.570   7.729  1.6188 -0.7135 -0.2967
   89MOL    H5233668   6.864   7.655   7.512 -1.2616  2.2831  0.3727
   89MOL    H5333669   6.732   7.407   7.621  1.4897 -2.3288 -0.5983
   89MOL    H5433670   6.901   7.410   7.562 -1.0489 -0.7703  0.1124
   89MOL    H5533671   6.775   7.401   7.453  1.3015  1.6668 -1.9844
   89MOL    H5633672   6.654   7.753   7.452 -0.5714  0.1691  2.0362
   89MOL    H5733673   6.573   7.589   7.462 -0.4120  1.2996  0.3792
   89MOL    H5833674   6.682   7.620   7.336  0.5407  1.7618 -0.9074
   89MOL    C5933675   6.637   0.018   0.090  0.2088  0.0018 -0.4114
   89MOL    C6033676   6.538   7.797   0.193  0.3198 -0.3365 -0.0053
   89MOL    C6133677   6.480   7.659   0.154 -0.1322 -0.3081 -0.8847
   89MOL    O6233678   6.384   7.655   0.074  0.2787  0.2433 -1.0067
   89MOL    N6333679   6.527   7.548   0.211  0.1494 -0.2074  0.3456
   89MOL    C6433680   6.479   7.414   0.188  0.0246 -0.0041 -0.3353
   89MOL    C6533681   6.532   7.367   0.054 -0.0087 -0.8626  0.6822
   89MOL    C6633682   6.529   7.334   0.310 -0.3024  0.2207 -0.6638
   89MOL    H6733683   6.677   0.116   0.112 -0.1845 -0.0475  0.5707
   89MOL    H6833684   6.576   0.028   7.836 -0.4110 -0.7916 -0.0920
   89MOL    H6933685   6.599   7.784   0.283  0.4283  0.1169 -0.0162
   89MOL    H7033686   6.611   7.553   0.266 -0.0348 -0.0366  0.6165
   89MOL    H7133687   6.370   7.409   0.193 -0.1363 -0.0062 -3.2759
   89MOL    H7233688   6.640   7.366   0.040  0.0197  2.3345  0.2530
   89MOL    H7333689   6.504   7.262   0.051 -1.5326 -0.4166 -1.3100
   89MOL    H7433690   6.476   7.418   7.812  0.7656 -2.4929 -0.9653
   89MOL    H7533691   6.638   7.341   0.314 -0.3089  1.0818 -1.6092
   89MOL    H7633692   6.489   7.379   0.401 -1.8311 -1.6621 -0.3733
   89MOL    H7733693   6.500   7.232   0.334 -0.1594  0.4868  0.6606
   89MOL    C7833694   6.424   0.076   0.213 -0.1517  0.1817 -0.1389
   89MOL    C7933695   6.339   0.065   0.339 -0.0519  0.2320 -0.4679
   89MOL    C8033696   6.423   0.078   0.471 -0.6764  0.1576 -0.7549
   89MOL    O8133697   6.467   0.188   0.500 -0.3932 -0.2650 -0.2286
   89MOL    N8233698   6.449   7.801   0.540 -0.2690 -0.2815 -0.2227
   89MOL    C8333699   6.563   7.782   0.631 -0.3520 -0.3592 -0.2249
   89MOL    C8433700   6.552   0.004   0.770 -0.1894  0.0985 -0.1048
   89MOL    C8533701   6.611   7.633   0.625 -0.5702 -0.6690 -0.0903
   89MOL    H8633702   6.355   0.064   0.129  1.6143  0.1708 -1.6282
   89MOL    H8733703   6.477   0.171   0.216 -0.8757  0.6147 -0.7232
   89MOL    H8833704   6.297   7.801   0.330 -1.0154  0.9276 -4.4158
   89MOL    H8933705   6.424   7.712   0.500  0.8715 -0.0777 -1.3805
   89MOL    H9033706   6.644   0.001   0.583  0.2334 -1.4187 -0.4901
   89MOL    H9133707   6.622   7.793   0.838  1.2658  0.7576 -1.1321
   89MOL    H9233708   6.575   0.110   0.776  0.1948  0.0434 -0.5641
   89MOL    H9333709   6.452   7.827   0.811  0.9224 -2.6526  1.8718
   89MOL    H9433710   6.642   7.618   0.522  0.8843  2.9199 -0.2567
   89MOL    H9533711   6.529   7.564   0.643 -1.8449  0.9882  0.6436
   89MOL    H9633712   6.704   7.619   0.681 -0.0513  0.0588 -0.7589
   89MOL    C9733713   6.218   0.165   0.345  0.2451  0.0768 -0.5441
   89MOL    C9833714   6.102   0.147   0.245 -0.0905 -0.3048 -0.1357
   89MOL    C9933715   6.011   0.269   0.234 -0.0424  0.4134  0.7286
   89MOL   O10033716   6.012   0.357   0.317 -0.5846 -0.0684 -0.3086
   89MOL   N10133717   5.932   0.278   0.129 -0.5455  0.0472  0.1873
   89MOL   C10233718   5.834   0.376   0.086 -0.1403 -0.6470 -0.0661
   89MOL   C10333719   5.894   0.490   0.008  0.3182 -0.0315 -0.2573
   89MOL   C10433720   5.734   0.303   7.833 -0.3139 -0.0915  0.2011
   89MOL   H10533721   6.258   0.266   0.332  0.0459  0.3656  0.9897
   89MOL   H10633722   6.181   0.164   0.448  2.7142 -0.0415  0.3736
   89MOL   H10733723   6.146   0.141   0.145 -1.5168  1.1793 -0.8557
   89MOL   H10833724   5.949   0.198   0.070  1.8458  0.9944 -0.4490
   89MOL   H10933725   5.771   0.414   0.167  2.2979  1.3444  0.9720
   89MOL   H11033726   5.832   0.579   7.829  1.8911  1.1099 -0.0942
   89MOL   H11133727   5.975   0.532   0.068  1.0738  0.0596 -1.3257
   89MOL   H11233728   5.932   0.461   7.746 -2.1340 -1.0744 -0.9232
   89MOL   H11333729   5.778   0.257   7.744 -0.1117  1.0326 -0.2783
   89MOL   H11433730   5.670   0.385   7.802  0.2057  0.2917  0.1292
   89MOL   H11533731   5.671   0.231   0.048 -1.0907  0.1690 -0.3876
   89MOL   C11633732   6.028   0.017   0.264  0.5577 -0.4776 -0.6524
   89MOL   C11733733   6.058   7.734   0.177 -1.0156 -0.4206 -0.2292
   89MOL   C11833734   6.036   7.755   0.027 -0.6393  0.0137 -0.2180
   89MOL   O11933735   5.940   7.817   7.821  0.3821  0.4272  0.6200
   89MOL   N12033736   6.140   7.719   7.783 -0.1820  0.2683 -0.2924
   89MOL   C12133737   6.136   7.714   7.638 -0.4200 -0.0478  0.2656
   89MOL   C12233738   6.283   7.720   7.593 -0.0735 -0.3516 -0.1813
   89MOL   C12333739   6.066   7.587   7.596  0.5533  0.2532  0.0324
   89MOL   H12433740   5.923   0.044   0.263  0.7324  0.2040 -0.7974
   89MOL   H12533741   6.044   7.821   0.367 -0.3314 -0.3602 -0.4781
   89MOL   H12633742   6.164   7.712   0.186 -0.7387  1.0684  0.2186
   89MOL   H12733743   6.226   7.680   7.819 -0.7545 -0.7804 -0.0495
   89MOL   H12833744   6.075   7.798   7.605 -1.0493 -0.8987 -0.7800
   89MOL   H12933745   6.303   7.733   7.486 -2.6094 -0.4708 -0.7056
   89MOL   H13033746   6.354   7.646   7.631  1.3099  1.0477 -0.0273
   89MOL   H13133747   6.323   7.814   7.628 -1.0748 -1.1009  3.1115
   89MOL   H13233748   5.972   7.603   7.649 -0.4458 -0.4639 -1.4699
   89MOL   H13333749   6.047   7.573   7.489 -0.4468 -1.6355  0.4435
   89MOL   H13433750   6.116   7.500   7.638  1.0750  0.4790 -0.1183
   89MOL   C13533751   5.981   7.600   0.212 -0.3722 -0.6768  0.0155
   89MOL   C13633752   5.994   7.550   0.357 -0.6065 -0.7443 -0.1167
   89MOL   C13733753   5.855   7.540   0.426  0.3494 -0.3270 -0.3568
   89MOL   O13833754   5.763   7.473   0.374 -0.2581 -0.0230 -0.5458
   89MOL   N13933755   5.841   7.610   0.541  0.4768  0.1789 -0.1200
   89MOL   C14033756   5.716   7.612   0.618 -0.0496 -0.0621  0.5278
   89MOL   C14133757   5.715   7.738   0.715 -0.8896 -0.3248 -0.5823
   89MOL   C14233758   5.703   7.492   0.712  0.2114 -0.3209 -0.0602
   89MOL   H14333759   6.012   7.526   0.137 -0.6646 -0.8402  0.0561
   89MOL   H14433760   5.876   7.624   0.193 -0.0403  0.9845  0.2139
   89MOL   H14533761   6.049   7.630   0.407  0.4210  0.4235 -2.9967
   89MOL   H14633762   5.922   7.665   0.569 -0.1304  2.4977 -2.7314
   89MOL   H14733763   5.640   7.620   0.541  1.2599  3.8664 -0.4977
   89MOL   H14833764   5.722   7.832   0.660  0.4313 -0.7213 -1.1304
   89MOL   H14933765   5.623   7.737   0.773 -0.5185  1.1080  0.0614
   89MOL   H15033766   5.803   7.741   0.780 -1.0668  1.8714 -0.4081
   89MOL   H15133767   5.645   7.409   0.671 -1.9490  0.7902  0.6698
   89MOL   H15233768   5.638   7.514   0.796 -0.3315 -1.8804 -0.0505
   89MOL   H15333769   5.801   7.469   0.753  0.1788 -2.1588 -0.9543
   89MOL   C15433770   6.071   7.418   0.359 -0.8897 -0.3463 -0.3135
   89MOL   C15533771   6.104   7.355   0.495 -0.0554 -0.1371 -0.4676
   89MOL   C15633772   6.194   7.452   0.571  0.2281  1.1095  0.7410
   89MOL   O15733773   6.296   7.500   0.520 -0.1997 -0.1845  0.1855
   89MOL   N15833774   6.162   7.481   0.698  0.2236  0.1046 -0.4094
   89MOL   C15933775   6.225   7.576   0.786  0.6525 -0.2525 -0.6742
   89MOL   C16033776   6.330   7.506   0.870 -0.4053 -0.4135  0.3199
   89MOL   C16133777   6.120   7.642   0.875 -0.2566  0.3172 -0.2721
   89MOL   H16233778   6.162   7.425   0.299 -0.7477 -0.7912 -0.1498
   89MOL   H16333779   6.006   7.350   0.306 -0.5093 -0.9502 -0.0099
   89MOL   H16433780   6.019   7.333   0.560  0.4180 -0.2251  0.1176
   89MOL   H16533781   6.072   7.447   0.728  1.4909 -0.1243  3.4399
   89MOL   H16633782   6.285   7.650   0.734 -0.0917  0.9037  0.0856
   89MOL   H16733783   6.280   7.438   0.939 -2.4369  0.2622 -0.4323
   89MOL   H16833784   6.404   7.458   0.806 -1.3617  1.1885 -2.0912
   89MOL   H16933785   6.379   7.573   0.940  0.4394  0.0605 -0.7078
   89MOL   H17033786   6.074   7.562   0.933 -0.6571  1.6265  1.2651
   89MOL   H17133787   6.036   7.700   0.838  1.5113  2.4630 -0.9901
   89MOL   H17233788   6.166   7.709   0.948  0.9631 -0.9408  0.1416
   89MOL   C17333789   6.173   7.222   0.459 -0.0962 -0.1750  0.5183
   89MOL   C17433790   6.163   7.120   0.576 -0.1532 -0.4818 -0.1759
   89MOL   C17533791   6.019   7.070   0.593  0.3149 -0.0702 -0.7892
   89MOL   O17633792   5.964   7.075   0.701 -0.3240  0.4870 -0.1777
   89MOL   N17733793   5.947   7.039   0.486 -0.2518  0.0444 -0.5874
   89MOL   C17833794   5.804   7.016   0.491 -0.6912 -0.6974 -0.7409
   89MOL   C17933795   5.774   6.867   0.478  0.0851 -0.1381 -0.4940
   89MOL   C18033796   5.733   7.095   0.381 -0.1661 -0.3272  0.5981
   89MOL   H18133797   6.279   7.229   0.436 -0.0597 -1.2719  0.3240
   89MOL   H18233798   6.124   7.174   0.374 -0.4895 -0.1860  0.7482
   89MOL   H18333799   6.193   7.176   0.664  1.6356 -1.4524 -0.1555
   89MOL   H18433800   5.992   7.055   0.397 -0.1325  0.3534 -0.4728
   89MOL   H18533801   5.751   7.056   0.578  1.0138 -0.2207  0.0925
   89MOL   H18633802   5.811   6.805   0.560  0.6809 -0.1954 -0.8059
   89MOL   H18733803   5.808   6.834   0.380  1.8293  1.8582 -0.5855
   89MOL   H18833804   5.665   6.859   0.473  0.1150  0.2376 -2.0727
   89MOL   H18933805   5.777   7.194   0.373  0.9837 -1.0228 -2.3396
   89MOL   H19033806   5.629   7.115   0.409 -0.1132  0.8939 -0.0250
   89MOL   H19133807   5.737   7.038   0.288 -1.7375  0.0640  0.2768
   89MOL   C19233808   6.257   6.997   0.558  0.0417 -0.0086  0.0677
   89MOL   C19333809   6.285   6.916   0.698  0.2741  0.1945  0.0936
   89MOL   C19433810   6.388   7.004   0.770  0.1313  0.1055 -0.6838
   89MOL   O19533811   6.361   7.058   0.881 -0.4577  0.5425 -0.1758
   89MOL   N19633812   6.510   7.031   0.712 -0.8790 -0.7571 -0.5614
   89MOL   C19733813   6.627   7.097   0.781  0.5743 -0.2015 -0.2204
   89MOL   C19833814   6.760   7.071   0.712  0.5487  0.2326 -0.6889
   89MOL   C19933815   6.594   7.250   0.779 -0.2422 -0.0263 -0.7432
   89MOL   H20033816   6.351   7.027   0.512  0.3388 -0.9225  0.0743
   89MOL   H20133817   6.217   6.931   0.481 -0.4787  1.0590 -0.5820
   89MOL   H20233818   6.197   6.903   0.760  0.2491 -1.7003 -0.3262
   89MOL   H20333819   6.531   7.000   0.618 -0.2486 -2.4964  0.1451
   89MOL   H20433820   6.628   7.053   0.881 -2.6881 -1.2949 -0.6061
   89MOL   H20533821   6.756   7.104   0.608  1.6770  2.3486 -0.0949
   89MOL   H20633822   6.773   6.963   0.723 -1.1304  0.0834 -0.0488
   89MOL   H20733823   6.829   7.128   0.774 -0.4976 -1.0425  1.7267
   89MOL   H20833824   6.673   7.310   0.825  0.6124 -0.3910 -1.7170
   89MOL   H20933825   6.501   7.258   0.836 -0.2779 -1.2544 -0.6266
   89MOL   H21033826   6.565   7.294   0.684  0.7338 -0.5991 -1.3094
   89MOL   C21133827   6.340   6.775   0.669 -0.3293  0.2811  0.3951
   89MOL   C21233828   6.404   6.690   0.783  0.2080 -0.0655  0.3278
   89MOL   C21333829   6.309   6.667   0.898  0.1304  0.3512  0.0869
   89MOL   O21433830   6.221   6.580   0.887 -0.6866  0.7116  0.0365
   89MOL   N21533831   6.331   6.742   1.009  0.7349  0.4856  0.5193
   89MOL   C21633832   6.245   6.748   1.128 -0.1380 -0.0584 -0.1091
   89MOL   C21733833   6.277   6.868   1.223  0.0370 -0.4397 -0.1198
   89MOL   C21833834   6.245   6.619   1.205 -0.7008 -0.3267  0.1239
   89MOL   H21933835   6.421   6.786   0.597  1.1138 -3.0553  1.4498
   89MOL   H22033836   6.265   6.715   0.618  0.6317 -1.4441  0.9935
   89MOL   H22133837   6.485   6.748   0.827  0.0471  1.7039 -1.6388
   89MOL   H22233838   6.411   6.804   1.010  1.7246 -0.6819 -1.9520
   89MOL   H22333839   6.145   6.767   1.091  0.3667  0.5100 -1.1967
   89MOL   H22433840   6.307   6.950   1.157 -2.0547 -0.9827 -1.8182
   89MOL   H22533841   6.194   6.906   1.283  1.9534 -0.7257  2.7694
   89MOL   H22633842   6.362   6.852   1.289  1.6677  2.1184 -1.5064
   89MOL   H22733843   6.201   6.633   1.303  0.3619  0.9240  0.4221
   89MOL   H22833844   6.349   6.592   1.221 -0.6430  2.1297  4.3571
   89MOL   H22933845   6.195   6.540   1.147  2.2443 -0.9345 -1.6857
   89MOL   C23033846   6.457   6.556   0.729  0.0684  0.9242  0.7031
   89MOL   C23133847   6.569   6.494   0.814  0.4031  0.3433  0.0275
   89MOL   C23233848   6.543   6.365   0.901 -0.9038 -0.1627  0.5223
   89MOL   O23333849   6.626   6.271   0.907 -0.0705  0.0494 -0.1747
   89MOL   N23433850   6.430   6.361   0.971 -0.0380  0.2166 -0.1230
   89MOL   C23533851   6.388   6.243   1.042 -0.6305 -0.2541 -0.2186
   89MOL   C23633852   6.435   6.247   1.183  0.5064  0.0514  0.4972
   89MOL   C23733853   6.236   6.236   1.039  0.3920  0.0589  0.2514
   89MOL   H23833854   6.479   6.569   0.623 -1.5574 -0.9898  0.0975
   89MOL   H23933855   6.384   6.475   0.731  0.4025  0.5599 -1.0284
   89MOL   H24033856   6.597   6.564   0.893  0.5419 -0.1619  0.4308
   89MOL   H24133857   6.372   6.443   0.958 -0.7203 -0.2032  0.2756
   89MOL   H24233858   6.427   6.150   1.000  1.1397 -0.3535  1.5278
   89MOL   H24333859   6.390   6.331   1.237  0.7613  0.3390  0.2608
   89MOL   H24433860   6.402   6.154   1.228  0.1240  0.1104  0.3405
   89MOL   H24533861   6.544   6.242   1.191  0.4352  0.8599  2.3946
   89MOL   H24633862   6.194   6.144   1.080  1.3510 -0.8100 -0.6827
   89MOL   H24733863   6.207   6.235   0.934 -1.9126  1.0581  0.8497
   89MOL   H24833864   6.187   6.324   1.081  0.9080  0.1885  0.5858
   89MOL   C24933865   6.690   6.467   0.721 -0.5572  0.3376  0.0908
   89MOL   C25033866   6.832   6.454   0.791  0.3443 -0.8226  0.0486
   89MOL   C25133867   6.903   6.591   0.794 -0.4250 -0.2401  0.0260
   89MOL   O25233868   6.896   6.665   0.699  0.7532 -0.2808  0.4543
   89MOL   N25333869   6.981   6.617   0.900 -0.3239 -0.3741  0.2025
   89MOL   C25433870   7.057   6.741   0.916  0.4106  0.0676 -0.4683
   89MOL   C25533871   7.068   6.780   1.063  0.1263 -0.1181 -0.0827
   89MOL   C25633872   7.195   6.720   0.851 -0.5869 -0.3179 -1.1271
   89MOL   H25733873   6.689   6.544   0.643  0.1822  0.6795  0.4080
   89MOL   H25833874   6.671   6.381   0.657 -1.2717  0.4215  0.1851
   89MOL   H25933875   6.819   6.430   0.896  0.7520 -1.4216 -0.0371
   89MOL   H26033876   6.992   6.547   0.972  1.4581  0.2393  0.5577
   89MOL   H26133877   7.015   6.829   0.867 -1.4312 -0.8333 -0.5602
   89MOL   H26233878   7.132   6.868   1.072 -0.0633 -0.0279  0.3682
   89MOL   H26333879   6.979   6.806   1.119  0.7160 -3.0984  2.3898
   89MOL   H26433880   7.119   6.705   1.123 -1.8334 -0.7312  0.8629
   89MOL   H26533881   7.255   6.646   0.904  0.1846 -0.2346 -1.8644
   89MOL   H26633882   7.174   6.696   0.747 -1.5262 -0.7875 -0.8288
   89MOL   H26733883   7.256   6.811   0.854 -0.7264 -0.2539  1.9627
   89MOL   C26833884   6.913   6.341   0.726 -0.1406  1.0763  0.2046
   89MOL   C26933885   7.061   6.314   0.780  0.0830  0.6890  0.1850
   89MOL   C27033886   7.067   6.219   0.906 -0.3564  0.9807 -0.2966
   89MOL   O27133887   7.174   6.207   0.960  0.2368  0.8061  0.0224
   89MOL   N27233888   6.953   6.162   0.948 -0.4669  0.2837 -0.7505
   89MOL   C27333889   6.950   6.059   1.055  0.3829 -0.0908  0.5746
   89MOL   C27433890   6.863   6.119   1.171 -0.0022  0.1904 -0.1576
   89MOL   C27533891   6.899   5.917   1.010  0.9475 -0.5031 -0.5623
   89MOL   H27633892   6.855   6.249   0.719 -1.2168  1.7606  0.0253
   89MOL   H27733893   6.928   6.362   0.620 -0.2098  0.7885  0.1369
   89MOL   H27833894   7.109   6.402   0.822 -1.3699  2.0001 -0.8047
   89MOL   H27933895   6.865   6.188   0.906 -0.3924  1.6530 -0.0814
   89MOL   H28033896   7.055   6.036   1.075  0.3052 -2.3421 -1.3707
   89MOL   H28133897   6.856   6.050   1.255 -0.3794 -1.1249 -1.2434
   89MOL   H28233898   6.911   6.210   1.208 -3.3883  2.0269 -0.1323
   89MOL   H28333899   6.765   6.139   1.128 -0.2107 -1.2103 -0.3432
   89MOL   H28433900   6.950   5.875   0.924  1.0099 -1.0376 -0.2690
   89MOL   H28533901   6.902   5.846   1.093  0.2124 -1.1662 -1.0916
   89MOL   H28633902   6.800   5.929   0.968 -0.0751 -2.7622  1.0712
   89MOL   C28733903   7.147   6.266   0.658 -0.2353 -0.2579 -1.4123
   89MOL   C28833904   7.106   6.126   0.609 -0.6402  0.3120  0.4859
   89MOL   C28933905   7.230   6.037   0.647 -0.0476  0.0084  0.4709
   89MOL   O29033906   7.333   6.041   0.587  0.4439 -0.7598  0.3769
   89MOL   N29133907   7.216   5.957   0.754 -0.1384 -0.3816  0.0864
   89MOL   C29233908   7.315   5.862   0.815 -0.1750 -0.5206 -0.4462
   89MOL   C29333909   7.324   5.881   0.969  0.3474  0.0464  0.1690
   89MOL   C29433910   7.275   5.720   0.779 -0.4969  0.0136  0.0508
   89MOL   H29533911   7.142   6.341   0.579  0.6151  0.5320 -0.7228
   89MOL   H29633912   7.252   6.265   0.686 -0.3995 -1.1291 -0.8148
   89MOL   H29733913   7.009   6.095   0.649 -0.6423  0.4895  0.6194
   89MOL   H29833914   7.144   5.982   0.821 -0.0480 -0.4365  0.2033
   89MOL   H29933915   7.418   5.887   0.790 -0.2662  2.3647  1.7019
   89MOL   H30033916   7.343   5.987   0.990 -1.7111  0.5298 -0.2859
   89MOL   H30133917   7.230   5.849   1.012 -0.0213 -0.1059 -0.7348
   89MOL   H30233918   7.402   5.834   1.028 -0.6640  0.0257  1.5063
   89MOL   H30333919   7.206   5.677   0.852  0.1102 -1.3052 -0.1409
   89MOL   H30433920   7.230   5.725   0.681  0.8533 -2.1413 -0.7306
   89MOL   H30533921   7.362   5.654   0.777 -1.1224 -0.9545  2.1600
   89MOL   C30633922   7.080   6.125   0.457  0.5569  0.5637  1.3978
   89MOL   C30733923   7.019   5.995   0.389  0.1542  0.5507  0.3990
   89MOL   C30833924   7.102   5.974   0.257 -0.4456 -0.5516 -0.4031
   89MOL   O30933925   7.044   5.979   0.147  0.4023  0.1473 -0.4664
   89MOL   N31033926   7.233   5.956   0.257 -0.4302  0.2376 -0.9303
   89MOL   C31133927   7.324   5.916   0.148 -0.0046 -0.1262 -0.1477
   89MOL   C31233928   7.318   5.768   0.104 -0.3323  0.0229  0.0844
   89MOL   C31333929   7.314   6.014   0.029  0.7958 -0.0593 -0.6120
   89MOL   H31433930   7.019   6.212   0.430  2.4844  0.3750 -4.0764
   89MOL   H31533931   7.171   6.156   0.407 -0.1804  0.1804 -0.1988
   89MOL   H31633932   7.066   5.914   0.445 -0.0058  0.5676  0.5556
   89MOL   H31733933   7.278   5.931   0.344 -1.2657 -1.4066 -0.9440
   89MOL   H31833934   7.428   5.926   0.178  0.5964 -1.3410 -1.8346
   89MOL   H31933935   7.220   5.726   0.082 -0.5643 -0.5664  2.1526
   89MOL   H32033936   7.363   5.694   0.171 -0.2138  1.0513  1.1625
   89MOL   H32133937   7.385   5.760   0.019  0.5720  1.1532  0.6766
   89MOL   H32233938   7.234   5.989   7.796 -0.9838  1.6903  0.7752
   89MOL   H32333939   7.399   6.000   7.798 -1.3952 -0.5990 -3.3334
   89MOL   H32433940   7.300   6.118   0.055  1.2766 -0.5657  1.7857
   89MOL   C32533941   6.862   5.968   0.377 -0.3959 -0.3884 -0.2990
   89MOL   C32633942   6.831   5.818   0.350 -0.0356  0.0324  0.2810
   89MOL   C32733943   6.895   5.727   0.457 -0.3131  0.3901 -0.3168
   89MOL   O32833944   6.932   5.764   0.570 -0.2537  0.1810  0.9587
   89MOL   N32933945   6.912   5.604   0.412 -0.3332  0.1961 -0.6109
   89MOL   C33033946   6.989   5.500   0.472 -0.4349  0.4627 -0.3308
   89MOL   C33133947   7.132   5.510   0.446 -0.3408  0.0923  0.1427
   89MOL   C33233948   6.930   5.364   0.434  0.0825  0.5962 -0.0784
   89MOL   H33333949   6.808   6.036   0.310  3.0835  1.6389 -1.1811
   89MOL   H33433950   6.821   5.994   0.475  1.7823 -0.2410  0.5862
   89MOL   H33533951   6.871   5.791   0.253  0.2112  0.5155  0.2498
   89MOL   H33633952   6.868   5.579   0.325  0.7041 -2.8634 -0.3248
   89MOL   H33733953   6.971   5.511   0.579 -2.2639 -0.9183 -0.4680
   89MOL   H33833954   7.189   5.423   0.480  0.4727 -0.5146 -2.6685
   89MOL   H33933955   7.164   5.523   0.343 -0.1954 -1.2078  0.0155
   89MOL   H34033956   7.176   5.599   0.491 -0.1199  0.3484 -0.5744
   89MOL   H34133957   6.916   5.348   0.327 -0.2506  1.8637 -0.2346
   89MOL   H34233958   6.831   5.362   0.480  0.7542 -1.8835  1.3403
   89MOL   H34333959   6.987   5.273   0.453 -0.9371  0.1293  0.7964
   89MOL   C34433960   6.677   5.790   0.366 -0.1615  0.5589  0.5128
   89MOL   C34533961   6.591   5.855   0.255 -0.4619  0.2675  0.2778
   89MOL   C34633962   6.622   5.782   0.125 -0.3330  0.5291 -0.0984
   89MOL   O34733963   6.625   5.662   0.115 -0.0320  0.3666 -0.1577
   89MOL   N34833964   6.650   5.852   0.015 -0.2409  0.0206 -0.0245
   89MOL   C34933965   6.685   5.794   7.717  0.5489  0.3879 -0.0032
   89MOL   C35033966   6.562   5.784   7.621 -0.0178  0.3214 -0.6475
   89MOL   C35133967   6.790   5.889   7.660  0.5185 -0.0953  0.4159
   89MOL   H35233968   6.640   5.827   0.462 -1.4754 -1.4540  0.8021
   89MOL   H35333969   6.657   5.683   0.369  2.1039  0.1460  2.0040
   89MOL   H35433970   6.619   5.960   0.249 -1.1078  0.3893 -0.7588
   89MOL   H35533971   6.653   5.951   0.035 -0.0366  0.1640 -0.7517
   89MOL   H35633972   6.730   5.695   7.725  2.5302  1.1616 -1.1559
   89MOL   H35733973   6.482   5.723   7.663  0.1576 -0.0861 -0.9081
   89MOL   H35833974   6.536   5.886   7.593  0.2508  0.3436 -0.8165
   89MOL   H35933975   6.583   5.742   7.523  2.6094 -0.8490  0.3823
   89MOL   H36033976   6.816   5.864   7.557 -0.3095 -1.9189  0.6242
   89MOL   H36133977   6.752   5.991   7.672  2.0780  0.6602 -0.9041
   89MOL   H36233978   6.881   5.882   7.720  1.9010 -0.3977 -1.6695
   89MOL   C36333979   6.438   5.836   0.274 -0.1675  0.2191  0.0744
   89MOL   C36433980   6.338   5.834   0.151 -0.4676  0.5847  0.0866
   89MOL   C36533981   6.323   5.965   0.073 -0.7439  0.8421 -0.6504
   89MOL   O36633982   6.426   6.040   0.058  1.4555 -0.7652  0.0428
   89MOL   N36733983   6.204   5.991   0.017  0.1399 -0.6361  0.5039
   89MOL   C36833984   6.167   6.106   7.771 -0.4813 -0.2932  0.3347
   89MOL   C36933985   6.034   6.072   7.703  0.8930  0.0078  0.1067
   89MOL   C37033986   6.145   6.236   0.011 -0.2094  0.8323 -0.0589
   89MOL   H37133987   6.422   5.913   0.349  0.9549 -0.2175  0.7740
   89MOL   H37233988   6.429   5.743   0.331  1.7813 -0.7483 -1.1333
   89MOL   H37333989   6.236   5.804   0.176  0.5234 -1.0346  2.3931
   89MOL   H37433990   6.144   5.909   0.018  1.9777 -2.0341 -0.6163
   89MOL   H37533991   6.246   6.115   7.696 -0.4314  0.2286  0.4443
   89MOL   H37633992   6.056   5.988   7.636 -0.3637  1.0734 -1.6706
   89MOL   H37733993   5.965   6.056   7.787  2.0680 -1.3852  0.8443
   89MOL   H37833994   5.987   6.145   7.638  0.3870 -2.0588 -1.9213
   89MOL   H37933995   6.121   6.305   7.766  3.3638  0.8274 -1.2230
   89MOL   H38033996   6.075   6.232   0.095 -0.5228 -1.8671 -0.4066
   89MOL   H38133997   6.233   6.284   0.055 -0.4185  1.5921 -0.4587
   89MOL   H38233998   6.366   5.754   0.083  0.9822  0.2338  1.0907
   90MOL     C133999   2.465   6.284   3.325 -0.2815  0.1576 -0.2669
   90MOL     C234000   2.400   6.378   3.216 -0.2949 -0.8302 -0.4175
   90MOL     C334001   2.452   6.520   3.224  0.1854 -0.6074 -0.0298
   90MOL     O434002   2.570   6.547   3.192  0.6579  0.4258 -0.4306
   90MOL     N534003   2.373   6.612   3.281 -0.4326  0.0843  0.3144
   90MOL     C634004   2.400   6.757   3.287  1.1692  0.2645  0.2499
   90MOL     C734005   2.305   6.822   3.182  0.6467  0.0647  0.4914
   90MOL     C834006   2.372   6.826   3.422  0.3014  1.0020  0.1940
   90MOL     H934007   2.405   6.268   3.414 -1.1876 -1.9068 -1.2109
   90MOL    H1034008   2.562   6.323   3.355 -0.8625 -0.1257  2.0388
   90MOL    H1134009   2.293   6.390   3.229  0.1281  3.1115 -0.0735
   90MOL    H1234010   2.286   6.582   3.322 -0.9087  1.4615  0.3599
   90MOL    H1334011   2.505   6.781   3.267  1.3188 -1.4876 -1.2619
   90MOL    H1434012   2.306   6.930   3.191  0.2405  0.0444  0.8134
   90MOL    H1534013   2.206   6.777   3.176  1.3527 -1.3453 -0.7833
   90MOL    H1634014   2.344   6.808   3.081 -0.5287  0.3990 -0.0213
   90MOL    H1734015   2.364   6.932   3.396  0.4808  1.3894  1.6899
   90MOL    H1834016   2.281   6.789   3.469 -0.2948 -0.2880 -1.9154
   90MOL    H1934017   2.449   6.801   3.495 -1.8574 -0.8510  1.9015
   90MOL    H2034018   2.483   6.185   3.281  0.8073 -0.0622  0.6445
   90MOL    C2134019   2.425   6.326   3.066 -0.2287  0.8350 -0.2100
   90MOL    C2234020   2.331   6.224   2.999  0.6219  0.1013 -0.3112
   90MOL    C2334021   2.208   6.299   2.952  0.3126  0.2381  0.0949
   90MOL    O2434022   2.208   6.387   2.865  0.4014  0.6243  0.5972
   90MOL    N2534023   2.092   6.273   3.008  0.3216 -0.1726  0.1848
   90MOL    C2634024   1.968   6.339   2.979  0.3974  0.0124  0.7083
   90MOL    C2734025   1.932   6.445   3.086  0.1331  0.0690  0.4750
   90MOL    C2834026   1.858   6.237   2.963  0.4050 -0.6317  0.5194
   90MOL    H2934027   2.526   6.284   3.069 -0.5348  0.0933 -0.2956
   90MOL    H3034028   2.429   6.413   3.001  1.0680 -0.3098 -1.6785
   90MOL    H3134029   2.372   6.213   2.898  0.8900  1.5698 -0.3707
   90MOL    H3234030   2.098   6.218   3.092  0.1055  2.2772  1.8606
   90MOL    H3334031   1.971   6.390   2.882 -0.0794 -0.4691  0.4394
   90MOL    H3434032   1.832   6.478   3.059  1.0305  1.3726 -1.3430
   90MOL    H3534033   2.006   6.525   3.085  0.8017 -0.5294  1.5209
   90MOL    H3634034   1.943   6.411   3.189 -0.7216  1.7740  1.1360
   90MOL    H3734035   1.765   6.279   2.925  1.0666 -0.3631 -0.8069
   90MOL    H3834036   1.889   6.163   2.889  1.0539  1.4943 -1.3842
   90MOL    H3934037   1.823   6.178   3.049 -3.9950 -2.2016 -2.1593
   90MOL    C4034038   2.304   6.086   3.063 -0.4344 -0.8315 -0.0327
   90MOL    C4134039   2.430   5.995   3.045 -0.7607 -0.1405  0.6686
   90MOL    C4234040   2.434   5.945   2.896 -0.0361  0.6228  0.5038
   90MOL    O4334041   2.332   5.902   2.848  0.0031 -0.0184 -0.0675
   90MOL    N4434042   2.544   5.970   2.823 -0.2577  0.0418  0.2849
   90MOL    C4534043   2.543   5.972   2.677 -0.2437  0.0829 -0.0518
   90MOL    C4634044   2.594   6.103   2.624 -0.1338  0.8749 -0.5918
   90MOL    C4734045   2.636   5.859   2.627 -0.7153  0.3836 -0.1116
   90MOL    H4834046   2.219   6.029   3.026 -2.8606  1.5466  1.6601
   90MOL    H4934047   2.288   6.101   3.170 -1.4153 -1.1741 -0.1253
   90MOL    H5034048   2.524   6.051   3.053 -0.8203  0.0670 -0.0728
   90MOL    H5134049   2.631   5.970   2.876 -1.0504 -0.1892  1.6157
   90MOL    H5234050   2.439   5.962   2.647 -0.0603  0.3098 -0.7606
   90MOL    H5334051   2.697   6.127   2.650 -0.4519  1.8378 -0.1892
   90MOL    H5434052   2.525   6.186   2.643  0.6120  1.4237 -0.2407
   90MOL    H5534053   2.600   6.103   2.515  0.9077  1.2425 -0.5468
   90MOL    H5634054   2.648   5.848   2.519  0.3164 -0.5590  0.0904
   90MOL    H5734055   2.596   5.763   2.658 -1.6164  0.4359 -1.0749
   90MOL    H5834056   2.737   5.878   2.662 -0.2266 -1.9089 -0.1881
   90MOL    C5934057   2.436   5.882   3.148 -0.5794  0.2681 -0.4246
   90MOL    C6034058   2.560   5.782   3.133 -1.0497 -0.8999  0.5825
   90MOL    C6134059   2.697   5.855   3.118 -0.2396  0.0834  0.7092
   90MOL    O6234060   2.749   5.871   3.007  0.3311  0.1376 -0.4531
   90MOL    N6334061   2.746   5.906   3.232 -0.2296 -0.3550 -0.0695
   90MOL    C6434062   2.863   5.993   3.220 -0.5598 -0.0018 -0.2494
   90MOL    C6534063   2.826   6.135   3.191  0.5582 -0.0165 -0.6885
   90MOL    C6634064   2.955   5.981   3.344  1.3370  0.5851 -0.6419
   90MOL    H6734065   2.437   5.920   3.250  3.5121  1.0161 -0.6476
   90MOL    H6834066   2.338   5.834   3.146 -1.4460  2.0076 -0.6470
   90MOL    H6934067   2.577   5.746   3.235  0.5934 -2.4207 -0.1913
   90MOL    H7034068   2.698   5.893   3.319  1.3704  0.9089  1.0438
   90MOL    H7134069   2.924   5.962   3.136 -0.0741 -0.7615  0.3865
   90MOL    H7234070   2.795   6.162   3.090 -0.0565  0.1426 -0.4629
   90MOL    H7334071   2.760   6.185   3.262  0.6798  1.0629 -1.3258
   90MOL    H7434072   2.918   6.193   3.192  0.6918 -0.2283 -0.9560
   90MOL    H7534073   2.908   6.030   3.429  0.0635 -1.1053 -0.3439
   90MOL    H7634074   2.978   5.882   3.383 -1.8128  1.1379  2.9244
   90MOL    H7734075   3.048   6.037   3.336  2.5964 -1.3123  0.3427
   90MOL    C7834076   2.539   5.664   3.037 -0.2490  0.2109 -0.2775
   90MOL    C7934077   2.637   5.546   3.058 -0.1426  0.2053  0.2048
   90MOL    C8034078   2.644   5.487   3.199 -0.2648 -0.2153  0.4511
   90MOL    O8134079   2.548   5.484   3.273  0.4261  0.7795 -0.0499
   90MOL    N8234080   2.769   5.450   3.237  0.0390  0.3226  0.1721
   90MOL    C8334081   2.813   5.385   3.355 -0.2445 -0.0401  0.3288
   90MOL    C8434082   2.804   5.470   3.483  0.5081  0.1319  0.5736
   90MOL    C8534083   2.737   5.252   3.392  0.1188  0.1446 -0.2533
   90MOL    H8634084   2.544   5.701   2.935 -1.1749  0.3509 -0.2802
   90MOL    H8734085   2.439   5.625   3.054  0.4112 -2.0759 -1.4222
   90MOL    H8834086   2.739   5.577   3.035  0.7635  0.3215  4.0888
   90MOL    H8934087   2.839   5.437   3.166 -1.0137  1.5555 -1.1308
   90MOL    H9034088   2.914   5.350   3.336 -0.1080  1.3427 -1.5541
   90MOL    H9134089   2.864   5.561   3.482 -0.3456  0.7041 -2.5304
   90MOL    H9234090   2.701   5.503   3.496 -0.2104 -2.1860  1.0772
   90MOL    H9334091   2.837   5.417   3.573  0.0687 -2.5845 -0.8014
   90MOL    H9434092   2.720   5.185   3.308 -1.1869 -0.1928  0.2567
   90MOL    H9534093   2.636   5.283   3.421  0.7366  0.3738  1.6848
   90MOL    H9634094   2.783   5.200   3.476 -3.1176  1.9929  2.8235
   90MOL    C9734095   2.594   5.424   2.966 -0.2015 -0.1620  0.3018
   90MOL    C9834096   2.616   5.440   2.813  0.2800 -0.1400 -0.6377
   90MOL    C9934097   2.548   5.336   2.726 -0.0889 -0.0738 -0.7170
   90MOL   O10034098   2.528   5.231   2.776 -0.4787 -0.6194 -0.2742
   90MOL   N10134099   2.506   5.373   2.604 -0.3749  0.0858 -0.1792
   90MOL   C10234100   2.433   5.281   2.513 -0.0407 -0.1970 -0.3149
   90MOL   C10334101   2.279   5.295   2.529  0.3474 -0.3518 -0.8495
   90MOL   C10434102   2.473   5.308   2.367 -0.1910  0.1402  0.1343
   90MOL   H10534103   2.499   5.380   2.998  0.8240 -2.3700  0.4556
   90MOL   H10634104   2.658   5.339   2.991  0.9932  0.7202  0.3153
   90MOL   H10734105   2.568   5.536   2.794  2.0586  0.7758 -0.6012
   90MOL   H10834106   2.520   5.468   2.573 -0.4024  1.0256  2.5357
   90MOL   H10934107   2.460   5.176   2.527  1.0099  0.0050 -0.7779
   90MOL   H11034108   2.227   5.225   2.463  2.5743 -0.0204 -3.0487
   90MOL   H11134109   2.237   5.265   2.625 -0.5712 -1.8864 -1.7072
   90MOL   H11234110   2.247   5.396   2.503 -0.4732 -0.7610 -1.4398
   90MOL   H11334111   2.578   5.280   2.360 -0.1404  0.6287 -1.1785
   90MOL   H11434112   2.452   5.412   2.343 -0.8988 -0.1753 -0.6224
   90MOL   H11534113   2.419   5.236   2.306  1.0523 -0.9350  0.2720
   90MOL   C11634114   2.769   5.445   2.773 -0.4588 -0.0879 -0.0735
   90MOL   C11734115   2.852   5.308   2.789 -0.3030 -0.0209  1.1848
   90MOL   C11834116   2.923   5.312   2.927  0.9251  0.3078 -0.3044
   90MOL   O11934117   2.892   5.400   3.001 -0.3990  0.4489  0.5052
   90MOL   N12034118   3.001   5.211   2.968  0.6168  0.3617 -0.0859
   90MOL   C12134119   3.057   5.191   3.099 -0.8134 -0.0901 -0.1228
   90MOL   C12234120   2.995   5.062   3.171  1.1044 -0.7036 -0.9717
   90MOL   C12334121   3.201   5.189   3.097 -0.0024 -0.0740 -0.3949
   90MOL   H12434122   2.829   5.526   2.813 -0.3918  0.1361 -0.6135
   90MOL   H12534123   2.761   5.466   2.666  1.2626  0.9082 -0.0273
   90MOL   H12634124   2.787   5.220   2.790  0.8345 -0.8901  0.3754
   90MOL   H12734125   3.030   5.150   2.893  1.3908 -0.2945  0.7474
   90MOL   H12834126   3.035   5.273   3.167  2.6146  2.0593 -1.5021
   90MOL   H12934127   3.011   4.968   3.119  2.3369 -1.8756  1.4417
   90MOL   H13034128   2.888   5.078   3.186  0.9142  0.2392 -3.1343
   90MOL   H13134129   3.035   5.045   3.271  0.4185  1.8448 -0.2096
   90MOL   H13234130   3.235   5.272   3.035 -0.5576 -0.2480 -0.9306
   90MOL   H13334131   3.251   5.210   3.192 -2.0968 -0.2466  0.7690
   90MOL   H13434132   3.238   5.093   3.059  0.0150 -0.0357 -0.4760
   90MOL   C13534133   2.947   5.277   2.670 -0.5419 -0.5605 -0.5702
   90MOL   C13634134   2.867   5.189   2.572 -0.3523  0.4372 -0.0919
   90MOL   C13734135   2.926   5.186   2.430  0.5214 -0.5481 -0.2574
   90MOL   O13834136   3.050   5.175   2.414  1.1120 -0.0365  0.5753
   90MOL   N13934137   2.835   5.182   2.335 -0.5884  0.2989 -0.3336
   90MOL   C14034138   2.855   5.190   2.195 -0.9598 -0.7525  0.6175
   90MOL   C14134139   2.719   5.184   2.112 -0.4293  0.2558 -0.3581
   90MOL   C14234140   2.940   5.078   2.150  0.6597 -0.4849  0.1124
   90MOL   H14334141   3.044   5.234   2.697 -0.4695 -0.5462 -0.8028
   90MOL   H14434142   2.990   5.367   2.626 -0.7378 -0.2043 -0.0380
   90MOL   H14534143   2.766   5.225   2.551  0.1466  1.7217 -0.3237
   90MOL   H14634144   2.744   5.212   2.368 -0.0074  0.0701  1.5123
   90MOL   H14734145   2.901   5.286   2.171 -0.1353 -1.1926  0.4152
   90MOL   H14834146   2.736   5.176   2.004 -0.6707  3.5844 -0.7036
   90MOL   H14934147   2.658   5.102   2.150 -1.4642  1.0997 -0.1708
   90MOL   H15034148   2.666   5.279   2.117 -0.8489  0.0386 -0.6232
   90MOL   H15134149   2.897   4.983   2.182 -2.1848  0.9115  0.6134
   90MOL   H15234150   3.036   5.078   2.202  0.1384  0.4866  1.0730
   90MOL   H15334151   2.970   5.080   2.045 -0.6990 -1.9267 -0.3229
   90MOL   C15434152   2.858   5.039   2.629  0.0798 -0.5953 -0.0808
   90MOL   C15534153   2.739   4.953   2.590  0.0485 -0.1149 -0.2642
   90MOL   C15634154   2.684   4.872   2.708 -0.4269  0.7459  0.5404
   90MOL   O15734155   2.701   4.748   2.710 -0.2855 -0.3846  0.6958
   90MOL   N15834156   2.622   4.947   2.806 -0.3137  0.0930  0.0029
   90MOL   C15934157   2.594   4.897   2.944 -0.6019 -0.7073 -0.1083
   90MOL   C16034158   2.447   4.930   2.979 -0.2761 -0.2848 -0.0104
   90MOL   C16134159   2.688   4.947   3.053 -0.1555  0.1564  0.0005
   90MOL   H16234160   2.882   5.034   2.735  0.0324  1.5906  0.0538
   90MOL   H16334161   2.944   4.980   2.597  0.7777  0.3916 -0.0073
   90MOL   H16434162   2.666   5.026   2.557 -0.9694 -1.1964 -0.4232
   90MOL   H16534163   2.609   5.044   2.782 -0.8753 -0.3584 -1.5650
   90MOL   H16634164   2.595   4.788   2.941 -2.0981 -0.7396 -0.0436
   90MOL   H16734165   2.368   4.909   2.906 -1.8050 -0.8418  1.7708
   90MOL   H16834166   2.417   4.880   3.071  0.8510 -0.1659  0.4307
   90MOL   H16934167   2.439   5.038   2.989  0.0119 -0.1528 -1.0900
   90MOL   H17034168   2.663   4.885   3.139 -0.6087  0.7356  0.2921
   90MOL   H17134169   2.661   5.050   3.076 -0.3465 -0.0128  0.5313
   90MOL   H17234170   2.793   4.930   3.029  0.3385  0.6417  1.7187
   90MOL   C17334171   2.780   4.858   2.468 -0.2333 -0.5515  0.2293
   90MOL   C17434172   2.663   4.775   2.405 -0.1552 -0.2498  0.1871
   90MOL   C17534173   2.540   4.861   2.390 -0.0742  0.5907 -1.2556
   90MOL   O17634174   2.549   4.971   2.338  0.5693 -0.1040  0.4929
   90MOL   N17734175   2.423   4.811   2.437  0.5382 -0.3564  0.7686
   90MOL   C17834176   2.305   4.897   2.447 -0.5812  0.2321 -0.2304
   90MOL   C17934177   2.264   4.933   2.594 -0.1526  0.0160  0.5334
   90MOL   C18034178   2.188   4.809   2.385 -0.4103  0.7545  0.1182
   90MOL   H18134179   2.855   4.785   2.500 -0.8857 -1.1380  0.4514
   90MOL   H18234180   2.823   4.919   2.390 -0.2367 -0.6178  0.1758
   90MOL   H18334181   2.652   4.692   2.474 -1.8770 -1.8226 -1.8981
   90MOL   H18434182   2.416   4.721   2.481  0.5691 -0.3934  0.6986
   90MOL   H18534183   2.324   4.983   2.383  2.1183 -1.4635 -1.8165
   90MOL   H18634184   2.323   5.009   2.644  0.1998  1.5892 -2.2067
   90MOL   H18734185   2.282   4.844   2.654  1.3383  0.4267  0.7064
   90MOL   H18834186   2.156   4.951   2.600  0.1638  2.0205  0.3834
   90MOL   H18934187   2.087   4.846   2.399 -1.2944 -1.9346  1.1157
   90MOL   H19034188   2.173   4.717   2.441  1.3730 -1.2393 -2.5351
   90MOL   H19134189   2.217   4.782   2.283  1.4938  0.0949  0.7975
   90MOL   C19234190   2.718   4.712   2.270 -0.7569 -0.2015  0.1900
   90MOL   C19334191   2.632   4.607   2.186 -0.3127  0.4453 -0.0696
   90MOL   C19434192   2.512   4.664   2.111 -0.5953 -0.1046 -0.0712
   90MOL   O19534193   2.396   4.634   2.139  0.2178 -0.3512  0.0856
   90MOL   N19634194   2.547   4.758   2.025 -0.4078 -0.0850 -0.3591
   90MOL   C19734195   2.451   4.838   1.952 -0.2611 -0.0947  0.0626
   90MOL   C19834196   2.437   4.981   2.015 -0.3047 -0.7753 -0.2843
   90MOL   C19934197   2.490   4.843   1.802  0.8428  0.0822 -0.2056
   90MOL   H20034198   2.817   4.672   2.290  0.1437 -0.1058 -3.6516
   90MOL   H20134199   2.744   4.795   2.204  3.3541 -0.4189  1.4177
   90MOL   H20234200   2.704   4.563   2.117 -0.4998 -0.9244  0.5852
   90MOL   H20334201   2.638   4.754   1.982 -0.3856 -2.1013 -0.2078
   90MOL   H20434202   2.349   4.798   1.948 -1.0498  1.9303 -0.5948
   90MOL   H20534203   2.532   5.025   1.983  0.7163 -1.1732  2.0781
   90MOL   H20634204   2.437   4.976   2.124 -2.2703  1.1098 -0.1569
   90MOL   H20734205   2.353   5.039   1.977  0.2344  1.1352  1.3783
   90MOL   H20834206   2.420   4.894   1.735 -0.0445 -2.3395 -1.1952
   90MOL   H20934207   2.484   4.743   1.760  1.1475 -0.1732  0.3560
   90MOL   H21034208   2.582   4.897   1.781 -0.3571  3.0242  1.7013
   90MOL   C21134209   2.595   4.487   2.278  0.9324  0.2547 -0.1083
   90MOL   C21234210   2.534   4.351   2.207 -0.5316  0.1505  0.0908
   90MOL   C21334211   2.625   4.315   2.093 -1.2456 -0.5775 -0.1208
   90MOL   O21434212   2.738   4.279   2.117 -0.0535 -0.2423 -0.2039
   90MOL   N21534213   2.572   4.328   1.975  0.3608 -0.5506  0.0842
   90MOL   C21634214   2.641   4.321   1.848 -0.1576  0.0950  0.8069
   90MOL   C21734215   2.647   4.471   1.804 -0.1707  0.4559 -0.7947
   90MOL   C21834216   2.553   4.248   1.748 -0.4077  0.3827  0.7229
   90MOL   H21934217   2.523   4.517   2.354  0.7876 -0.5322  0.0728
   90MOL   H22034218   2.676   4.445   2.338  0.9631 -0.3401 -0.5613
   90MOL   H22134219   2.440   4.383   2.160 -0.7019 -0.3471  0.0906
   90MOL   H22234220   2.473   4.349   1.971  0.1917 -1.3139  0.1421
   90MOL   H22334221   2.744   4.285   1.842 -0.1278 -0.3314  3.2363
   90MOL   H22434222   2.740   4.514   1.840 -0.4334 -0.4945  1.0774
   90MOL   H22534223   2.648   4.467   1.695 -1.3365  0.5065 -0.8089
   90MOL   H22634224   2.572   4.542   1.838 -0.5951  1.0308 -2.8628
   90MOL   H22734225   2.583   4.230   1.645  0.8763  0.5856  1.0482
   90MOL   H22834226   2.462   4.306   1.736 -0.5399 -0.1030 -0.7591
   90MOL   H22934227   2.519   4.150   1.783 -1.3566  0.9151  1.3273
   90MOL   C23034228   2.517   4.232   2.305  0.9541  0.0111 -0.4020
   90MOL   C23134229   2.465   4.090   2.264 -0.0812 -0.0745 -0.4031
   90MOL   C23234230   2.345   4.094   2.174  0.0261 -0.0308  0.5359
   90MOL   O23334231   2.315   4.190   2.112  0.0883  0.0779 -0.5638
   90MOL   N23434232   2.274   3.983   2.178  0.0684 -0.0449 -0.2706
   90MOL   C23534233   2.144   3.967   2.108  0.3661 -0.4239  0.2093
   90MOL   C23634234   2.159   3.877   1.983 -0.3595 -0.4935  0.5780
   90MOL   C23734235   2.045   3.913   2.209  0.8552 -0.1528  0.1249
   90MOL   H23834236   2.443   4.270   2.376  1.0881  1.6203 -1.1029
   90MOL   H23934237   2.608   4.212   2.362  0.3964  4.0724  2.1032
   90MOL   H24034238   2.439   4.048   2.361  1.7732 -1.7813 -0.6225
   90MOL   H24134239   2.313   3.902   2.225 -0.1520 -0.2175 -0.3829
   90MOL   H24234240   2.103   4.065   2.080  2.1213  0.2899  0.1047
   90MOL   H24334241   2.203   3.782   2.014  0.3752 -0.3977 -0.1691
   90MOL   H24434242   2.060   3.844   1.951 -0.4039 -1.0445  1.2698
   90MOL   H24534243   2.211   3.930   1.903 -0.0385  1.9910  2.3635
   90MOL   H24634244   1.946   3.911   2.165  1.5041 -0.5156 -1.3608
   90MOL   H24734245   2.042   3.962   2.307  1.3447 -1.2446  0.6994
   90MOL   H24834246   2.072   3.809   2.230 -3.4198 -0.5520  4.5551
   90MOL   C24934247   2.583   3.998   2.223  0.2455  0.6460  0.1426
   90MOL   C25034248   2.633   3.888   2.327  1.1301 -0.3641  0.5101
   90MOL   C25134249   2.535   3.769   2.342 -0.5095  0.4354  0.1554
   90MOL   O25234250   2.414   3.771   2.322  0.0750 -0.1837 -0.6967
   90MOL   N25334251   2.591   3.660   2.390  0.2334  0.2581  0.0001
   90MOL   C25434252   2.535   3.530   2.401 -0.3109  0.4226 -1.1519
   90MOL   C25534253   2.634   3.430   2.343 -0.2432  0.5766  0.2816
   90MOL   C25634254   2.503   3.497   2.547 -0.3388 -0.0118 -0.0131
   90MOL   H25734255   2.670   4.050   2.183  0.8831 -1.2284 -1.0018
   90MOL   H25834256   2.542   3.941   2.139  2.0727  1.0161 -1.0373
   90MOL   H25934257   2.721   3.845   2.279  2.8272  0.3478  2.9155
   90MOL   H26034258   2.682   3.685   2.426  0.2038  0.9367 -0.3889
   90MOL   H26134259   2.447   3.522   2.337 -2.0739  0.5706  1.2023
   90MOL   H26234260   2.711   3.424   2.420  0.4186 -0.0930 -0.4252
   90MOL   H26334261   2.610   3.327   2.318  3.5363  0.2329 -2.2776
   90MOL   H26434262   2.677   3.475   2.254 -0.2300 -0.4495 -0.2391
   90MOL   H26534263   2.416   3.558   2.569 -0.6781 -0.9353  1.2201
   90MOL   H26634264   2.472   3.396   2.574  0.5402 -0.6946 -1.4805
   90MOL   H26734265   2.580   3.516   2.622 -0.1582  1.8357 -0.6471
   90MOL   C26834266   2.680   3.939   2.465 -0.0314 -0.0868  0.4721
   90MOL   C26934267   2.833   3.971   2.482 -0.5399 -0.5742  0.7723
   90MOL   C27034268   2.906   3.838   2.499  0.1070  0.2801 -0.0707
   90MOL   O27134269   2.879   3.736   2.442 -0.5052 -0.4800 -0.4735
   90MOL   N27234270   3.004   3.836   2.590  0.5089  0.3195  0.3982
   90MOL   C27334271   3.113   3.734   2.592  0.8878  0.1947 -0.5393
   90MOL   C27434272   3.243   3.788   2.535  0.4422 -0.1050 -0.3606
   90MOL   C27534273   3.131   3.692   2.741 -0.1439  0.1515 -0.0980
   90MOL   H27634274   2.634   4.036   2.485 -1.1388 -0.4567 -0.2426
   90MOL   H27734275   2.655   3.876   2.550  3.6014 -2.2339  0.0689
   90MOL   H27834276   2.826   4.015   2.582 -1.5185  2.3993 -0.5564
   90MOL   H27934277   3.018   3.922   2.641 -1.6537 -0.2160  1.9809
   90MOL   H28034278   3.101   3.638   2.542 -0.7473 -0.0489  0.2710
   90MOL   H28134279   3.328   3.728   2.569 -0.6371 -0.7329  1.2812
   90MOL   H28234280   3.250   3.777   2.427  1.5522  0.1298 -0.3192
   90MOL   H28334281   3.261   3.889   2.570 -0.1146 -0.6069  1.4652
   90MOL   H28434282   3.155   3.586   2.750 -2.3130 -0.4538 -1.1283
   90MOL   H28534283   3.191   3.754   2.808 -2.3856  0.5462  1.6366
   90MOL   H28634284   3.038   3.703   2.798 -0.8543  0.1631 -1.2456
   90MOL   C28734285   2.890   4.070   2.373 -0.3310  0.3436  0.1440
   90MOL   C28834286   3.036   4.116   2.413 -0.0126  0.4103 -0.6382
   90MOL   C28934287   3.039   4.186   2.551 -0.1094  0.1236 -0.3932
   90MOL   O29034288   3.144   4.171   2.614 -0.3976 -0.5386 -0.1644
   90MOL   N29134289   2.934   4.255   2.600 -0.0586 -0.4013  0.3042
   90MOL   C29234290   2.926   4.324   2.732  0.2729  0.0437  0.2375
   90MOL   C29334291   2.927   4.472   2.693 -0.3160  0.5569 -0.1469
   90MOL   C29434292   2.811   4.288   2.822  0.4145  0.1024  0.2857
   90MOL   H29534293   2.888   4.008   2.283  1.4984  1.1784 -0.5090
   90MOL   H29634294   2.828   4.160   2.372  0.1355  0.6902  1.8428
   90MOL   H29734295   3.090   4.021   2.416 -2.4587 -1.0109  1.6224
   90MOL   H29834296   2.860   4.259   2.532 -0.3425 -0.2355  0.6220
   90MOL   H29934297   3.019   4.303   2.784  1.2774  0.4652 -1.3496
   90MOL   H30034298   2.830   4.508   2.657 -0.1296  1.9042  0.6651
   90MOL   H30134299   2.937   4.539   2.779 -0.3312  0.5320 -0.1257
   90MOL   H30234300   3.007   4.500   2.625 -1.3107  1.2742 -1.0494
   90MOL   H30334301   2.713   4.303   2.777  0.1462 -0.1563  0.7849
   90MOL   H30434302   2.806   4.191   2.871 -1.6289  1.5279  3.0126
   90MOL   H30534303   2.817   4.346   2.913 -0.3107  0.8078 -0.1103
   90MOL   C30634304   3.090   4.203   2.300 -0.4854 -0.6502  0.4164
   90MOL   C30734305   3.244   4.211   2.311 -0.4753  0.2644 -0.5639
   90MOL   C30834306   3.294   4.351   2.366 -0.3666  0.0644  0.3679
   90MOL   O30934307   3.338   4.436   2.290 -0.5107 -0.3120  0.1397
   90MOL   N31034308   3.308   4.362   2.502 -0.5096  0.0132  0.0525
   90MOL   C31134309   3.382   4.466   2.573  0.4486 -0.5956 -1.4915
   90MOL   C31234310   3.281   4.565   2.632 -0.0184 -0.1320  0.2966
   90MOL   C31334311   3.454   4.400   2.687  0.2304 -0.3614 -0.1733
   90MOL   H31434312   3.054   4.159   2.207 -0.4777 -1.7242  0.9030
   90MOL   H31534313   3.046   4.302   2.303 -0.1086 -0.5368  2.7548
   90MOL   H31634314   3.277   4.132   2.379  1.1409  1.4936  0.1177
   90MOL   H31734315   3.266   4.288   2.555 -1.1798  0.7969  0.6342
   90MOL   H31834316   3.465   4.507   2.514  1.1115  1.2095  0.6086
   90MOL   H31934317   3.325   4.653   2.679 -2.2524  1.3605 -0.3061
   90MOL   H32034318   3.214   4.513   2.700 -0.6149  2.4725  1.7632
   90MOL   H32134319   3.223   4.607   2.549 -0.2098 -0.7522  0.1206
   90MOL   H32234320   3.535   4.342   2.643  1.3200  3.8132 -4.1336
   90MOL   H32334321   3.387   4.339   2.748  1.7374 -0.8150  1.0793
   90MOL   H32434322   3.504   4.474   2.750  0.6950 -0.9584  0.1633
   90MOL   C32534323   3.307   4.172   2.171 -0.1833 -0.5624 -0.9013
   90MOL   C32634324   3.460   4.145   2.173 -1.0379  0.1305  0.8405
   90MOL   C32734325   3.486   4.012   2.248 -0.3919  0.7527  0.4879
   90MOL   O32834326   3.392   3.934   2.284 -0.2340 -0.7908 -0.0305
   90MOL   N32934327   3.616   3.992   2.276  0.7149  0.0023 -0.0210
   90MOL   C33034328   3.670   3.890   2.361 -0.9141  1.1087 -0.2651
   90MOL   C33134329   3.628   3.914   2.503  0.4658  0.2123  0.0275
   90MOL   C33234330   3.827   3.871   2.338 -0.0077  0.5336  0.5047
   90MOL   H33334331   3.296   4.251   2.097 -1.9803 -1.2989 -1.4455
   90MOL   H33434332   3.251   4.086   2.135 -1.2698  0.8101 -2.5797
   90MOL   H33534333   3.508   4.232   2.216 -1.8861  1.8958 -1.6485
   90MOL   H33634334   3.682   4.049   2.224  1.6727  0.5822  1.7764
   90MOL   H33734335   3.626   3.798   2.324  1.4067 -0.2185  0.1889
   90MOL   H33834336   3.520   3.926   2.514  0.0454 -0.8194 -2.6896
   90MOL   H33934337   3.656   3.823   2.556 -2.5480 -0.0315  1.2929
   90MOL   H34034338   3.673   3.998   2.555  1.4773  0.0543 -0.5783
   90MOL   H34134339   3.841   3.822   2.241 -1.6343  0.9368  0.0521
   90MOL   H34234340   3.879   3.819   2.419 -1.1264 -0.9424  0.2996
   90MOL   H34334341   3.886   3.962   2.329  0.3512  0.2514 -0.0094
   90MOL   C34434342   3.491   4.134   2.018  0.3838  0.3402 -0.1242
   90MOL   C34534343   3.523   4.256   1.921  0.0436 -0.4052  0.5259
   90MOL   C34634344   3.638   4.333   1.981  0.3316 -0.2102 -0.2112
   90MOL   O34734345   3.755   4.325   1.938  0.1666  0.0563  0.3483
   90MOL   N34834346   3.608   4.423   2.078 -0.5601 -0.3988  0.3023
   90MOL   C34934347   3.695   4.526   2.127 -0.1016 -0.2265  0.5825
   90MOL   C35034348   3.652   4.662   2.062  0.7025  0.2041 -0.1105
   90MOL   C35134349   3.676   4.544   2.277 -0.1725 -0.6731  0.1879
   90MOL   H35234350   3.406   4.076   1.981  0.8808 -1.0424  0.8555
   90MOL   H35334351   3.569   4.060   2.003  0.6635  0.9799 -1.9485
   90MOL   H35434352   3.434   4.319   1.923 -0.1480 -0.6058 -1.2912
   90MOL   H35534353   3.515   4.433   2.116 -1.2080  1.2267 -1.6701
   90MOL   H35634354   3.802   4.510   2.120 -0.0097  1.1501 -1.9152
   90MOL   H35734355   3.546   4.686   2.077  0.8462 -0.1868  1.6382
   90MOL   H35834356   3.716   4.742   2.098  0.3505  1.3556 -1.9473
   90MOL   H35934357   3.678   4.662   1.956 -0.4804  0.3418 -0.4141
   90MOL   H36034358   3.719   4.460   2.332  0.8281  1.3720  2.6526
   90MOL   H36134359   3.734   4.625   2.321 -1.0987 -0.1934  0.5428
   90MOL   H36234360   3.572   4.544   2.309  0.0225  0.7577  0.9016
   90MOL   C36334361   3.559   4.220   1.781  0.1880  0.0380  0.1208
   90MOL   C36434362   3.456   4.140   1.688 -0.2859  0.6094  0.2814
   90MOL   C36534363   3.414   3.995   1.721 -0.2136 -0.2114 -0.0002
   90MOL   O36634364   3.303   3.948   1.724  0.3562 -0.2158  0.6478
   90MOL   N36734365   3.520   3.917   1.739 -0.7004  0.4431 -0.2551
   90MOL   C36834366   3.533   3.781   1.797  0.2122 -0.2496 -0.8217
   90MOL   C36934367   3.660   3.702   1.744 -0.7316  0.3908  0.3165
   90MOL   C37034368   3.541   3.774   1.957 -0.2193 -1.2782 -0.0013
   90MOL   H37134369   3.650   4.160   1.787  0.8550  0.6758 -2.6151
   90MOL   H37234370   3.595   4.307   1.726 -0.4811 -0.7566 -1.6358
   90MOL   H37334371   3.505   4.142   1.591 -0.4907  0.5861  0.1789
   90MOL   H37434372   3.609   3.967   1.736 -0.7425  0.4358 -1.9414
   90MOL   H37534373   3.439   3.730   1.775 -0.2688  0.2982 -0.0839
   90MOL   H37634374   3.676   3.725   1.639 -1.4399  1.4177  0.4179
   90MOL   H37734375   3.758   3.728   1.783 -0.0085 -0.4618 -0.9129
   90MOL   H37834376   3.646   3.594   1.756 -0.4133  0.2042 -0.9825
   90MOL   H37934377   3.523   3.672   1.990 -1.9392 -0.7907  0.6326
   90MOL   H38034378   3.638   3.803   1.997 -1.2956  0.2197  1.5923
   90MOL   H38134379   3.459   3.835   1.994  0.6645  1.3909 -2.2365
   90MOL   H38234380   3.363   4.195   1.672 -1.4745 -1.5328 -0.2657
   91MOL     C134381   7.404   0.279   2.766  0.1164 -0.0096  0.2191
   91MOL     C234382   7.313   0.229   2.877  0.6281 -0.3639  0.1485
   91MOL     C334383   7.361   0.300   3.010 -0.1699 -0.0181 -0.5334
   91MOL     O434384   7.328   0.412   3.034  0.1497 -0.1449  0.6059
   91MOL     N534385   7.424   0.221   3.101  0.1121  0.8183 -0.2269
   91MOL     C634386   7.476   0.275   3.230 -0.3251 -0.3546 -0.2462
   91MOL     C734387   7.457   0.161   3.344  0.4391  0.2109  0.3770
   91MOL     C834388   7.624   0.325   3.223 -0.0966  0.1008  0.1282
   91MOL     H934389   7.395   0.386   2.748 -0.0497 -0.2367 -1.0888
   91MOL    H1034390   7.364   0.242   2.672 -3.9639  3.5589  0.3934
   91MOL    H1134391   7.337   0.123   2.884  0.7981 -0.3962 -0.7936
   91MOL    H1234392   7.447   0.124   3.084  3.2917  1.4834  0.0153
   91MOL    H1334393   7.419   0.363   3.259  0.1518 -0.2390  0.3569
   91MOL    H1434394   7.476   0.062   3.301 -1.0576  1.0470 -2.3571
   91MOL    H1534395   7.358   0.167   3.390 -0.1459 -0.0627 -0.8252
   91MOL    H1634396   7.520   0.173   3.432  1.7173  1.3969 -0.6978
   91MOL    H1734397   7.660   0.337   3.325  0.8777  0.2492 -0.2311
   91MOL    H1834398   7.683   0.250   3.171  1.9223  2.3397 -0.9205
   91MOL    H1934399   7.622   0.417   3.164  0.5643 -0.0301 -0.1026
   91MOL    H2034400   7.509   0.252   2.780  0.6940  1.9506 -0.1352
   91MOL    C2134401   7.165   0.258   2.838  1.1910  0.3562  0.7030
   91MOL    C2234402   7.073   0.167   2.921  0.1605  0.0100  0.3644
   91MOL    C2334403   7.005   0.070   2.826  0.0687  0.5192 -0.0278
   91MOL    O2434404   7.068   7.816   2.771 -0.2137 -0.6256 -0.2009
   91MOL    N2534405   6.887   0.096   2.776  0.1061 -0.5284  0.1168
   91MOL    C2634406   6.813   0.020   2.671  0.0363 -0.5368  0.2334
   91MOL    C2734407   6.863   0.072   2.533 -0.6433 -0.3656 -0.2004
   91MOL    C2834408   6.664   0.017   2.681  0.8148 -0.4045  0.9627
   91MOL    H2934409   7.147   0.241   2.732  1.4559 -0.3403  0.7677
   91MOL    H3034410   7.147   0.365   2.840  0.5382  0.2496  0.4678
   91MOL    H3134411   7.130   0.101   2.986 -2.0521 -0.4410  1.9176
   91MOL    H3234412   6.842   0.170   2.828  2.1144 -1.2271  2.9071
   91MOL    H3334413   6.843   7.751   2.669 -1.5766 -1.0322  1.3414
   91MOL    H3434414   6.829   0.174   2.514  1.2371  0.2338 -0.4411
   91MOL    H3534415   6.825   0.011   2.452 -1.2683  0.6947 -0.7191
   91MOL    H3634416   6.972   0.066   2.538 -0.8388 -2.5708  3.8036
   91MOL    H3734417   6.630   0.105   2.735 -0.3999  0.2694 -0.8563
   91MOL    H3834418   6.623   0.003   2.581 -0.6670  2.8160  1.0653
   91MOL    H3934419   6.634   7.762   2.733 -1.4594 -1.0281 -1.3518
   91MOL    C4034420   6.980   0.254   3.018  0.0076  0.0275 -0.6509
   91MOL    C4134421   6.936   0.196   3.151 -1.5885 -0.0273  0.6421
   91MOL    C4234422   6.784   0.196   3.162 -0.0098  0.8812 -0.7614
   91MOL    O4334423   6.721   0.299   3.155 -0.7394 -0.1584  0.6801
   91MOL    N4434424   6.717   0.079   3.154  0.3455 -0.4811 -0.2959
   91MOL    C4534425   6.574   0.060   3.139 -0.2374  0.8413 -0.4970
   91MOL    C4634426   6.548   7.766   3.066 -0.3172  0.2060 -0.1403
   91MOL    C4734427   6.501   0.049   3.278  0.0590 -0.0433  0.0742
   91MOL    H4834428   6.889   0.280   2.964  0.1650  0.8544 -0.5324
   91MOL    H4934429   7.025   0.351   3.037  1.0051 -0.9172  1.9740
   91MOL    H5034430   6.969   0.092   3.143  1.4393  0.9315 -0.2613
   91MOL    H5134431   6.769   7.834   3.185  0.1986  0.0321  1.3654
   91MOL    H5234432   6.530   0.141   3.081  0.1950  1.0404 -0.5528
   91MOL    H5334433   6.445   7.773   3.032 -0.1343  1.3681 -0.4798
   91MOL    H5434434   6.558   7.687   3.140  0.2469  0.7995  0.4249
   91MOL    H5534435   6.618   7.751   2.984 -0.2389  1.1993 -0.2634
   91MOL    H5634436   6.511   7.794   3.336  0.2164 -1.5391 -2.2711
   91MOL    H5734437   6.394   0.036   3.264 -0.6039  2.2492  2.4558
   91MOL    H5834438   6.527   0.133   3.343 -0.5397 -0.5410  0.9619
   91MOL    C5934439   7.005   0.268   3.272 -0.1267 -0.6661  0.2395
   91MOL    C6034440   6.968   0.217   3.417  0.5030  0.3538  0.2534
   91MOL    C6134441   7.024   0.309   3.525 -0.6979  0.2992 -0.9403
   91MOL    O6234442   7.145   0.306   3.553  0.2997  0.2432 -0.4235
   91MOL    N6334443   6.940   0.391   3.587 -0.0379 -0.2348 -0.3020
   91MOL    C6434444   6.980   0.480   3.699  0.1867  0.7180  0.3370
   91MOL    C6534445   6.887   0.603   3.692 -0.3206 -0.5596  0.1935
   91MOL    C6634446   6.966   0.413   3.836 -0.0184  0.6630 -0.2040
   91MOL    H6734447   7.113   0.258   3.262  0.1429  1.4837  0.7099
   91MOL    H6834448   6.991   0.376   3.270 -1.7029 -0.8003  2.4727
   91MOL    H6934449   6.860   0.214   3.429  0.3592 -0.1526 -1.0112
   91MOL    H7034450   6.842   0.384   3.565  0.1543  0.0988 -1.2945
   91MOL    H7134451   7.079   0.522   3.687  0.8036 -0.8247 -0.0933
   91MOL    H7234452   6.900   0.665   3.604 -1.1843  0.5139  0.8046
   91MOL    H7334453   6.783   0.585   3.722  0.2591 -2.4019  1.1605
   91MOL    H7434454   6.917   0.670   3.773 -0.5086 -0.7354  0.4129
   91MOL    H7534455   6.862   0.425   3.868 -0.1423 -1.5580  0.2836
   91MOL    H7634456   6.984   0.306   3.838 -1.8040  0.3150 -1.0782
   91MOL    H7734457   7.026   0.463   3.912 -0.3126 -0.2306  0.6191
   91MOL    C7834458   7.022   0.074   3.442 -0.2474 -0.9866 -0.3462
   91MOL    C7934459   6.967   7.835   3.568 -0.0100 -0.5253 -0.3668
   91MOL    C8034460   6.812   7.835   3.573 -0.4046 -0.3611  0.4098
   91MOL    O8134461   6.761   7.777   3.476 -0.5336  0.5610 -0.7351
   91MOL    N8234462   6.740   0.044   3.678 -0.6752 -0.2673 -0.3587
   91MOL    C8334463   6.598   0.057   3.696  0.0103  0.1839  0.2229
   91MOL    C8434464   6.562   0.003   3.837  0.0103 -0.2300  0.4665
   91MOL    C8534465   6.557   0.198   3.672  0.0069 -0.2132  0.5117
   91MOL    H8634466   7.130   0.089   3.455 -0.7270 -0.3255  3.4199
   91MOL    H8734467   6.998   0.023   3.349 -1.3211  0.1830 -0.7242
   91MOL    H8834468   7.001   0.062   3.650  0.0607  1.5396 -1.9592
   91MOL    H8934469   6.797   0.072   3.757 -1.3056  3.3463 -1.1239
   91MOL    H9034470   6.548   7.827   3.625  4.0945 -1.8429 -0.9474
   91MOL    H9134471   6.617   0.056   3.915 -0.3615 -0.0604  0.6154
   91MOL    H9234472   6.458   0.030   3.852 -0.5997 -1.2224 -1.8083
   91MOL    H9334473   6.565   7.734   3.863 -2.4434 -0.5933 -0.6240
   91MOL    H9434474   6.451   0.219   3.687  0.2015 -0.8674  3.0344
   91MOL    H9534475   6.584   0.241   3.575 -3.5948  1.2486  0.0843
   91MOL    H9634476   6.608   0.256   3.749 -1.5686 -1.5616  2.6466
   91MOL    C9734477   7.031   7.692   3.595 -0.2622 -0.2760 -0.6101
   91MOL    C9834478   7.048   7.610   3.473 -0.7272  0.6237  0.1604
   91MOL    C9934479   6.946   7.493   3.466 -0.1017 -0.1561  0.8559
   91MOL   O10034480   6.981   7.379   3.501  0.4726 -0.1598 -0.6078
   91MOL   N10134481   6.820   7.517   3.432 -0.1836 -0.0600 -0.2793
   91MOL   C10234482   6.696   7.435   3.441 -0.6832 -0.2814 -0.4156
   91MOL   C10334483   6.612   7.489   3.563  0.0964  0.8362  0.3650
   91MOL   C10434484   6.622   7.435   3.306 -0.2932  0.5621  0.5698
   91MOL   H10534485   6.965   7.642   3.666  0.7970 -2.9812 -1.4370
   91MOL   H10634486   7.124   7.701   3.651 -1.0245 -2.2506  1.0725
   91MOL   H10734487   7.032   7.661   3.378 -0.7942 -0.0108 -0.1714
   91MOL   H10834488   6.801   7.616   3.423 -2.0159 -0.3802 -0.1644
   91MOL   H10934489   6.738   7.338   3.467  2.0707  1.1420  0.6918
   91MOL   H11034490   6.525   7.428   3.586  0.6958 -0.3454 -0.4152
   91MOL   H11134491   6.672   7.493   3.653  0.3370 -0.0284  0.2434
   91MOL   H11234492   6.566   7.586   3.543 -0.8687  0.3872  0.3872
   91MOL   H11334493   6.584   7.536   3.292 -0.1171  0.4591 -0.7347
   91MOL   H11434494   6.541   7.365   3.323 -0.1217  0.7627  2.2371
   91MOL   H11534495   6.675   7.397   3.218  0.4859  1.3242  0.6946
   91MOL   C11634496   7.196   7.571   3.467 -0.8116  0.1108  0.7550
   91MOL   C11734497   7.235   7.512   3.323 -0.0535  0.4989  0.5594
   91MOL   C11834498   7.331   7.399   3.329 -0.1573  0.5451 -0.1691
   91MOL   O11934499   7.437   7.388   3.264 -0.2997  0.1206 -0.3482
   91MOL   N12034500   7.293   7.296   3.404 -0.5598  0.7977  0.0228
   91MOL   C12134501   7.384   7.176   3.431  0.7650 -0.2607 -0.3810
   91MOL   C12234502   7.449   7.180   3.568  0.6544  0.5752 -0.6773
   91MOL   C12334503   7.308   7.045   3.399 -0.2646 -0.2598  0.9277
   91MOL   H12434504   7.219   7.509   3.553  0.5335 -2.1327 -1.1658
   91MOL   H12534505   7.255   7.662   3.477  0.1118 -0.3175 -0.6326
   91MOL   H12634506   7.143   7.463   3.292 -0.6944  1.6688  0.6069
   91MOL   H12734507   7.204   7.298   3.452 -1.2186 -1.7275 -1.0004
   91MOL   H12834508   7.465   7.171   3.359  1.4078 -0.2672  0.3394
   91MOL   H12934509   7.376   7.192   3.649 -0.3562  0.2429 -1.5228
   91MOL   H13034510   7.519   7.262   3.575 -0.0853  1.0215  2.2828
   91MOL   H13134511   7.511   7.091   3.577 -0.8459 -0.6544 -2.0551
   91MOL   H13234512   7.204   7.041   3.432 -1.4608 -4.2196 -2.8840
   91MOL   H13334513   7.305   7.032   3.291  2.6030 -1.3857  0.9408
   91MOL   H13434514   7.368   6.962   3.435  1.1157  0.8490  1.2280
   91MOL   C13534515   7.284   7.620   3.226  0.2824  0.3348  0.1535
   91MOL   C13634516   7.247   7.597   3.080  0.3554 -0.2145  0.0638
   91MOL   C13734517   7.096   7.602   3.063 -0.7772  0.2751 -0.2516
   91MOL   O13834518   7.026   7.694   3.115 -0.4002 -0.9933  0.3276
   91MOL   N13934519   7.043   7.500   3.000  0.2343 -0.2576  0.0193
   91MOL   C14034520   6.897   7.478   2.982 -0.5697 -0.0087  0.6390
   91MOL   C14134521   6.858   7.336   2.954 -0.4316 -0.0682  0.8180
   91MOL   C14234522   6.831   7.572   2.880 -0.3381 -0.2256 -0.5756
   91MOL   H14334523   7.393   7.630   3.231  0.4152  0.1045 -2.0271
   91MOL   H14434524   7.254   7.718   3.264  0.1593  0.7712 -1.0739
   91MOL   H14534525   7.285   7.501   3.044 -0.7421 -0.5067 -0.3337
   91MOL   H14634526   7.105   7.441   2.945 -0.7447 -0.9859 -0.3278
   91MOL   H14734527   6.851   7.500   3.078 -0.5414 -2.1145  1.1535
   91MOL   H14834528   6.754   7.340   2.921 -0.6884  0.0515  1.6239
   91MOL   H14934529   6.919   7.296   2.874 -1.9367 -3.3422  1.1943
   91MOL   H15034530   6.855   7.259   3.032 -0.6506 -1.3618 -0.4469
   91MOL   H15134531   6.722   7.563   2.875 -0.4546  0.2966  0.8841
   91MOL   H15234532   6.864   7.549   2.779  0.5227 -0.4024 -0.2523
   91MOL   H15334533   6.858   7.676   2.902  0.0375 -0.8825  2.1365
   91MOL   C15434534   7.307   7.696   2.982  0.0738  0.2551 -0.0953
   91MOL   C15534535   7.449   7.658   2.939 -0.5439 -0.3390 -0.4588
   91MOL   C15634536   7.559   7.716   3.028 -0.8684 -0.5298 -0.2405
   91MOL   O15734537   7.586   7.833   3.025  0.5919  0.2517 -0.2280
   91MOL   N15834538   7.630   7.631   3.100  0.5328  0.2833  0.0395
   91MOL   C15934539   7.740   7.660   3.192 -0.2721 -0.1374 -0.6618
   91MOL   C16034540   0.029   7.594   3.130 -0.4706  0.0263 -0.6855
   91MOL   C16134541   7.698   7.617   3.334  0.5069 -0.2902 -0.2589
   91MOL   H16234542   7.313   7.793   3.032 -0.1720  0.3632 -0.2764
   91MOL   H16334543   7.238   7.700   2.898 -0.8215 -0.2390  0.6106
   91MOL   H16434544   7.463   7.551   2.953 -2.3677 -0.7705 -1.7324
   91MOL   H16534545   7.613   7.532   3.097  0.0207  0.4204 -2.7376
   91MOL   H16634546   7.754   7.768   3.194  1.8454 -0.3862 -1.3579
   91MOL   H16734547   0.041   7.491   3.165  1.6941  0.2595 -0.6761
   91MOL   H16834548   0.023   7.603   3.022 -0.8743 -1.1796 -0.7710
   91MOL   H16934549   0.117   7.648   3.164 -0.4202 -1.0160  0.9128
   91MOL   H17034550   7.668   7.512   3.331  0.5904 -0.3759  1.3735
   91MOL   H17134551   7.607   7.661   3.376  0.9407  1.4739 -1.1284
   91MOL   H17234552   7.779   7.631   3.406  0.5905 -0.2395 -0.3623
   91MOL   C17334553   7.469   7.682   2.789  0.5296 -0.1258  0.3356
   91MOL   C17434554   7.385   7.593   2.692 -0.4509  0.1113 -0.0474
   91MOL   C17534555   7.414   7.645   2.550 -0.2128  0.2927 -0.5954
   91MOL   O17634556   7.506   7.597   2.487  0.7455 -0.3360 -0.7790
   91MOL   N17734557   7.334   7.743   2.507  0.5964 -0.3436 -0.2318
   91MOL   C17834558   7.338   7.790   2.375  0.3955 -0.1751 -0.3206
   91MOL   C17934559   7.240   0.066   2.365  0.4210  0.3226 -0.6382
   91MOL   C18034560   7.287   7.684   2.279 -0.1295  0.1866 -0.3675
   91MOL   H18134561   7.573   7.663   2.761  0.0431 -1.1898 -0.8226
   91MOL   H18234562   7.456   7.786   2.757  0.7585 -0.0493  0.4939
   91MOL   H18334563   7.281   7.612   2.717 -0.8091 -1.3771 -0.4072
   91MOL   H18434564   7.267   7.779   2.573  2.9190  2.8075  0.5755
   91MOL   H18534565   7.439   7.826   2.353 -0.3012  1.0137 -1.6545
   91MOL   H18634566   7.242   0.146   2.439  2.7816 -0.5961  0.3367
   91MOL   H18734567   7.139   0.026   2.369  0.8852 -0.6429  2.1647
   91MOL   H18834568   7.234   0.113   2.267 -1.3763  2.2361  0.3444
   91MOL   H18934569   7.294   7.720   2.177 -0.1005 -0.2368 -0.5147
   91MOL   H19034570   7.189   7.639   2.288  0.1825 -0.3220  0.6902
   91MOL   H19134571   7.357   7.600   2.281  0.0468  0.3169 -1.1540
   91MOL   C19234572   7.413   7.438   2.709 -0.5250  0.4603  0.0050
   91MOL   C19334573   7.342   7.346   2.616  0.1654  0.1731 -0.3241
   91MOL   C19434574   7.190   7.371   2.641  1.2123  0.4931  0.0120
   91MOL   O19534575   7.148   7.352   2.753 -0.0005 -0.3520  0.2535
   91MOL   N19634576   7.123   7.409   2.538 -0.4210 -0.3337  0.9296
   91MOL   C19734577   6.976   7.415   2.528 -0.6760  0.1079 -0.5828
   91MOL   C19834578   6.939   7.511   2.418  0.8801  0.4228 -0.9941
   91MOL   C19934579   6.909   7.290   2.496  0.7143  0.1639 -0.2963
   91MOL   H20034580   7.406   7.409   2.814  2.5875  0.7429  0.3497
   91MOL   H20134581   7.516   7.415   2.679 -1.2068  0.1081 -2.1427
   91MOL   H20234582   7.366   7.358   2.511 -0.4943  1.8470 -0.3098
   91MOL   H20334583   7.182   7.415   2.456  0.4090  0.6718  1.6075
   91MOL   H20434584   6.940   7.452   2.624  0.9889 -1.4155  0.6590
   91MOL   H20534585   6.985   7.606   2.443 -1.5205  0.6761  2.9045
   91MOL   H20634586   6.831   7.524   2.408  0.0366 -4.5019  0.2010
   91MOL   H20734587   6.978   7.494   2.318 -0.9879 -0.2016 -1.6478
   91MOL   H20834588   6.934   7.262   2.394 -2.8122  2.1309 -1.7644
   91MOL   H20934589   6.800   7.292   2.504  0.6730 -2.9651  0.4717
   91MOL   H21034590   6.933   7.206   2.561  0.7928 -0.5469 -1.2337
   91MOL   C21134591   7.373   7.195   2.654  0.0694 -0.2409 -0.0241
   91MOL   C21234592   7.405   7.094   2.541 -0.4114  0.1585  0.1731
   91MOL   C21334593   7.274   7.080   2.455  0.2443 -0.7030 -0.4915
   91MOL   O21434594   7.242   7.168   2.375 -0.4011  0.2139 -0.2241
   91MOL   N21534595   7.196   6.976   2.482  0.3039 -0.2486  0.4448
   91MOL   C21634596   7.066   6.955   2.431  0.3019 -0.1927  0.2384
   91MOL   C21734597   6.964   6.907   2.540 -0.7640  0.1942  0.2089
   91MOL   C21834598   7.084   6.845   2.324  0.2903  0.5778 -0.5291
   91MOL   H21934599   7.302   7.143   2.717  0.7121 -2.5617 -1.1832
   91MOL   H22034600   7.462   7.192   2.718  0.7106 -1.1048 -0.9429
   91MOL   H22134601   7.425   7.000   2.592 -1.2444 -1.4509 -2.3848
   91MOL   H22234602   7.235   6.895   2.528  0.0638 -1.0461 -0.7161
   91MOL   H22334603   7.029   7.043   2.379  0.8255 -0.8443 -1.2792
   91MOL   H22434604   6.863   6.892   2.501  0.0450  0.1034 -1.8951
   91MOL   H22534605   7.004   6.812   2.577 -1.5944  0.9290  3.1857
   91MOL   H22634606   6.948   6.971   2.627 -2.9939 -1.1885  0.8800
   91MOL   H22734607   7.128   6.885   2.232  0.3425  2.9632  0.4824
   91MOL   H22834608   6.985   6.814   2.290 -0.2512 -0.0645  1.5507
   91MOL   H22934609   7.133   6.752   2.350 -1.9939 -0.1973  1.1261
   91MOL   C23034610   7.542   7.118   2.471 -0.6548  0.1811  0.3119
   91MOL   C23134611   7.583   7.008   2.367 -0.3884  0.1531 -0.2344
   91MOL   C23234612   7.692   7.053   2.273  0.4372  0.0361  0.3725
   91MOL   O23334613   7.808   7.056   2.309 -0.0149  0.3883 -0.1874
   91MOL   N23434614   7.653   7.083   2.144 -0.4024  0.9279  0.1323
   91MOL   C23534615   7.743   7.127   2.036  0.4966  0.8118 -0.7443
   91MOL   C23634616   7.831   7.015   1.990 -0.5866  0.6698 -0.3646
   91MOL   C23734617   7.640   7.171   1.932  0.0888  0.1761  0.5762
   91MOL   H23834618   7.614   7.127   2.552 -0.9302 -0.5873  0.6483
   91MOL   H23934619   7.544   7.211   2.414 -1.6163 -0.8190 -1.4049
   91MOL   H24034620   7.490   6.993   2.312  0.0371 -0.2426 -0.8365
   91MOL   H24134621   7.555   7.074   2.121 -0.2450 -0.4428 -0.0700
   91MOL   H24234622   7.809   7.210   2.062  3.1230 -1.5478  0.3562
   91MOL   H24334623   0.078   7.046   1.927 -2.5178 -0.0082 -3.3437
   91MOL   H24434624   0.039   6.964   2.075 -0.1448  1.1636 -0.2990
   91MOL   H24534625   7.763   6.942   1.946 -0.7802  0.5288  0.1630
   91MOL   H24634626   7.694   7.198   1.841 -0.3042  2.3981  0.9765
   91MOL   H24734627   7.571   7.247   1.967 -1.0924  0.1256 -1.5758
   91MOL   H24834628   7.573   7.091   1.901  0.2310  0.2801 -0.0093
   91MOL   C24934629   7.626   6.876   2.444 -0.5086 -0.6128  0.9219
   91MOL   C25034630   7.515   6.772   2.454 -0.4338 -0.3432 -0.5243
   91MOL   C25134631   7.460   6.741   2.585 -0.2756 -0.7841 -0.1150
   91MOL   O25234632   7.348   6.700   2.608 -0.6693  0.1794  0.2044
   91MOL   N25334633   7.533   6.770   2.696 -0.6315 -0.1050  0.6274
   91MOL   C25434634   7.496   6.731   2.833  0.5103  0.9264  0.3501
   91MOL   C25534635   7.621   6.716   2.919  0.4863 -0.1296 -0.5566
   91MOL   C25634636   7.402   6.828   2.892 -0.0360 -0.2478  1.0128
   91MOL   H25734637   7.676   6.886   2.540 -0.0541  0.9241  0.5452
   91MOL   H25834638   7.699   6.825   2.381  0.9717  0.0728  2.0403
   91MOL   H25934639   7.431   6.816   2.400  1.3024  0.2863 -2.8106
   91MOL   H26034640   7.619   6.821   2.685 -0.8474  0.6126  2.1109
   91MOL   H26134641   7.450   6.634   2.816  0.4965  0.9148  0.4579
   91MOL   H26234642   7.583   6.682   3.016  2.1673  2.9020  1.2633
   91MOL   H26334643   7.694   6.639   2.895  0.5673 -0.3053  0.2163
   91MOL   H26434644   7.675   6.810   2.930  1.6551 -0.8993  0.5075
   91MOL   H26534645   7.419   6.933   2.869  1.5565 -1.0175 -1.4572
   91MOL   H26634646   7.299   6.810   2.862  0.5845 -0.2247 -1.2447
   91MOL   H26734647   7.405   6.821   3.001  0.0602  1.9722  1.1671
   91MOL   C26834648   7.554   6.648   2.376  0.1484  0.2517 -0.1874
   91MOL   C26934649   7.548   6.668   2.225 -0.1310 -0.4555 -0.3519
   91MOL   C27034650   7.643   6.564   2.163  0.0682 -0.1190 -0.3790
   91MOL   O27134651   7.600   6.456   2.136 -0.0818 -0.0152  0.1838
   91MOL   N27234652   7.772   6.600   2.148  0.3626  0.3143 -0.2572
   91MOL   C27334653   0.050   6.511   2.134 -0.0396  0.3551 -0.8913
   91MOL   C27434654   0.164   6.581   2.056  0.4162 -0.4218 -0.1168
   91MOL   C27534655   0.089   6.457   2.272  0.2334  0.8473  0.0227
   91MOL   H27634656   7.657   6.637   2.409  0.0419  1.9039  0.7631
   91MOL   H27734657   7.509   6.551   2.399  0.1969  0.0421 -0.9607
   91MOL   H27834658   7.585   6.765   2.192 -0.8316  0.0031  0.1964
   91MOL   H27934659   7.798   6.698   2.156 -1.1476  0.9424 -2.2976
   91MOL   H28034660   0.007   6.425   2.082  1.7076 -2.6542  2.4259
   91MOL   H28134661   0.239   6.615   2.128 -0.7281 -0.1378  0.9642
   91MOL   H28234662   0.205   6.520   1.976  0.6029 -0.7549  0.2319
   91MOL   H28334663   0.121   6.661   1.994 -0.1808 -0.5231  0.1634
   91MOL   H28434664   0.095   6.534   2.349 -0.7768  0.1219  0.8487
   91MOL   H28534665   0.012   6.384   2.299  0.2853  0.0580 -1.9072
   91MOL   H28634666   0.183   6.402   2.264  0.2882  0.3220  3.3784
   91MOL   C28734667   7.402   6.647   2.174 -0.1391  0.4971 -0.1516
   91MOL   C28834668   7.375   6.669   2.022 -0.2016  0.7600 -0.0335
   91MOL   C28934669   7.375   6.816   1.970 -0.2635  0.0359 -0.3847
   91MOL   O29034670   7.444   6.899   2.026 -0.3341 -0.2277 -0.1320
   91MOL   N29134671   7.307   6.851   1.855 -0.0083 -0.1603  0.1817
   91MOL   C29234672   7.330   6.975   1.769  0.0835 -0.1395  0.3836
   91MOL   C29334673   7.449   6.956   1.680  0.4186  0.0301 -0.5234
   91MOL   C29434674   7.207   7.004   1.684  0.2823 -0.9256  0.2531
   91MOL   H29534675   7.375   6.542   2.187  1.6042 -0.1477 -1.5057
   91MOL   H29634676   7.329   6.706   2.229 -0.9741  1.9548 -2.7309
   91MOL   H29734677   7.466   6.623   1.982  0.6126 -0.6225  3.2112
   91MOL   H29834678   7.249   6.783   1.808  0.2684  0.7934 -1.5609
   91MOL   H29934679   7.342   7.063   1.832 -1.2488  0.2528  0.1143
   91MOL   H30034680   7.480   7.041   1.620  0.1268  1.2644  1.0270
   91MOL   H30134681   7.544   6.927   1.725 -0.3671 -0.1727  1.0397
   91MOL   H30234682   7.425   6.881   1.606  0.7840  1.7870 -2.4668
   91MOL   H30334683   7.183   6.916   1.625  1.3816  0.3945 -2.2209
   91MOL   H30434684   7.117   7.033   1.739  0.2633 -1.2272  0.3812
   91MOL   H30534685   7.234   7.076   1.607 -1.1340 -1.2017 -0.5212
   91MOL   C30634686   7.266   6.576   1.971  0.3081  0.1446 -0.5432
   91MOL   C30734687   7.304   6.428   1.954  0.0971 -0.3752  0.4014
   91MOL   C30834688   7.400   6.416   1.835  0.2344  0.0829  0.8282
   91MOL   O30934689   7.373   6.455   1.722 -0.1281 -0.2176  0.5175
   91MOL   N31034690   7.532   6.385   1.868  0.1981  0.0703  0.3422
   91MOL   C31134691   7.634   6.397   1.772 -0.6493  0.6532  0.3144
   91MOL   C31234692   7.704   6.535   1.790 -0.4625  0.2199  0.3090
   91MOL   C31334693   7.716   6.272   1.778 -0.1983  0.0749 -0.3282
   91MOL   H31434694   7.182   6.594   2.037  1.9104  2.6107  0.9240
   91MOL   H31534695   7.230   6.612   1.875  2.4094 -0.8801 -1.7586
   91MOL   H31634696   7.360   6.391   2.040  0.0497  0.3033  0.7211
   91MOL   H31734697   7.553   6.388   1.967  2.2677  1.6417 -0.1324
   91MOL   H31834698   7.588   6.398   1.673  2.6265 -1.9946 -1.3063
   91MOL   H31934699   7.637   6.610   1.746  2.1448  1.7801 -1.1798
   91MOL   H32034700   7.797   6.515   1.735 -0.8186 -0.6488  0.0193
   91MOL   H32134701   7.734   6.564   1.890 -0.1176 -2.2410  0.9456
   91MOL   H32234702   7.789   6.270   1.696  0.0176  0.0900 -0.1350
   91MOL   H32334703   7.660   6.179   1.787  0.3963 -0.2775 -0.2239
   91MOL   H32434704   7.771   6.260   1.871 -0.5834 -0.7846 -0.2051
   91MOL   C32534705   7.179   6.339   1.918 -0.7210 -0.0214 -0.2818
   91MOL   C32634706   7.099   6.274   2.033 -0.2377  0.4668 -0.7860
   91MOL   C32734707   7.118   6.337   2.173 -0.4200  0.5723  0.1336
   91MOL   O32834708   7.065   6.445   2.195 -0.1551  0.2090  0.0210
   91MOL   N32934709   7.192   6.266   2.265  0.1911 -0.4239  0.3815
   91MOL   C33034710   7.196   6.293   2.404 -0.1263  0.4219  0.2070
   91MOL   C33134711   7.305   6.386   2.449  0.1428 -0.0961  0.0136
   91MOL   C33234712   7.203   6.161   2.490  0.7888  0.6811  0.1186
   91MOL   H33334713   7.211   6.250   1.864 -2.6946 -1.9754  1.6737
   91MOL   H33434714   7.118   6.385   1.840 -2.0990 -0.7651  0.3428
   91MOL   H33534715   7.126   6.169   2.043 -0.6280  0.2998 -1.4396
   91MOL   H33634716   7.246   6.187   2.234 -0.0607 -1.0692  1.5129
   91MOL   H33734717   7.108   6.351   2.430  0.6510  1.2739  0.9724
   91MOL   H33834718   7.292   6.483   2.399  0.5528  1.5955  3.0631
   91MOL   H33934719   7.303   6.395   2.557  1.7267 -0.8219  0.1114
   91MOL   H34034720   7.409   6.358   2.431  0.6223  1.2152  0.6956
   91MOL   H34134721   7.149   6.178   2.583 -0.8267 -2.0166 -0.2772
   91MOL   H34234722   7.304   6.140   2.525  0.5085 -2.9036 -1.0352
   91MOL   H34334723   7.161   6.071   2.445  0.2210  0.5094  0.9897
   91MOL   C34434724   6.949   6.272   1.991 -0.0588  0.4926  1.4313
   91MOL   C34534725   6.855   6.205   2.089  0.1917  0.2071  0.0118
   91MOL   C34634726   6.722   6.209   2.030 -0.1353  0.3084 -0.4459
   91MOL   O34734727   6.701   6.175   1.913 -0.1544  0.2416  0.6845
   91MOL   N34834728   6.620   6.241   2.114  0.0212 -0.1557 -0.1377
   91MOL   C34934729   6.480   6.241   2.085  0.0376  0.0293  0.0394
   91MOL   C35034730   6.391   6.206   2.204 -0.2405  0.2913 -0.6364
   91MOL   C35134731   6.456   6.379   2.024 -0.0836 -0.2913  0.9483
   91MOL   H35234732   6.948   6.221   1.895  0.5149  2.1220  0.5560
   91MOL   H35334733   6.917   6.376   1.989  0.8080  0.7592  1.3534
   91MOL   H35434734   6.852   6.268   2.178 -1.4734 -0.0703  0.1818
   91MOL   H35534735   6.641   6.244   2.213 -2.8922 -1.2295  0.5529
   91MOL   H35634736   6.461   6.161   2.014  1.5335 -2.0746  1.9286
   91MOL   H35734737   6.420   6.108   2.244  0.7628  1.4384  1.5064
   91MOL   H35834738   6.382   6.282   2.281 -0.2620 -0.0110 -0.3419
   91MOL   H35934739   6.290   6.182   2.169 -0.2377  0.9909 -1.1393
   91MOL   H36034740   6.459   6.373   1.915 -2.1706  1.6302  0.7474
   91MOL   H36134741   6.356   6.417   2.040 -0.6490 -0.7579 -1.2145
   91MOL   H36234742   6.519   6.461   2.057  0.5070 -0.6543  0.7342
   91MOL   C36334743   6.896   6.062   2.137  0.0493 -0.3808 -0.1510
   91MOL   C36434744   6.798   5.960   2.212  0.4322  0.4056 -0.3041
   91MOL   C36534745   6.754   6.010   2.350 -0.0274 -0.5302 -0.0232
   91MOL   O36634746   6.718   6.127   2.366 -0.0346 -0.5865 -0.0866
   91MOL   N36734747   6.781   5.923   2.456  0.4377  0.0847  0.5122
   91MOL   C36834748   6.757   5.946   2.600 -0.2585  0.6990 -0.3313
   91MOL   C36934749   6.848   5.836   2.671  0.1755  0.0861 -0.4130
   91MOL   C37034750   6.797   6.088   2.644 -0.0084  0.7387 -0.3018
   91MOL   H37134751   6.981   6.076   2.205  0.6507 -1.3949 -0.6756
   91MOL   H37234752   6.934   6.008   2.050  2.3261  2.8405 -1.2626
   91MOL   H37334753   6.850   5.864   2.222  0.4902  0.3000 -1.5433
   91MOL   H37434754   6.805   5.828   2.429  2.0090  0.1155  1.7510
   91MOL   H37534755   6.650   5.937   2.619 -0.2421 -1.6162 -1.1207
   91MOL   H37634756   6.942   5.830   2.617  0.5271 -3.9040  0.4885
   91MOL   H37734757   6.874   5.846   2.777  1.3680 -0.7652 -0.6292
   91MOL   H37834758   6.804   5.737   2.661 -0.6347  0.6223 -2.4751
   91MOL   H37934759   6.888   6.124   2.594  0.9759 -1.0552  0.1510
   91MOL   H38034760   6.719   6.162   2.624 -1.0579  0.0661  1.2503
   91MOL   H38134761   6.821   6.094   2.750  1.8796 -0.2378 -0.6492
   91MOL   H38234762   6.710   5.948   2.148 -0.5282  2.8227  0.5102
   92MOL     C134763   2.540   1.096   3.958  0.2304  0.4322  0.2408
   92MOL     C234764   2.685   1.149   3.930 -1.2085  0.7408  0.5394
   92MOL     C334765   2.725   1.109   3.783 -0.1348 -0.3469 -0.7512
   92MOL     O434766   2.641   1.102   3.692 -0.7277  0.2645  0.1772
   92MOL     N534767   2.855   1.072   3.774  0.2526  0.0354  0.2750
   92MOL     C634768   2.924   1.022   3.656 -0.4789 -0.5274  0.6053
   92MOL     C734769   2.929   1.132   3.550  0.2330  0.4941 -0.1386
   92MOL     C834770   3.051   0.960   3.688 -0.2888 -0.0747  0.7161
   92MOL     H934771   2.504   1.105   4.060 -0.6388  0.2153 -0.0451
   92MOL    H1034772   2.542   0.992   3.925  1.0569 -0.0810  1.8755
   92MOL    H1134773   2.747   1.088   3.996 -0.8403  1.1769  0.5939
   92MOL    H1234774   2.906   1.059   3.860 -1.7941 -0.5393  1.4339
   92MOL    H1334775   2.867   0.935   3.624  2.0797 -1.7682 -0.7647
   92MOL    H1434776   2.982   1.121   3.456  1.2741  0.2669  0.4649
   92MOL    H1534777   2.963   1.219   3.607  1.6982 -1.0294  1.4024
   92MOL    H1634778   2.828   1.155   3.516  0.0341 -0.0402  0.0798
   92MOL    H1734779   3.089   0.898   3.607 -0.6333  0.7618 -0.0926
   92MOL    H1834780   3.132   1.027   3.716 -0.3679  0.4026 -0.1764
   92MOL    H1934781   3.048   0.879   3.761 -0.7859 -1.1708 -0.4864
   92MOL    H2034782   2.461   1.152   3.909 -0.4097 -1.2074 -0.6256
   92MOL    C2134783   2.698   1.297   3.968 -0.0265 -0.8835 -0.5381
   92MOL    C2234784   2.844   1.336   4.009  0.7001 -0.0839 -0.0906
   92MOL    C2334785   2.859   1.307   4.158 -0.7119 -0.1011  0.4520
   92MOL    O2434786   2.760   1.293   4.233 -0.3709 -0.3887  0.5966
   92MOL    N2534787   2.983   1.293   4.198  0.3603  0.4218  0.1554
   92MOL    C2634788   3.033   1.258   4.334 -0.9453  0.1765  0.3856
   92MOL    C2734789   3.166   1.333   4.365  0.1832 -0.2929  0.0547
   92MOL    C2834790   3.058   1.108   4.351  0.2064  0.0963  0.0597
   92MOL    H2934791   2.627   1.314   4.049 -0.3558  1.5722 -1.3263
   92MOL    H3034792   2.653   1.354   3.887  0.5702 -3.5053 -2.8024
   92MOL    H3134793   2.914   1.272   3.955  0.1915  1.4923 -2.7179
   92MOL    H3234794   3.055   1.309   4.129  0.5185 -0.8365  0.0138
   92MOL    H3334795   2.949   1.293   4.394 -1.7238  0.2936 -0.7634
   92MOL    H3434796   3.257   1.289   4.325  0.6245  0.7193 -0.0741
   92MOL    H3534797   3.180   1.356   4.471  0.3760 -1.1833  0.2287
   92MOL    H3634798   3.152   1.431   4.318  0.9469  0.9522  2.3544
   92MOL    H3734799   3.153   1.080   4.306 -0.2724  1.8655 -2.1142
   92MOL    H3834800   3.056   1.079   4.456  1.4840  2.4551  0.7921
   92MOL    H3934801   2.985   1.046   4.301 -1.3035 -0.0614  2.3902
   92MOL    C4034802   2.875   1.486   3.978  0.2695  0.1706  0.6763
   92MOL    C4134803   2.912   1.525   3.833 -0.1109  0.5591 -0.8972
   92MOL    C4234804   3.048   1.484   3.789  0.2985  0.4328 -0.0850
   92MOL    O4334805   3.118   1.409   3.864  0.2887  0.1778 -0.8364
   92MOL    N4434806   3.083   1.514   3.664  0.6660  0.1171  0.4576
   92MOL    C4534807   3.209   1.493   3.598  0.1145 -0.4417  0.1387
   92MOL    C4634808   3.197   1.473   3.446  0.2830  0.1822  0.3023
   92MOL    C4734809   3.315   1.603   3.624 -0.1329  0.6624 -0.0971
   92MOL    H4834810   2.965   1.509   4.035  1.3232 -2.3422  0.1295
   92MOL    H4934811   2.804   1.557   4.020  0.3101  0.2764  0.5652
   92MOL    H5034812   2.851   1.464   3.767 -0.4993  0.8525 -0.8088
   92MOL    H5134813   3.018   1.574   3.614  1.4843 -0.4211 -1.2666
   92MOL    H5234814   3.244   1.396   3.634  0.0419 -0.6131 -0.2478
   92MOL    H5334815   3.295   1.467   3.398  0.0769 -2.5090  0.1731
   92MOL    H5434816   3.147   1.559   3.401  1.1397  0.4638 -0.1194
   92MOL    H5534817   3.138   1.386   3.418  0.2686  1.1792 -2.9135
   92MOL    H5634818   3.418   1.574   3.602 -0.6142 -0.0211 -1.4937
   92MOL    H5734819   3.307   1.639   3.726  0.6606 -2.1255  0.9938
   92MOL    H5834820   3.297   1.691   3.562 -0.0936  0.6636 -0.1074
   92MOL    C5934821   2.882   1.677   3.807 -0.4711 -0.8857 -0.4283
   92MOL    C6034822   2.747   1.713   3.738 -0.2303 -0.3578  0.2775
   92MOL    C6134823   2.721   1.624   3.610 -0.0563 -0.7799 -0.9364
   92MOL    O6234824   2.810   1.593   3.540  0.4034  0.5185 -0.1201
   92MOL    N6334825   2.594   1.593   3.583  0.0379 -0.5942 -0.2015
   92MOL    C6434826   2.547   1.507   3.479 -0.6405  1.1949  0.3595
   92MOL    C6534827   2.566   1.357   3.519  0.2260 -0.1725  0.2031
   92MOL    C6634828   2.401   1.543   3.450 -0.7613  0.3594  0.5292
   92MOL    H6734829   2.897   1.747   3.890  2.1581  0.2139 -1.7852
   92MOL    H6834830   2.956   1.720   3.740 -0.5378 -1.0234 -0.5907
   92MOL    H6934831   2.668   1.685   3.808 -0.4386 -2.8930 -0.9311
   92MOL    H7034832   2.531   1.642   3.644  0.0422  2.7491 -2.7699
   92MOL    H7134833   2.613   1.519   3.393  1.2977 -1.9774  1.3228
   92MOL    H7234834   2.520   1.330   3.614 -3.2872 -2.0465 -1.8824
   92MOL    H7334835   2.535   1.283   3.445 -0.6080 -0.6391  1.0012
   92MOL    H7434836   2.672   1.333   3.526  0.0818 -0.7195  0.5474
   92MOL    H7534837   2.359   1.497   3.361  1.0972  2.7403 -1.6591
   92MOL    H7634838   2.340   1.530   3.540 -1.8041  0.3470 -0.1690
   92MOL    H7734839   2.396   1.651   3.431  0.5499  0.0625 -1.6557
   92MOL    C7834840   2.743   1.870   3.705 -0.4567  1.1150  0.0715
   92MOL    C7934841   2.604   1.932   3.709  0.1812  0.0341 -0.1411
   92MOL    C8034842   2.543   1.912   3.851 -0.0982 -0.5141 -0.0289
   92MOL    O8134843   2.449   1.837   3.867  0.3000  0.3613 -0.5935
   92MOL    N8234844   2.596   1.971   3.956  0.4713  0.1762  0.4968
   92MOL    C8334845   2.558   1.981   4.097 -0.6779 -0.4655  0.6678
   92MOL    C8434846   2.645   1.896   4.194  0.2376  0.6008 -0.7110
   92MOL    C8534847   2.560   2.131   4.143  0.6583 -0.8234 -0.1966
   92MOL    H8634848   2.771   1.880   3.600 -0.9265  1.9080  0.0186
   92MOL    H8734849   2.809   1.935   3.763  0.2323  1.5713 -1.2132
   92MOL    H8834850   2.538   1.884   3.637  1.4970  0.7152 -1.8342
   92MOL    H8934851   2.671   2.034   3.932  0.7111  0.0851  1.0101
   92MOL    H9034852   2.456   1.942   4.100 -0.1921 -1.7513  0.9860
   92MOL    H9134853   2.642   1.793   4.158  1.5620  0.4178 -0.3459
   92MOL    H9234854   2.748   1.930   4.191  0.9670 -1.1109  2.4945
   92MOL    H9334855   2.617   1.891   4.299  0.5119  1.2221 -0.6053
   92MOL    H9434856   2.662   2.162   4.165  1.2389 -3.9668  1.8371
   92MOL    H9534857   2.517   2.131   4.243  1.5263  2.5365  0.2310
   92MOL    H9634858   2.506   2.202   4.080 -0.2673  0.4489  2.0044
   92MOL    C9734859   2.609   2.080   3.672  1.0216  0.0082  0.4687
   92MOL    C9834860   2.490   2.153   3.620  0.1945 -0.1634  0.6956
   92MOL    C9934861   2.538   2.259   3.507 -0.0847  0.2677  0.0928
   92MOL   O10034862   2.624   2.339   3.532 -0.1985  0.3042 -0.0717
   92MOL   N10134863   2.476   2.250   3.389 -0.6904  0.2614  0.1175
   92MOL   C10234864   2.497   2.334   3.276 -0.5831 -0.0712 -0.2607
   92MOL   C10334865   2.628   2.308   3.203  0.2655 -0.1225 -0.0511
   92MOL   C10434866   2.379   2.323   3.183  0.7501 -0.1852 -1.2226
   92MOL   H10534867   2.688   2.101   3.600 -0.7819 -1.3100 -1.9543
   92MOL   H10634868   2.655   2.131   3.757  2.2674  0.8783 -0.7132
   92MOL   H10734869   2.419   2.085   3.572  0.0377 -1.3701  2.6115
   92MOL   H10834870   2.433   2.160   3.373  1.6533 -0.7560 -0.6312
   92MOL   H10934871   2.498   2.433   3.321  1.1687 -0.2663  0.1591
   92MOL   H11034872   2.719   2.316   3.263  0.6891 -0.7955 -0.5893
   92MOL   H11134873   2.632   2.205   3.167 -2.1744  0.0742 -0.9405
   92MOL   H11234874   2.641   2.381   3.123  2.0544  0.0380  0.3663
   92MOL   H11334875   2.366   2.222   3.143 -1.2293  0.3932 -2.0917
   92MOL   H11434876   2.400   2.398   3.108  0.7691 -0.2673 -1.2998
   92MOL   H11534877   2.290   2.355   3.238  0.4986 -0.6939 -1.3273
   92MOL   C11634878   2.416   2.245   3.726  0.2475  0.2067  0.3778
   92MOL   C11734879   2.287   2.187   3.788 -1.1024 -0.5632  0.4142
   92MOL   C11834880   2.195   2.128   3.685  0.8261  0.1418 -0.2273
   92MOL   O11934881   2.122   2.199   3.611 -0.0757 -0.8138  0.3983
   92MOL   N12034882   2.199   1.994   3.679  0.4822  0.0048 -0.0089
   92MOL   C12134883   2.144   1.922   3.561 -0.4033 -0.2496  0.2700
   92MOL   C12234884   2.227   1.945   3.432  0.8951 -0.2139  0.3547
   92MOL   C12334885   2.129   1.777   3.600 -1.2564  0.4626  0.6361
   92MOL   H12434886   2.384   2.338   3.681  1.6797  0.1254 -0.8599
   92MOL   H12534887   2.485   2.275   3.805  1.0404  2.8044 -1.2644
   92MOL   H12634888   2.319   2.100   3.845 -1.4627 -1.0386 -0.1016
   92MOL   H12734889   2.262   1.956   3.748  0.1281 -2.9822 -1.2806
   92MOL   H12834890   2.044   1.962   3.545 -0.2915  2.5498  5.4137
   92MOL   H12934891   2.326   1.900   3.441  0.1401 -1.9417  0.1281
   92MOL   H13034892   2.232   2.053   3.415 -2.2567 -0.0414  0.1871
   92MOL   H13134893   2.191   1.894   3.343  1.8357 -0.0093 -0.1493
   92MOL   H13234894   2.223   1.726   3.620  0.4676  3.2081 -0.0914
   92MOL   H13334895   2.071   1.753   3.689 -0.0117 -0.8839  1.1081
   92MOL   H13434896   2.073   1.731   3.519 -0.3595 -0.8971  0.7703
   92MOL   C13534897   2.228   2.288   3.885 -1.0123 -0.0339 -0.5187
   92MOL   C13634898   2.100   2.240   3.961  0.0148  0.8063  0.3938
   92MOL   C13734899   2.130   2.124   4.050 -0.4200  0.2889  0.1256
   92MOL   O13834900   2.224   2.129   4.132  0.0268 -0.3938  0.0350
   92MOL   N13934901   2.049   2.017   4.036 -0.0558 -0.0878 -0.4195
   92MOL   C14034902   2.044   1.903   4.130  0.4624 -0.0272  0.2918
   92MOL   C14134903   2.136   1.777   4.093 -0.1834 -0.1994  0.8274
   92MOL   C14234904   1.899   1.857   4.151  0.1656 -0.7389 -0.2373
   92MOL   H14334905   2.213   2.378   3.824 -0.2072 -0.0319 -0.7174
   92MOL   H14434906   2.299   2.327   3.958 -1.5441 -0.8977  0.4630
   92MOL   H14534907   2.028   2.215   3.882  0.3350  1.1271 -0.0041
   92MOL   H14634908   1.976   2.017   3.966  1.0772 -1.0522 -1.6009
   92MOL   H14734909   2.082   1.937   4.227  2.8660 -1.0249 -0.2691
   92MOL   H14834910   2.110   1.740   3.994  0.6049 -0.6450  0.7822
   92MOL   H14934911   2.240   1.808   4.098 -0.6294  1.3199  1.0200
   92MOL   H15034912   2.117   1.702   4.169 -1.1461 -1.6623 -0.8027
   92MOL   H15134913   1.892   1.787   4.234  2.7625 -0.1254  0.5353
   92MOL   H15234914   1.853   1.812   4.063 -1.0512 -0.0181  0.0097
   92MOL   H15334915   1.840   1.948   4.170  3.6565  1.3627  0.9921
   92MOL   C15434916   2.042   2.351   4.055 -0.2279 -0.5873  0.0434
   92MOL   C15534917   1.919   2.307   4.152 -0.2036 -0.2253  0.2515
   92MOL   C15634918   1.799   2.274   4.047  0.0306  0.1689 -0.3069
   92MOL   O15734919   1.733   2.169   4.066  0.0987 -0.2167 -0.1803
   92MOL   N15834920   1.778   2.359   3.945 -0.4152 -0.2655  0.6594
   92MOL   C15934921   1.688   2.336   3.832 -0.2908 -0.5715 -1.3009
   92MOL   C16034922   1.744   2.227   3.729 -0.1667 -1.0833  0.0259
   92MOL   C16134923   1.671   2.466   3.756 -0.3146  0.3237 -0.0249
   92MOL   H16234924   2.010   2.432   3.988  1.1186  0.4617  0.6391
   92MOL   H16334925   2.126   2.388   4.115  0.2840  0.7701 -1.4735
   92MOL   H16434926   1.943   2.228   4.223  0.8300  0.3659  0.5695
   92MOL   H16534927   1.826   2.448   3.940  2.0074 -1.2965  3.9863
   92MOL   H16634928   1.594   2.300   3.873  0.6892 -1.3407  0.3097
   92MOL   H16734929   1.772   2.137   3.784  0.6883 -0.4562  0.6558
   92MOL   H16834930   1.679   2.194   3.648 -0.3330  0.6716 -0.5894
   92MOL   H16934931   1.834   2.262   3.678 -0.1696 -1.3566 -0.1637
   92MOL   H17034932   1.597   2.462   3.676  1.0625  0.7668 -1.3374
   92MOL   H17134933   1.765   2.492   3.707 -0.2179 -0.7959 -0.4419
   92MOL   H17234934   1.635   2.551   3.815  0.7546  0.9002 -0.1988
   92MOL   C17334935   1.884   2.435   4.238  0.1552 -0.5423 -0.1651
   92MOL   C17434936   1.759   2.438   4.329 -0.5667 -0.3846  0.5217
   92MOL   C17534937   1.758   2.319   4.424 -0.2244 -0.1030 -0.4931
   92MOL   O17634938   1.666   2.240   4.429 -0.0908 -0.3385  0.5744
   92MOL   N17734939   1.870   2.311   4.501  0.7402 -0.0471  0.3235
   92MOL   C17834940   1.885   2.217   4.616 -0.1969  0.1001 -0.0643
   92MOL   C17934941   1.908   2.075   4.561  0.4203  0.2331 -0.2395
   92MOL   C18034942   1.775   2.230   4.729 -0.8494  0.4186  0.2215
   92MOL   H18134943   1.882   2.525   4.176  1.4365 -0.2854  0.1362
   92MOL   H18234944   1.969   2.466   4.298  1.1215  0.4743 -2.0135
   92MOL   H18334945   1.672   2.419   4.267  0.7141 -0.1806 -1.4078
   92MOL   H18434946   1.930   2.392   4.495  1.3355 -0.5067 -0.1702
   92MOL   H18534947   1.980   2.238   4.666  1.7790 -1.6829 -2.8812
   92MOL   H18634948   1.991   2.085   4.490  0.7686  0.6701  0.2285
   92MOL   H18734949   1.822   2.033   4.509 -0.1328  0.3931  0.5468
   92MOL   H18834950   1.950   2.007   4.634 -0.4238  0.1031  0.1204
   92MOL   H18934951   1.705   2.305   4.693 -1.4485 -1.1416 -1.9766
   92MOL   H19034952   1.826   2.266   4.819 -1.2715  3.3499 -0.6535
   92MOL   H19134953   1.719   2.140   4.751 -0.4818  0.2383  0.4213
   92MOL   C19234954   1.753   2.574   4.411 -0.0492 -0.3730  0.3555
   92MOL   C19334955   1.713   2.700   4.322  0.6144 -0.0205  0.5851
   92MOL   C19434956   1.736   2.834   4.399  0.4818 -0.2948 -0.0159
   92MOL   O19534957   1.727   2.844   4.522  0.3751  0.0580  0.1488
   92MOL   N19634958   1.755   2.939   4.322  0.1156  0.2220 -0.2539
   92MOL   C19734959   1.781   3.078   4.352  0.7526  0.2699 -0.4216
   92MOL   C19834960   1.935   3.109   4.343  0.0942  0.0917 -0.2682
   92MOL   C19934961   1.687   3.175   4.263 -0.1567 -0.0805 -0.6259
   92MOL   H20034962   1.848   2.595   4.460  0.9668 -0.4070 -1.5529
   92MOL   H20134963   1.678   2.569   4.490 -0.1326  0.9078  0.3767
   92MOL   H20234964   1.782   2.711   4.239 -0.7133  0.5878 -0.4472
   92MOL   H20334965   1.764   2.917   4.224 -0.4190  0.6905 -0.4125
   92MOL   H20434966   1.748   3.099   4.454 -0.4983 -0.8066 -0.5941
   92MOL   H20534967   1.966   3.136   4.242 -1.4061 -1.0937 -1.0682
   92MOL   H20634968   2.000   3.029   4.379  0.7190 -1.3267 -4.3322
   92MOL   H20734969   1.952   3.194   4.410 -2.4159 -0.9648  1.7909
   92MOL   H20834970   1.584   3.144   4.281 -0.4011  1.0999  0.0143
   92MOL   H20934971   1.713   3.141   4.163  3.1710  0.3381  0.0324
   92MOL   H21034972   1.712   3.277   4.290 -3.1542  0.9481 -1.6091
   92MOL   C21134973   1.571   2.680   4.265 -0.4181  0.3134 -0.2792
   92MOL   C21234974   1.525   2.780   4.160 -0.4793 -0.6266 -0.7361
   92MOL   C21334975   1.616   2.805   4.042 -0.0882 -0.0659  0.3515
   92MOL   O21434976   1.695   2.716   4.004 -0.5303  0.3003  0.4194
   92MOL   N21534977   1.614   2.920   3.971  0.1208 -0.4867 -0.0411
   92MOL   C21634978   1.687   2.957   3.843  0.3425 -0.0216  0.0926
   92MOL   C21734979   1.709   3.107   3.821 -0.0246  0.4716  0.1968
   92MOL   C21834980   1.618   2.886   3.728 -0.7449 -0.1201  0.4884
   92MOL   H21934981   1.494   2.684   4.342  0.1870 -0.7116  0.3854
   92MOL   H22034982   1.550   2.579   4.231 -1.7783  0.1426  1.0218
   92MOL   H22134983   1.525   2.876   4.211  0.2359 -0.2611 -1.4148
   92MOL   H22234984   1.541   2.981   4.007  0.4870 -0.7768  1.2041
   92MOL   H22334985   1.784   2.908   3.841  0.0303 -0.7421  2.0354
   92MOL   H22434986   1.787   3.142   3.889  0.4525 -0.6676  0.2413
   92MOL   H22534987   1.751   3.122   3.721 -0.3987 -1.7620 -0.3205
   92MOL   H22634988   1.619   3.166   3.836 -0.4467 -0.3359  0.8641
   92MOL   H22734989   1.561   2.947   3.658 -1.6882 -0.4621  0.9549
   92MOL   H22834990   1.558   2.798   3.752 -2.5399  0.0852 -3.0310
   92MOL   H22934991   1.696   2.852   3.659 -1.6919 -1.3859  0.0246
   92MOL   C23034992   1.385   2.744   4.106  0.9594  0.5479 -0.8358
   92MOL   C23134993   1.269   2.792   4.204 -0.2416 -0.9140 -0.7042
   92MOL   C23234994   1.281   2.944   4.219  0.1031  0.4101  0.1015
   92MOL   O23334995   1.303   3.024   4.130  0.0375  0.1466 -0.0911
   92MOL   N23434996   1.271   2.979   4.347 -0.1290 -0.7845 -0.3155
   92MOL   C23534997   1.287   3.113   4.395 -1.0351  0.2621  0.1592
   92MOL   C23634998   1.161   3.200   4.416 -0.2456  0.7475  0.5502
   92MOL   C23734999   1.387   3.112   4.508 -0.3790  0.5106  0.3025
   92MOL   H23835000   1.393   2.639   4.077  0.8576  0.4281 -0.4327
   92MOL   H23935001   1.361   2.787   4.009 -2.0350  1.3010  0.1897
   92MOL   H24035002   1.286   2.742   4.299  1.0779 -1.2927 -1.1364
   92MOL   H24135003   1.237   2.911   4.414 -0.7323  1.2527  1.5198
   92MOL   H24235004   1.339   3.163   4.314 -0.0898 -0.8854  0.0462
   92MOL   H24335005   1.106   3.168   4.505  0.5682  1.4643  1.3301
   92MOL   H24435006   1.185   3.305   4.436 -2.4403  0.5311  5.1155
   92MOL   H24535007   1.096   3.192   4.330  0.9121 -0.8564 -0.1998
   92MOL   H24635008   1.423   3.208   4.544  3.8735 -0.5906 -0.7318
   92MOL   H24735009   1.479   3.057   4.485  0.2100  2.1238 -1.2995
   92MOL   H24835010   1.354   3.060   4.599  0.7578  0.0435  0.4586
   92MOL   C24935011   1.137   2.750   4.148  0.3385  0.2288  0.0480
   92MOL   C25035012   1.011   2.747   4.235  0.0056 -0.1237  0.4819
   92MOL   C25135013   0.929   2.628   4.216  0.0568  0.1242  1.4269
   92MOL   O25235014   0.878   2.605   4.103  0.6509 -0.4223  0.1058
   92MOL   N25335015   0.926   2.548   4.321 -0.0893  0.5213  0.5698
   92MOL   C25435016   0.844   2.425   4.324  0.4983 -0.6142  0.3475
   92MOL   C25535017   0.692   2.449   4.335  0.2051 -0.0882  0.0300
   92MOL   C25635018   0.883   2.316   4.224 -0.6178 -0.2050  0.1434
   92MOL   H25735019   1.145   2.659   4.089  0.6698  0.4448 -0.2480
   92MOL   H25835020   1.114   2.818   4.065  0.5093  1.3294  0.8944
   92MOL   H25935021   1.051   2.749   4.336  0.2582 -0.6692  0.4003
   92MOL   H26035022   0.985   2.568   4.401  2.3637 -1.2124 -0.7326
   92MOL   H26135023   0.882   2.389   4.419  0.4182  0.0417  0.6289
   92MOL   H26235024   0.628   2.362   4.349 -0.4779  0.7172  2.1489
   92MOL   H26335025   0.663   2.520   4.412 -1.8807  0.8462 -1.5618
   92MOL   H26435026   0.664   2.517   4.255  1.6981  2.0380  1.2427
   92MOL   H26535027   0.890   2.214   4.262  1.6588 -0.8634 -1.9126
   92MOL   H26635028   0.814   2.311   4.140  1.6852  0.1649 -1.8131
   92MOL   H26735029   0.983   2.324   4.181 -0.4745  0.2885  0.5545
   92MOL   C26835030   0.930   2.878   4.230  0.0828  0.0620  0.5130
   92MOL   C26935031   0.798   2.896   4.312 -0.2968 -0.1296 -0.4103
   92MOL   C27035032   0.834   2.869   4.462 -0.0708  0.1192  0.1456
   92MOL   O27135033   0.947   2.901   4.504  0.6799  0.1789  0.0113
   92MOL   N27235034   0.741   2.816   4.542 -0.4107  0.1115 -0.2898
   92MOL   C27335035   0.758   2.786   4.679 -0.0523  1.0088 -0.4825
   92MOL   C27435036   0.740   2.906   4.764 -0.1397 -0.4648 -0.0906
   92MOL   C27535037   0.689   2.656   4.717  0.4509  0.1729 -0.3487
   92MOL   H27635038   1.008   2.953   4.246  0.8396 -0.1990 -1.6863
   92MOL   H27735039   0.903   2.890   4.125  1.8129  2.0575  0.2561
   92MOL   H27835040   0.713   2.837   4.280  0.9746 -1.4050 -1.5264
   92MOL   H27935041   0.655   2.788   4.499  0.7773 -3.4570 -0.5389
   92MOL   H28035042   0.859   2.747   4.693 -0.6214 -1.1863 -2.2181
   92MOL   H28135043   0.651   2.953   4.720 -0.3468 -1.2621 -0.5221
   92MOL   H28235044   0.716   2.876   4.866  2.8148 -0.6260  0.6004
   92MOL   H28335045   0.830   2.967   4.768  0.2467 -1.0037 -0.5557
   92MOL   H28435046   0.731   2.616   4.810  2.7564  0.0445 -1.4223
   92MOL   H28535047   0.582   2.674   4.728  0.4141 -1.7514  3.1466
   92MOL   H28635048   0.706   2.581   4.640 -1.4926 -2.0444  1.3130
   92MOL   C28735049   0.759   3.047   4.297 -0.6877 -0.2588 -0.5200
   92MOL   C28835050   0.613   3.091   4.321 -0.0733  0.0580 -0.1699
   92MOL   C28935051   0.510   3.003   4.245  0.7660  0.1359  0.2258
   92MOL   O29035052   0.534   2.956   4.137  0.3740  0.7311  0.4715
   92MOL   N29135053   0.389   2.981   4.303  0.5185 -0.4991 -0.2020
   92MOL   C29235054   0.264   2.930   4.236 -0.1832  0.2652 -0.0725
   92MOL   C29335055   0.236   2.791   4.297  0.2340 -0.1313 -0.6219
   92MOL   C29435056   0.150   3.029   4.277 -0.0647  0.3589  0.0804
   92MOL   H29535057   0.819   3.113   4.358 -2.7021  1.1567 -0.0265
   92MOL   H29635058   0.793   3.086   4.201  1.3444 -0.4405  0.1034
   92MOL   H29735059   0.595   3.074   4.428 -1.6957 -2.7576 -0.8084
   92MOL   H29835060   0.376   3.025   4.393 -1.2578 -2.3049  0.4579
   92MOL   H29935061   0.278   2.927   4.128 -0.5018  0.1733 -0.1122
   92MOL   H30035062   0.146   2.755   4.246 -1.3764  0.2076  1.9043
   92MOL   H30135063   0.303   2.707   4.283 -0.5671 -0.6529 -1.4456
   92MOL   H30235064   0.209   2.800   4.402  0.8731  1.0911 -0.5463
   92MOL   H30335065   0.185   3.127   4.243  1.2685  0.7513  2.4815
   92MOL   H30435066   0.057   3.001   4.227 -0.1351 -0.4513  0.6666
   92MOL   H30535067   0.131   3.035   4.384  1.6514 -0.7660  0.4756
   92MOL   C30635068   0.600   3.241   4.286  0.2434 -0.3096  0.5899
   92MOL   C30735069   0.635   3.347   4.385 -0.5559  0.1120  0.3050
   92MOL   C30835070   0.518   3.347   4.488  0.3016 -0.2712 -0.0186
   92MOL   O30935071   0.413   3.397   4.459  0.5553  0.0108  0.0428
   92MOL   N31035072   0.546   3.288   4.603 -0.4727 -0.2119 -0.0621
   92MOL   C31135073   0.470   3.293   4.736 -0.0044  0.7124  0.0807
   92MOL   C31235074   0.466   3.157   4.800  0.0872  0.0139 -0.1601
   92MOL   C31335075   0.512   3.420   4.816  0.1183  0.2259  0.0850
   92MOL   H31435076   0.657   3.259   4.194 -0.2518  0.4129  0.4127
   92MOL   H31535077   0.498   3.256   4.249  0.3551  0.4830  0.5891
   92MOL   H31635078   0.730   3.314   4.426 -0.4566 -2.1219 -1.6454
   92MOL   H31735079   0.637   3.245   4.616 -0.1627  0.6056  0.5282
   92MOL   H31835080   0.368   3.311   4.703 -0.1014  0.4034  0.2155
   92MOL   H31935081   0.387   3.148   4.874  1.6596  0.8123  1.6564
   92MOL   H32035082   0.563   3.130   4.842  0.3964  0.0249 -0.8595
   92MOL   H32135083   0.450   3.080   4.724  2.2389 -0.5368 -0.1051
   92MOL   H32235084   0.488   3.403   4.920  1.9993 -0.5846  0.3999
   92MOL   H32335085   0.456   3.509   4.784 -2.6856 -1.8194 -0.8674
   92MOL   H32435086   0.616   3.454   4.818 -0.2217  1.2648  0.4403
   92MOL   C32535087   0.673   3.481   4.321  0.7670  0.3043  0.4186
   92MOL   C32635088   0.718   3.591   4.429  0.2807  0.3739  0.7974
   92MOL   C32735089   0.848   3.550   4.502 -0.4938  0.6198 -0.5306
   92MOL   O32835090   0.928   3.477   4.451 -0.3342 -0.2593  0.6167
   92MOL   N32935091   0.862   3.598   4.627 -0.1501  0.2996 -0.3361
   92MOL   C33035092   0.972   3.575   4.718  0.3016 -1.2418 -0.4007
   92MOL   C33135093   1.093   3.664   4.691 -0.5788  0.0165 -0.3753
   92MOL   C33235094   1.014   3.424   4.725  0.0951  0.3006 -0.9330
   92MOL   H33335095   0.594   3.530   4.264  2.9298  1.8398 -1.3284
   92MOL   H33435096   0.751   3.468   4.246 -1.9048 -0.5890 -2.3091
   92MOL   H33535097   0.638   3.588   4.503  0.1408 -3.1234  0.5824
   92MOL   H33635098   0.817   3.685   4.653  3.0851  1.7638  0.6165
   92MOL   H33735099   0.940   3.599   4.819 -0.8116  0.1947 -1.0779
   92MOL   H33835100   1.063   3.769   4.691  2.4175  0.9115 -0.0698
   92MOL   H33935101   1.170   3.643   4.766  0.2219 -0.2858 -1.2787
   92MOL   H34035102   1.135   3.643   4.593  0.2490  0.1384 -0.0552
   92MOL   H34135103   1.065   3.392   4.635 -0.4884  3.0764 -2.2895
   92MOL   H34235104   0.931   3.355   4.741  0.1934  0.0583 -1.4648
   92MOL   H34335105   1.089   3.396   4.799 -1.8969  0.1593  1.0896
   92MOL   C34435106   0.720   3.729   4.369 -1.0976  0.0825 -0.0818
   92MOL   C34535107   0.842   3.774   4.281  0.2067 -0.6188 -0.9833
   92MOL   C34635108   0.862   3.696   4.146  0.4085  0.2616 -0.0849
   92MOL   O34735109   0.768   3.675   4.071 -0.0258  0.3743  0.2869
   92MOL   N34835110   0.985   3.651   4.123  0.0425  0.0617  0.5499
   92MOL   C34935111   1.040   3.601   4.002 -0.8126  0.6261  0.4097
   92MOL   C35035112   1.182   3.656   3.970 -0.5513 -0.0493 -0.1033
   92MOL   C35135113   1.039   3.447   4.008 -1.2441 -0.5545 -0.0729
   92MOL   H35235114   0.725   3.791   4.459  1.3829  0.8484 -0.7105
   92MOL   H35335115   0.626   3.766   4.327  0.1719  0.3665 -2.7280
   92MOL   H35435116   0.932   3.767   4.343  0.9288  0.6308 -1.8816
   92MOL   H35535117   1.053   3.660   4.198  0.3659 -2.8693  0.6457
   92MOL   H35635118   0.975   3.622   3.918 -0.5024 -0.7742 -0.1815
   92MOL   H35735119   1.193   3.758   4.009  0.8108 -0.6250  1.0711
   92MOL   H35835120   1.260   3.583   3.989  0.4730  1.0578 -0.0269
   92MOL   H35935121   1.212   3.669   3.866 -2.8011  0.0584 -0.7767
   92MOL   H36035122   1.108   3.403   4.081  0.2712 -0.4838 -1.4331
   92MOL   H36135123   0.940   3.411   4.036 -1.2968 -1.4194 -1.3313
   92MOL   H36235124   1.064   3.417   3.907 -2.3778 -0.1512 -0.4711
   92MOL   C36335125   0.821   3.926   4.246  0.2484 -0.0122 -0.3663
   92MOL   C36435126   0.929   3.988   4.158 -0.4738 -0.2444 -0.0808
   92MOL   C36535127   0.919   4.142   4.167  1.5991 -0.1594  0.4547
   92MOL   O36635128   1.020   4.210   4.185  0.0718  0.1197  0.5271
   92MOL   N36735129   0.791   4.185   4.146  0.0855 -0.2557 -0.2369
   92MOL   C36835130   0.753   4.326   4.130  0.2944  0.4223 -0.5783
   92MOL   C36935131   0.649   4.348   4.021  0.4827 -0.4805  0.6012
   92MOL   C37035132   0.700   4.380   4.262  0.2461 -0.0664  0.3080
   92MOL   H37135133   0.804   3.982   4.339  0.3836 -0.7583  0.1136
   92MOL   H37235134   0.724   3.933   4.197  0.3806  2.0641 -0.3854
   92MOL   H37335135   0.927   3.954   4.055  1.6785  0.2812 -0.3194
   92MOL   H37435136   0.725   4.120   4.106  0.0661 -0.6590  0.4429
   92MOL   H37535137   0.842   4.384   4.106  1.2095 -1.0629 -0.8218
   92MOL   H37635138   0.689   4.331   3.921  0.9570 -0.9310  0.8606
   92MOL   H37735139   0.567   4.276   4.030  0.0048 -0.4030 -2.4662
   92MOL   H37835140   0.610   4.449   4.026  1.5061  0.0411 -1.3235
   92MOL   H37935141   0.678   4.486   4.259  1.7376  0.2393  0.0466
   92MOL   H38035142   0.618   4.312   4.288  1.9526 -2.7661 -1.1010
   92MOL   H38135143   0.774   4.366   4.340  1.2678 -1.1420 -0.8404
   92MOL   H38235144   1.025   3.970   4.206 -0.6104  1.3389  0.8203
   93MOL     C135145   1.701   3.121   3.120 -0.3821 -0.4611  0.4068
   93MOL     C235146   1.771   2.986   3.135 -0.1422 -0.4261  0.7384
   93MOL     C335147   1.666   2.870   3.138  0.2502 -0.5275 -0.3284
   93MOL     O435148   1.631   2.807   3.039  0.0308  0.5650 -0.9278
   93MOL     N535149   1.611   2.838   3.259 -0.1736 -0.0224  0.7931
   93MOL     C635150   1.511   2.729   3.293  0.1628 -0.5842 -0.4038
   93MOL     C735151   1.573   2.601   3.347  0.2493  0.7442  0.1858
   93MOL     C835152   1.412   2.785   3.399 -0.6315  0.4459  0.5064
   93MOL     H935153   1.766   3.206   3.137 -1.1778  0.0879  0.7262
   93MOL    H1035154   1.605   3.123   3.173 -1.8730 -1.5186 -2.1718
   93MOL    H1135155   1.816   2.992   3.234 -0.5411  1.0853  0.8470
   93MOL    H1235156   1.636   2.904   3.331  1.7036 -2.9208  2.9010
   93MOL    H1335157   1.455   2.715   3.201 -1.4863  1.8005  0.1932
   93MOL    H1435158   1.610   2.614   3.449  0.9176 -1.3195  0.2355
   93MOL    H1535159   1.662   2.586   3.285 -0.9467 -1.0129 -1.1448
   93MOL    H1635160   1.504   2.517   3.346  0.9666  0.1461 -1.0691
   93MOL    H1735161   1.452   2.833   3.489  0.4266 -1.1159  0.8692
   93MOL    H1835162   1.342   2.860   3.361 -3.1958 -2.6925 -1.1891
   93MOL    H1935163   1.351   2.702   3.435  1.4910 -2.4237 -2.3029
   93MOL    H2035164   1.671   3.128   3.016 -1.4569 -1.4737  0.6331
   93MOL    C2135165   1.876   2.961   3.017  0.0206  0.1831 -0.5633
   93MOL    C2235166   1.946   2.820   3.028 -0.1050 -0.1858  0.6146
   93MOL    C2335167   2.032   2.796   3.158 -0.9488 -0.3571  0.5944
   93MOL    O2435168   2.154   2.798   3.156  1.1977 -0.4009  0.7674
   93MOL    N2535169   1.959   2.765   3.265 -0.0330  0.3085 -0.0633
   93MOL    C2635170   2.015   2.739   3.400 -0.2172  0.2521 -0.4608
   93MOL    C2735171   1.980   2.607   3.458  0.0292  1.0048 -0.4738
   93MOL    C2835172   1.999   2.852   3.494  0.1567  0.7501  0.2849
   93MOL    H2935173   1.959   3.031   3.025 -0.1788  0.3441  0.1169
   93MOL    H3035174   1.825   2.957   2.921 -2.1350 -0.9894  0.6047
   93MOL    H3135175   1.869   2.743   3.041  1.1037 -1.1759  2.0776
   93MOL    H3235176   1.861   2.746   3.249 -0.3527  2.8135 -1.2052
   93MOL    H3335177   2.122   2.722   3.383  0.6392  3.3117  1.4540
   93MOL    H3435178   1.999   2.546   3.369 -2.3797  0.6459 -0.7634
   93MOL    H3535179   1.877   2.599   3.492 -0.5664 -0.1199 -2.4081
   93MOL    H3635180   2.048   2.567   3.534  0.2616  1.3431 -0.5026
   93MOL    H3735181   2.042   2.829   3.591 -1.8891  2.6816  1.6829
   93MOL    H3835182   2.047   2.945   3.465  0.3239 -0.1403 -2.4422
   93MOL    H3935183   1.891   2.867   3.498  0.0983  0.1323  1.2666
   93MOL    C4035184   2.040   2.770   2.898 -0.2490  0.7960 -0.5393
   93MOL    C4135185   1.985   2.778   2.751  0.6976 -0.2168  0.3284
   93MOL    C4235186   1.856   2.694   2.734 -0.0902  0.0269  0.1398
   93MOL    O4335187   1.856   2.577   2.759  0.5292  0.2395 -0.0831
   93MOL    N4435188   1.749   2.750   2.679  0.4105  0.0296 -1.2255
   93MOL    C4535189   1.633   2.682   2.625  0.1293  0.1148  0.6618
   93MOL    C4635190   1.495   2.743   2.680 -0.0031 -0.5547 -0.8185
   93MOL    C4735191   1.640   2.683   2.474  0.7533  0.6106  0.5436
   93MOL    H4835192   2.070   2.667   2.917 -1.0824  1.0503  2.4124
   93MOL    H4935193   2.137   2.820   2.902  1.7529 -2.9676 -0.0678
   93MOL    H5035194   1.961   2.880   2.723  2.3883  0.2452  0.4960
   93MOL    H5135195   1.755   2.847   2.652 -3.0234  0.8557  0.7282
   93MOL    H5235196   1.628   2.587   2.676  1.5214  0.2136  1.0157
   93MOL    H5335197   1.482   2.729   2.787 -0.0631 -1.2151 -0.9104
   93MOL    H5435198   1.406   2.705   2.630 -0.8008  0.3836 -0.1079
   93MOL    H5535199   1.481   2.847   2.650 -1.9934 -0.4278  0.4704
   93MOL    H5635200   1.727   2.626   2.440 -0.3228 -1.1939  0.7319
   93MOL    H5735201   1.657   2.784   2.439  0.9564  1.1735  2.1996
   93MOL    H5835202   1.543   2.646   2.441  1.2884 -0.9340  0.6611
   93MOL    C5935203   2.094   2.719   2.652  0.2221 -0.8740  0.2974
   93MOL    C6035204   2.147   2.809   2.540  0.0885 -0.0604 -0.0387
   93MOL    C6135205   2.223   2.928   2.582  0.2751 -0.1442  0.7076
   93MOL    O6235206   2.184   3.041   2.571 -0.1151  0.9387 -0.1640
   93MOL    N6335207   2.329   2.895   2.655 -0.2808  0.0574 -0.1308
   93MOL    C6435208   2.412   2.993   2.732 -0.8007  0.0940  0.4004
   93MOL    C6535209   2.453   2.933   2.863  0.6599  0.3865 -0.2090
   93MOL    C6635210   2.532   3.040   2.645 -0.0411 -0.3692 -0.0329
   93MOL    H6735211   2.178   2.684   2.712  1.7047  1.1670 -0.5297
   93MOL    H6835212   2.049   2.636   2.596 -1.5890 -0.2019  0.7257
   93MOL    H6935213   2.218   2.757   2.477 -1.1822 -2.4675  0.4252
   93MOL    H7035214   2.351   2.796   2.656  1.2349  0.3693 -1.2002
   93MOL    H7135215   2.354   3.078   2.769  0.4335  0.4145  1.6338
   93MOL    H7235216   2.362   2.909   2.918  0.6723 -0.0770 -0.3916
   93MOL    H7335217   2.514   2.844   2.855  0.3638  0.1681 -0.0667
   93MOL    H7435218   2.518   2.996   2.923  0.8783 -0.9124  0.9487
   93MOL    H7535219   2.496   3.104   2.563  1.2141  0.5682  0.1309
   93MOL    H7635220   2.594   3.106   2.706 -0.1082  0.7248 -1.1091
   93MOL    H7735221   2.606   2.967   2.611  2.1196  0.2519  3.1501
   93MOL    C7835222   2.027   2.837   2.443 -0.0553 -0.3139 -0.2218
   93MOL    C7935223   2.046   2.928   2.322 -0.4802 -0.0613 -0.2974
   93MOL    C8035224   2.160   2.873   2.237 -0.4682 -0.0439 -0.5341
   93MOL    O8135225   2.144   2.776   2.170  0.0179  0.9251 -0.0510
   93MOL    N8235226   2.269   2.939   2.254  0.1380  0.3207 -0.0740
   93MOL    C8335227   2.403   2.928   2.200 -0.6348  0.0376  0.1872
   93MOL    C8435228   2.452   3.068   2.157  0.0511 -0.3462  0.2259
   93MOL    C8535229   2.500   2.860   2.292 -0.5521 -0.1804  0.0457
   93MOL    H8635230   1.949   2.885   2.502  0.6450  1.6766 -0.8944
   93MOL    H8735231   1.987   2.742   2.409 -0.0323 -1.1718  2.0415
   93MOL    H8835232   2.082   3.021   2.365  0.0370 -0.7825  0.8660
   93MOL    H8935233   2.263   3.016   2.319 -0.4832  0.4234 -0.2511
   93MOL    H9035234   2.392   2.860   2.115 -1.5625  0.3204  0.0756
   93MOL    H9135235   2.538   3.079   2.092 -1.6722  1.5640 -1.7990
   93MOL    H9235236   2.368   3.115   2.106  2.0235  1.7917 -1.1322
   93MOL    H9335237   2.474   3.125   2.247  0.3684  0.6426 -0.4712
   93MOL    H9435238   2.604   2.857   2.259 -0.3560  0.7127  0.5861
   93MOL    H9535239   2.467   2.757   2.309  1.3671 -0.4032  2.6996
   93MOL    H9635240   2.513   2.910   2.388 -0.9024 -0.1289  0.0668
   93MOL    C9735241   1.912   2.950   2.239  0.3244 -0.2678 -0.8432
   93MOL    C9835242   1.917   3.052   2.127 -1.0526 -0.6339 -0.3122
   93MOL    C9935243   1.922   3.195   2.175  0.3328  0.3106  0.3585
   93MOL   O10035244   1.818   3.249   2.210 -0.2725  0.3747 -0.0618
   93MOL   N10135245   2.038   3.258   2.175 -0.1315  0.2453 -0.3198
   93MOL   C10235246   2.051   3.396   2.218  0.3816  0.6269 -0.7954
   93MOL   C10335247   2.114   3.403   2.368 -0.1650 -0.6500  0.6702
   93MOL   C10435248   2.136   3.475   2.120 -0.0418 -0.3945  0.0944
   93MOL   H10535249   1.831   2.978   2.305  0.4942 -2.8712  0.5289
   93MOL   H10635250   1.890   2.850   2.201  1.0856  0.0254 -2.1185
   93MOL   H10735251   2.011   3.034   2.075 -0.5598 -0.6159  0.5739
   93MOL   H10835252   2.118   3.202   2.145  0.2756 -0.6768  2.3336
   93MOL   H10935253   1.951   3.437   2.223  0.0716 -0.3027  0.8433
   93MOL   H11035254   2.215   3.364   2.358  0.2887 -0.3139  3.6371
   93MOL   H11135255   2.103   3.507   2.399 -1.0169 -0.1834 -1.0864
   93MOL   H11235256   2.069   3.335   2.439  1.4562 -2.1528  0.3005
   93MOL   H11335257   2.227   3.419   2.100  1.6164  2.0408  0.6150
   93MOL   H11435258   2.178   3.572   2.145 -1.6520  0.5430 -0.7571
   93MOL   H11535259   2.076   3.485   2.029 -1.4170  2.7251  1.2621
   93MOL   C11635260   1.808   3.032   2.011 -1.0935  0.3163 -0.5240
   93MOL   C11735261   1.829   2.913   1.914 -0.1528  0.0136 -0.1313
   93MOL   C11835262   1.948   2.943   1.813 -0.8196  0.1575  0.2698
   93MOL   O11935263   1.935   3.033   1.732 -0.3082  0.0440  0.0840
   93MOL   N12035264   2.053   2.860   1.831 -0.4913 -0.1956  0.1709
   93MOL   C12135265   2.179   2.862   1.765 -0.1297  0.3746 -0.0826
   93MOL   C12235266   2.288   2.933   1.845  0.7566  0.5092 -0.0137
   93MOL   C12335267   2.218   2.721   1.728 -0.1608 -0.2241 -0.3951
   93MOL   H12435268   1.800   3.124   1.954  2.0970  0.2191 -1.2221
   93MOL   H12535269   1.714   3.031   2.068 -0.6966  0.4427  0.1390
   93MOL   H12635270   1.858   2.837   1.986  1.1899  2.3827  1.9267
   93MOL   H12735271   2.057   2.802   1.914  0.1414 -0.3577  0.0300
   93MOL   H12835272   2.176   2.903   1.664 -1.8043  2.2264  0.6753
   93MOL   H12935273   2.310   2.880   1.938 -1.2067 -1.5394 -0.6611
   93MOL   H13035274   2.261   3.035   1.873  0.0881 -0.1500  1.8040
   93MOL   H13135275   2.380   2.934   1.786  1.1663  0.8216  0.6203
   93MOL   H13235276   2.143   2.666   1.672 -1.4867  1.6980 -0.5353
   93MOL   H13335277   2.314   2.705   1.679 -0.2678  0.6795 -0.9127
   93MOL   H13435278   2.220   2.659   1.818 -1.5302 -0.5522 -0.5847
   93MOL   C13535279   1.705   2.872   1.845 -0.7068  0.2686  0.3612
   93MOL   C13635280   1.716   2.734   1.766  0.1022  0.4419 -0.0729
   93MOL   C13735281   1.784   2.626   1.852 -0.2155 -0.1828  0.8849
   93MOL   O13835282   1.889   2.576   1.803  0.0525  0.4507 -0.6757
   93MOL   N13935283   1.726   2.586   1.967  0.4558  0.2883 -0.4382
   93MOL   C14035284   1.748   2.460   2.042 -0.4354 -0.2405 -0.1265
   93MOL   C14135285   1.904   2.447   2.077  0.2134 -0.0340  0.4968
   93MOL   C14235286   1.690   2.335   1.967  0.1867 -0.2671 -0.2764
   93MOL   H14335287   1.677   2.955   1.779 -0.4218  0.8446  0.9549
   93MOL   H14435288   1.628   2.860   1.921  1.6452 -0.8652  2.6663
   93MOL   H14535289   1.781   2.765   1.683  1.3833 -2.0086 -0.0279
   93MOL   H14635290   1.636   2.631   1.977 -0.1476 -1.0604  0.4428
   93MOL   H14735291   1.700   2.475   2.138  0.5669 -0.6196  0.4494
   93MOL   H14835292   1.973   2.437   1.993  0.7859 -0.3606  1.0001
   93MOL   H14935293   1.933   2.539   2.129 -1.2733  0.3521  0.6582
   93MOL   H15035294   1.921   2.362   2.143  1.0138 -1.0808 -1.0440
   93MOL   H15135295   1.689   2.254   2.040  0.6093  0.8361  0.9617
   93MOL   H15235296   1.725   2.303   1.869  0.0636  0.5277 -0.5785
   93MOL   H15335297   1.586   2.350   1.940  0.3280 -2.2734 -2.0432
   93MOL   C15435298   1.578   2.678   1.710 -0.5122 -0.3437  0.1012
   93MOL   C15535299   1.596   2.545   1.631 -0.2725  0.2859  0.1558
   93MOL   C15635300   1.678   2.562   1.495  0.2471  0.0376  0.5598
   93MOL   O15735301   1.613   2.585   1.392  0.5664  0.5172  0.5120
   93MOL   N15835302   1.813   2.544   1.499  0.3187  0.0499  0.0372
   93MOL   C15935303   1.904   2.563   1.383  0.6964  0.9283 -0.4259
   93MOL   C16035304   1.927   2.427   1.316 -0.3088  0.5573  0.6838
   93MOL   C16135305   2.040   2.614   1.437  0.4358 -0.2171 -0.2231
   93MOL   H16235306   1.535   2.757   1.648 -1.1237 -0.5277  0.2883
   93MOL   H16335307   1.508   2.667   1.792 -0.1444 -0.4059  0.4110
   93MOL   H16435308   1.652   2.483   1.702  1.3377  1.8705  0.3192
   93MOL   H16535309   1.850   2.524   1.591 -0.2980  1.2054  0.5493
   93MOL   H16635310   1.863   2.634   1.311 -1.1951  0.1538 -0.1566
   93MOL   H16735311   1.996   2.433   1.231 -0.9473  0.3569  0.1459
   93MOL   H16835312   1.974   2.364   1.392  0.2227 -1.6133 -1.3769
   93MOL   H16935313   1.836   2.380   1.279 -0.7090  2.3439 -0.6419
   93MOL   H17035314   2.121   2.633   1.366  0.8876 -0.3500  0.2503
   93MOL   H17135315   2.083   2.547   1.512  3.5116  3.2071  1.2701
   93MOL   H17235316   2.018   2.706   1.491  2.4587  0.4832 -0.5400
   93MOL   C17335317   1.458   2.477   1.606  0.0710  0.1913  0.2665
   93MOL   C17435318   1.460   2.336   1.552 -0.1345  0.1916 -0.3929
   93MOL   C17535319   1.516   2.233   1.653  0.0013 -0.7490  0.5318
   93MOL   O17635320   1.451   2.215   1.757  0.0851  0.1723  0.1318
   93MOL   N17735321   1.638   2.180   1.634 -0.4145  0.4355 -0.0190
   93MOL   C17835322   1.702   2.070   1.717  0.0118  0.9994  0.0660
   93MOL   C17935323   1.855   2.075   1.708 -0.4700  0.6900  0.5910
   93MOL   C18035324   1.655   1.928   1.679 -0.5341 -0.2736 -0.1604
   93MOL   H18135325   1.398   2.545   1.546 -0.8766 -0.3588  0.5882
   93MOL   H18235326   1.415   2.474   1.706  1.5105  1.0087  0.9240
   93MOL   H18335327   1.540   2.339   1.477 -0.3689 -1.3703 -0.7177
   93MOL   H18435328   1.684   2.206   1.548  0.9574 -1.8058  0.0195
   93MOL   H18535329   1.677   2.092   1.821 -1.8960 -1.2044  0.1281
   93MOL   H18635330   1.895   2.052   1.610  1.6543 -1.1459  1.8522
   93MOL   H18735331   1.913   2.000   1.762  0.1933  0.3445 -0.5995
   93MOL   H18835332   1.892   2.175   1.730  0.0231  1.1853 -2.3057
   93MOL   H18935333   1.711   1.848   1.727 -0.3183 -1.1931 -1.8823
   93MOL   H19035334   1.656   1.923   1.570 -0.0050  1.5437 -0.2529
   93MOL   H19135335   1.555   1.916   1.722 -0.0596  0.3184  1.1178
   93MOL   C19235336   1.326   2.287   1.496 -0.0139 -0.2416 -0.6077
   93MOL   C19335337   1.255   2.355   1.378  0.3990  0.3753 -0.8039
   93MOL   C19435338   1.107   2.308   1.368 -0.1948  0.0433 -1.1174
   93MOL   O19535339   1.089   2.189   1.357  0.3047  0.1817 -0.0670
   93MOL   N19635340   1.008   2.392   1.366  0.0979  0.0723  0.5204
   93MOL   C19735341   0.864   2.376   1.344 -0.5551 -0.1969  0.1367
   93MOL   C19835342   0.796   2.453   1.453  0.1007 -0.0802 -0.3533
   93MOL   C19935343   0.822   2.412   1.200  0.3010 -0.7628  0.3665
   93MOL   H20035344   1.266   2.275   1.586 -0.9049 -0.3694 -1.2146
   93MOL   H20135345   1.336   2.180   1.473 -0.2949 -0.3861 -0.0638
   93MOL   H20235346   1.239   2.461   1.397  0.4098  0.0188  1.3268
   93MOL   H20335347   1.039   2.483   1.398 -0.2394 -0.1865  1.6325
   93MOL   H20435348   0.828   2.274   1.356 -1.1134  0.1628  1.5917
   93MOL   H20535349   0.688   2.433   1.452  0.0590  0.1879 -1.3589
   93MOL   H20635350   0.809   2.560   1.433  1.1782 -0.5588 -2.3303
   93MOL   H20735351   0.830   2.431   1.554  0.8033  1.2476 -0.2848
   93MOL   H20835352   0.714   2.422   1.184  0.6165  2.6084 -0.0189
   93MOL   H20935353   0.859   2.341   1.126 -3.0005  0.2023 -2.3223
   93MOL   H21035354   0.868   2.507   1.173  0.9616 -0.2979  3.0119
   93MOL   C21135355   1.322   2.329   1.247  0.2278 -0.5003 -0.5181
   93MOL   C21235356   1.315   2.433   1.133 -0.1258 -0.1356  0.3403
   93MOL   C21335357   1.446   2.430   1.048 -0.3190  0.1117 -0.1314
   93MOL   O21435358   1.506   2.321   1.022  0.4068  0.6262 -0.2134
   93MOL   N21535359   1.496   2.549   1.010  0.6390 -0.2814 -0.5984
   93MOL   C21635360   1.624   2.584   0.940  0.0054 -0.3087 -0.2806
   93MOL   C21735361   1.735   2.613   1.046 -0.3080  0.6255 -0.0844
   93MOL   C21835362   1.610   2.709   0.839  0.3418  0.3542 -0.4669
   93MOL   H21935363   1.295   2.232   1.204  0.4897 -0.6749 -0.2907
   93MOL   H22035364   1.427   2.327   1.277  0.3380  0.3989 -0.8316
   93MOL   H22135365   1.324   2.534   1.175  0.7992  1.0872 -2.6975
   93MOL   H22235366   1.439   2.628   1.037 -0.2683 -1.7174  1.8490
   93MOL   H22335367   1.647   2.492   0.886 -0.2459  0.0324 -0.9716
   93MOL   H22435368   1.834   2.640   1.007  0.2848 -1.5863 -0.1700
   93MOL   H22535369   1.704   2.703   1.099 -0.8718 -0.9795  2.3695
   93MOL   H22635370   1.734   2.533   1.120  0.4448  1.6320  1.0417
   93MOL   H22735371   1.574   2.795   0.896  0.3169  0.9664 -1.3959
   93MOL   H22835372   1.534   2.694   0.761 -0.3036  0.1018  0.2014
   93MOL   H22935373   1.707   2.723   0.792 -0.7167  1.5571 -2.3604
   93MOL   C23035374   1.186   2.414   1.053  0.6791  0.2248 -0.3572
   93MOL   C23135375   1.143   2.506   0.929 -0.0967  1.1846 -0.2679
   93MOL   C23235376   1.150   2.647   0.974  0.6632 -0.4706  0.3916
   93MOL   O23335377   1.255   2.712   0.992  0.5679 -0.0722 -0.1857
   93MOL   N23435378   1.032   2.721   0.992  0.6160  0.3119 -0.7743
   93MOL   C23535379   1.019   2.856   1.051  0.7580  0.0947  0.5846
   93MOL   C23635380   0.869   2.905   1.028  0.0461 -0.0709 -0.6514
   93MOL   C23735381   1.055   2.855   1.202 -0.1826 -0.0238  0.1157
   93MOL   H23835382   1.102   2.422   1.123 -0.8722  0.4789 -2.1872
   93MOL   H23935383   1.170   2.308   1.032  1.3220  0.4502 -2.0382
   93MOL   H24035384   1.037   2.486   0.915  0.3409 -1.3960 -0.0675
   93MOL   H24135385   0.946   2.671   0.978 -1.1043  3.5495 -2.3981
   93MOL   H24235386   1.086   2.914   0.989 -0.5238 -0.0366 -0.9450
   93MOL   H24335387   0.857   2.917   0.920  1.6780 -0.8456 -0.9317
   93MOL   H24435388   0.801   2.832   1.072 -0.4988  0.0405 -1.2974
   93MOL   H24535389   0.861   3.007   1.066 -1.2677  0.6017 -2.6424
   93MOL   H24635390   0.978   2.804   1.260 -2.0448  1.2244 -1.2415
   93MOL   H24735391   1.059   2.958   1.235 -0.7393 -0.0603  0.3011
   93MOL   H24835392   1.154   2.818   1.230 -0.0043  0.1128 -0.3311
   93MOL   C24935393   1.228   2.472   0.804  0.0753 -0.0371  0.4689
   93MOL   C25035394   1.197   2.546   0.677 -0.3604 -0.1050  0.4473
   93MOL   C25135395   1.054   2.549   0.642 -0.0825 -0.2120  0.0229
   93MOL   O25235396   1.005   2.454   0.579 -0.0107  0.3053  0.6042
   93MOL   N25335397   0.988   2.663   0.678 -0.6096 -0.1089 -0.0529
   93MOL   C25435398   0.852   2.697   0.640 -0.4680 -0.8010  1.1606
   93MOL   C25535399   0.764   2.645   0.755 -0.0293 -0.0033  0.0201
   93MOL   C25635400   0.835   2.846   0.633 -0.2200 -0.1065 -0.7570
   93MOL   H25735401   1.223   2.365   0.784 -2.4587  0.0841  0.3454
   93MOL   H25835402   1.335   2.488   0.818  0.5064 -0.1326 -2.4606
   93MOL   H25935403   1.231   2.647   0.696 -2.4805  1.2808 -2.6353
   93MOL   H26035404   1.042   2.725   0.735  1.3412 -2.0747  0.2878
   93MOL   H26135405   0.824   2.644   0.549  1.5968 -0.3058  0.1989
   93MOL   H26235406   0.785   2.543   0.786 -2.2736 -0.1983  0.9942
   93MOL   H26335407   0.788   2.708   0.840 -0.5567 -0.1921  0.3077
   93MOL   H26435408   0.655   2.655   0.750  0.1700  1.7429 -1.2981
   93MOL   H26535409   0.732   2.872   0.607  0.8131  2.1500 -2.7967
   93MOL   H26635410   0.872   2.897   0.722  2.2578 -0.8672 -1.3038
   93MOL   H26735411   0.899   2.881   0.552  1.3798 -2.0244 -0.3467
   93MOL   C26835412   1.280   2.490   0.564  0.8903  0.3402  0.0193
   93MOL   C26935413   1.292   2.559   0.430 -0.4247  0.1195  0.5157
   93MOL   C27035414   1.364   2.691   0.433 -0.6881 -0.5358 -0.0034
   93MOL   O27135415   1.424   2.730   0.535  0.1998 -0.1312  0.5313
   93MOL   N27235416   1.357   2.752   0.318 -0.2086 -0.6947  0.3332
   93MOL   C27335417   1.385   2.893   0.298 -0.1365 -0.2460 -0.0613
   93MOL   C27435418   1.518   2.907   0.218 -0.6202 -0.0981  0.1387
   93MOL   C27535419   1.260   2.962   0.227 -0.3783 -0.0734 -0.2550
   93MOL   H27635420   1.381   2.469   0.598 -0.4357 -1.7512  2.9117
   93MOL   H27735421   1.251   2.385   0.551  0.4076  0.4853 -0.0723
   93MOL   H27835422   1.189   2.577   0.401 -0.6335 -2.9352 -0.7992
   93MOL   H27935423   1.327   2.703   0.235  1.3029 -2.4762  0.7977
   93MOL   H28035424   1.392   2.948   0.392 -0.0976  1.2560 -0.9422
   93MOL   H28135425   1.483   2.868   0.122 -0.3904 -2.5497  1.0136
   93MOL   H28235426   1.556   3.009   0.220  1.7957 -1.0003  1.5056
   93MOL   H28335427   1.598   2.845   0.257 -0.2498 -0.2487 -0.8432
   93MOL   H28435428   1.169   2.938   0.282 -0.6184  1.7803  0.1746
   93MOL   H28535429   1.269   3.070   0.232 -1.8862 -0.0289  2.6141
   93MOL   H28635430   1.242   2.930   0.124 -1.1480  0.2183 -0.2082
   93MOL   C28735431   1.322   2.460   0.318 -0.1542  0.2637 -0.3481
   93MOL   C28835432   1.458   2.383   0.327 -0.5399 -0.3042 -0.4104
   93MOL   C28935433   1.565   2.483   0.278 -0.0856 -0.3206 -0.2836
   93MOL   O29035434   1.565   2.515   0.158 -0.3575 -0.1172 -0.1496
   93MOL   N29135435   1.660   2.518   0.365 -0.1528  0.1303 -0.0801
   93MOL   C29235436   1.780   2.603   0.348 -0.6034  0.5045 -0.8153
   93MOL   C29335437   1.802   2.686   0.482 -0.4481 -0.0122  0.1154
   93MOL   C29435438   1.905   2.519   0.314 -0.7191  0.6257 -0.2826
   93MOL   H29535439   1.241   2.387   0.325 -0.4966  0.6650 -0.1601
   93MOL   H29635440   1.317   2.511   0.222 -0.2157  0.9000 -0.0044
   93MOL   H29735441   1.463   2.370   0.435 -2.2191 -1.7639 -0.4935
   93MOL   H29835442   1.664   2.487   0.461 -0.9959  1.7985  0.5150
   93MOL   H29935443   1.773   2.673   0.265 -1.0761  1.5910  0.1358
   93MOL   H30035444   1.852   2.623   0.556 -2.8383 -0.3407  1.4868
   93MOL   H30135445   1.860   2.778   0.474  2.0019 -1.3605  1.6809
   93MOL   H30235446   1.706   2.715   0.524  0.3629  3.2680 -0.1880
   93MOL   H30335447   1.894   2.462   0.221 -0.0401  0.2630 -0.1425
   93MOL   H30435448   1.996   2.577   0.299  0.5580 -0.8587  1.6720
   93MOL   H30535449   1.922   2.462   0.405 -1.7975  1.2235  0.2998
   93MOL   C30635450   1.457   2.249   0.239 -0.2358 -0.2824 -0.2377
   93MOL   C30735451   1.562   2.141   0.260 -0.1989 -0.5550 -0.0340
   93MOL   C30835452   1.561   2.110   0.410  1.1534 -0.3829 -0.1088
   93MOL   O30935453   1.468   2.047   0.465  0.1789 -0.4440 -0.1797
   93MOL   N31035454   1.661   2.160   0.485 -0.2488 -0.0740 -0.0116
   93MOL   C31135455   1.679   2.141   0.628  0.3038 -0.0960 -0.3764
   93MOL   C31235456   1.814   2.073   0.653 -0.4375 -0.5749  0.2689
   93MOL   C31335457   1.671   2.276   0.701 -0.2550  0.2501 -0.1202
   93MOL   H31435458   1.362   2.194   0.240 -0.0146 -0.6659  0.8058
   93MOL   H31535459   1.466   2.274   0.134  0.3691 -2.0515 -0.6306
   93MOL   H31635460   1.528   2.054   0.203 -1.3018  1.6742 -2.8816
   93MOL   H31735461   1.733   2.215   0.442  1.3257 -0.2654  2.3103
   93MOL   H31835462   1.599   2.075   0.662  0.3804  0.5732  1.1112
   93MOL   H31935463   1.830   2.045   0.758  1.7883 -0.5995 -0.0469
   93MOL   H32035464   1.885   2.151   0.626 -2.9313  0.7865 -2.6595
   93MOL   H32135465   1.820   1.981   0.595 -0.2657  0.1819 -0.9201
   93MOL   H32235466   1.749   2.345   0.672  0.3517 -0.3823 -0.0116
   93MOL   H32335467   1.678   2.258   0.809  2.0335 -0.4160 -0.3653
   93MOL   H32435468   1.576   2.328   0.684 -0.4441 -0.6019 -1.7819
   93MOL   C32535469   1.704   2.185   0.205 -0.8119 -0.3309 -0.0027
   93MOL   C32635470   1.818   2.077   0.230  0.5144 -0.4933 -0.1727
   93MOL   C32735471   1.787   1.949   0.147 -0.3688  0.6627  0.4446
   93MOL   O32835472   1.830   1.950   0.031  0.1343 -0.4240 -0.3187
   93MOL   N32935473   1.729   1.846   0.210 -0.6337 -0.0834 -0.0386
   93MOL   C33035474   1.696   1.719   0.153  0.6633  0.7638 -0.1890
   93MOL   C33135475   1.561   1.714   0.075  0.1901  0.1758  0.5250
   93MOL   C33235476   1.701   1.617   0.264 -0.4860 -0.1472  0.0825
   93MOL   H33335477   1.737   2.269   0.265 -1.9936 -0.9736  1.5639
   93MOL   H33435478   1.687   2.222   0.104 -0.9290 -1.1558 -0.2908
   93MOL   H33535479   1.823   2.069   0.339 -1.2639  3.3140  0.2486
   93MOL   H33635480   1.699   1.861   0.306  1.8976 -1.4235  0.9837
   93MOL   H33735481   1.781   1.692   0.091  1.2379  2.2147 -0.0320
   93MOL   H33835482   1.483   1.766   0.131 -0.2305 -0.0308  0.1372
   93MOL   H33935483   1.573   1.759   7.813  1.7759  0.7366  0.9596
   93MOL   H34035484   1.531   1.611   0.053  0.8437  0.1592 -0.3167
   93MOL   H34135485   1.804   1.605   0.296 -1.1861 -0.3011  2.3482
   93MOL   H34235486   1.665   1.518   0.235  2.8586 -0.9309 -1.7091
   93MOL   H34335487   1.646   1.648   0.352 -0.0820 -0.3030  0.3874
   93MOL   C34435488   1.955   2.140   0.200  0.6134 -0.8176 -0.0106
   93MOL   C34535489   2.088   2.055   0.224  0.1389  0.4003 -0.0646
   93MOL   C34635490   2.092   1.974   0.355  0.3082 -0.0529  0.3542
   93MOL   O34735491   2.008   1.883   0.378  0.0221  1.1313 -0.2714
   93MOL   N34835492   2.186   2.014   0.446  0.3240  0.2198 -0.4593
   93MOL   C34935493   2.214   1.946   0.575 -0.1613  0.6659  0.1335
   93MOL   C35035494   2.321   1.841   0.554  0.4060  0.7970 -0.7126
   93MOL   C35135495   2.243   2.054   0.684  0.0575 -0.0910 -0.4747
   93MOL   H35235496   1.972   2.231   0.256 -1.0151  1.2868 -2.7696
   93MOL   H35335497   1.958   2.188   0.102 -2.0582 -1.6386 -0.5319
   93MOL   H35435498   2.165   2.132   0.232  0.6591  0.1211 -2.1541
   93MOL   H35535499   2.249   2.084   0.413  0.9623 -0.8947 -1.6548
   93MOL   H35635500   2.127   1.883   0.596 -0.8904  1.1993 -1.2234
   93MOL   H35735501   2.284   1.753   0.501  1.0290  1.0689 -1.6064
   93MOL   H35835502   2.413   1.867   0.502  0.8198  0.9615  0.0939
   93MOL   H35935503   2.346   1.804   0.653  1.4501  1.7514 -0.6189
   93MOL   H36035504   2.349   2.056   0.709  0.3479 -0.2347 -1.6622
   93MOL   H36135505   2.224   2.154   0.646  3.3750 -0.3673 -3.0603
   93MOL   H36235506   2.178   2.041   0.770  0.9262  0.7491  0.3208
   93MOL   C36335507   2.136   1.970   0.098 -0.7558  0.0653  0.2020
   93MOL   C36435508   2.297   1.951   0.087  0.6542  0.7847 -0.0340
   93MOL   C36535509   2.337   1.953   7.777 -0.0095 -0.4449  0.2225
   93MOL   O36635510   2.337   1.839   7.722  0.4197 -0.2559  0.2224
   93MOL   N36735511   2.369   2.067   7.708 -0.7028  0.3052 -0.3441
   93MOL   C36835512   2.388   2.066   7.566  0.0563 -0.4410  0.0947
   93MOL   C36935513   2.263   2.109   7.486  0.0628  0.0582 -0.4934
   93MOL   C37035514   2.502   2.162   7.542 -0.4003 -0.6637  0.1588
   93MOL   H37135515   2.119   2.034   0.012  1.4969 -0.2717 -0.5207
   93MOL   H37235516   2.090   1.871   0.090 -3.0054  1.0783  0.3387
   93MOL   H37335517   2.312   1.856   0.139 -3.3997 -0.2334 -0.5229
   93MOL   H37435518   2.383   2.157   7.752  4.9425 -0.9093  0.6920
   93MOL   H37535519   2.426   1.969   7.533  1.4074 -0.3120  1.2473
   93MOL   H37635520   2.283   2.112   7.379  1.3797 -2.7890 -0.3653
   93MOL   H37735521   2.194   2.025   7.483 -0.0445  0.0100  2.0007
   93MOL   H37835522   2.227   2.208   7.517 -0.4285 -0.8054  1.8317
   93MOL   H37935523   2.467   2.261   7.569  1.0363 -0.1191  0.0303
   93MOL   H38035524   2.593   2.114   7.578  0.1646 -0.3622 -0.8610
   93MOL   H38135525   2.521   2.173   7.436 -3.8390 -0.0013 -0.4590
   93MOL   H38235526   2.344   2.027   0.148  0.3002  2.6137 -1.9763
   94MOL     C135527   2.794   6.435   7.433 -0.6062 -0.1287 -0.0357
   94MOL     C235528   2.783   6.586   7.462 -0.2864  0.0624 -0.4241
   94MOL     C335529   2.668   6.653   7.373 -0.7698 -0.3387 -0.4523
   94MOL     O435530   2.571   6.584   7.349  0.0978  0.5577  0.4934
   94MOL     N535531   2.669   6.784   7.348 -0.6126 -0.0643 -0.5727
   94MOL     C635532   2.570   6.846   7.259 -0.1616  0.3517 -0.1628
   94MOL     C735533   2.571   7.001   7.287 -0.1520 -0.3631 -0.9446
   94MOL     C835534   2.592   6.804   7.111  0.8239  0.7492  0.2388
   94MOL     H935535   2.772   6.412   7.329 -1.8241  2.0656 -0.2906
   94MOL    H1035536   2.712   6.380   7.478 -0.6657  0.1863  0.2422
   94MOL    H1135537   2.874   6.623   7.414 -0.1910 -0.1459 -0.4029
   94MOL    H1235538   2.737   6.845   7.392 -0.3286 -1.2448  0.6552
   94MOL    H1335539   2.466   6.821   7.280  0.4684 -1.7229  0.6317
   94MOL    H1435540   2.664   7.055   7.273 -1.4780  1.8415 -1.4448
   94MOL    H1535541   2.540   7.012   7.391  2.3212 -4.8254  0.4024
   94MOL    H1635542   2.516   7.068   7.222  0.1190  1.0146  0.2141
   94MOL    H1735543   2.597   6.697   7.092  1.1191  0.9766 -0.9845
   94MOL    H1835544   2.518   6.846   7.043 -1.4820  1.1485  2.8752
   94MOL    H1935545   2.688   6.844   7.080  1.8747 -0.9398  1.2241
   94MOL    H2035546   2.890   6.390   7.458  0.3412  2.0218  0.3380
   94MOL    C2135547   2.775   6.632   7.615  0.0029  0.8463  0.1731
   94MOL    C2235548   2.897   6.693   7.680 -0.5025 -0.4756  0.1038
   94MOL    C2335549   2.961   6.816   7.608 -0.3006 -0.1137 -0.2127
   94MOL    O2435550   2.902   6.876   7.517  0.3432 -0.3939 -0.5026
   94MOL    N2535551   3.076   6.860   7.657 -0.4023 -0.5379 -0.3346
   94MOL    C2635552   3.143   6.989   7.623 -0.0584 -0.1949 -0.3528
   94MOL    C2735553   3.241   6.965   7.504  0.2700  1.1048  0.1824
   94MOL    C2835554   3.204   7.056   7.746  0.0130 -0.1033 -0.2248
   94MOL    H2935555   2.735   6.548   7.671  1.0092 -0.0521 -0.4502
   94MOL    H3035556   2.702   6.712   7.633 -1.0457  0.5581 -2.4753
   94MOL    H3135557   2.864   6.735   7.775 -1.3579 -1.1859  0.1275
   94MOL    H3235558   3.123   6.808   7.729  1.1360  0.2410 -0.7619
   94MOL    H3335559   3.058   7.045   7.584 -0.1505 -1.6220 -2.3013
   94MOL    H3435560   3.192   6.910   7.423  2.1574 -1.0165  0.4194
   94MOL    H3535561   3.330   6.904   7.520 -2.3568 -3.4922 -1.5640
   94MOL    H3635562   3.273   7.054   7.451 -2.8574  0.9907 -2.0747
   94MOL    H3735563   3.225   7.161   7.726  1.7039 -0.6656 -1.5966
   94MOL    H3835564   3.137   7.049   7.831  0.6789  0.6438  0.3718
   94MOL    H3935565   3.292   7.009   7.791 -0.4186  2.0034  2.9625
   94MOL    C4035566   2.997   6.576   7.709  0.9226 -0.0703 -0.3398
   94MOL    C4135567   3.003   6.538   0.024  0.0158 -0.2037  0.3222
   94MOL    C4235568   3.083   6.640   0.105  0.7276 -0.8557  0.1019
   94MOL    O4335569   3.198   6.663   0.068 -0.4060 -0.0539  0.1412
   94MOL    N4435570   3.016   6.702   0.203  0.3689 -0.0249 -0.5498
   94MOL    C4535571   3.072   6.791   0.298 -0.1477 -0.4862 -0.4688
   94MOL    C4635572   2.959   6.861   0.376  0.4412  0.1877  0.5743
   94MOL    C4735573   3.171   6.715   0.383  0.2023 -0.5215  0.0194
   94MOL    H4835574   3.100   6.590   7.675  2.2557 -1.3775  2.9299
   94MOL    H4935575   2.972   6.488   7.651  1.2489  0.6267 -1.5485
   94MOL    H5035576   2.903   6.534   0.067  0.0510 -1.4821  0.3074
   94MOL    H5135577   2.920   6.671   0.209  0.6444 -1.4658 -2.8048
   94MOL    H5235578   3.123   6.868   0.239  1.3047 -2.5955 -2.0309
   94MOL    H5335579   2.993   6.941   0.442  0.5562 -0.5095  1.3785
   94MOL    H5435580   2.904   6.784   0.431  0.7404 -0.2586  0.2565
   94MOL    H5535581   2.886   6.899   0.305 -0.1775  0.0380  1.1262
   94MOL    H5635582   3.126   6.632   0.437 -0.2764  0.3211  0.9431
   94MOL    H5735583   3.215   6.785   0.454 -0.8949 -0.2009  0.3912
   94MOL    H5835584   3.251   6.672   0.322 -0.1928  0.5521 -1.2766
   94MOL    C5935585   3.052   6.394   0.047  0.3550 -0.4160 -0.0548
   94MOL    C6035586   3.069   6.339   0.186  0.1355 -0.3882 -0.9080
   94MOL    C6135587   3.205   6.275   0.224 -0.4147 -0.1955  0.1677
   94MOL    O6235588   3.211   6.160   0.260 -0.8258  0.7081 -0.1963
   94MOL    N6335589   3.311   6.359   0.234  0.7600 -0.0086 -0.2928
   94MOL    C6435590   3.445   6.314   0.266 -0.1456 -0.3961 -0.1666
   94MOL    C6535591   3.498   6.195   0.179  0.1197 -0.2983 -0.3609
   94MOL    C6635592   3.535   6.435   0.247  0.2995  0.5861 -0.5495
   94MOL    H6735593   2.975   6.336   7.831 -0.6785  1.8718 -1.1620
   94MOL    H6835594   3.144   6.399   7.826 -1.1851 -2.5415 -2.8825
   94MOL    H6935595   3.084   6.431   0.243 -0.7078  1.2353 -3.2112
   94MOL    H7035596   3.294   6.454   0.206 -2.1172 -0.1837  0.6939
   94MOL    H7135597   3.460   6.285   0.370  0.2593 -0.0965 -0.1384
   94MOL    H7235598   3.427   6.113   0.173 -0.6481  0.4164 -1.3826
   94MOL    H7335599   3.534   6.217   0.078  0.3702  2.2742  0.2449
   94MOL    H7435600   3.582   6.147   0.229 -0.0304  1.2870  1.4667
   94MOL    H7535601   3.524   6.493   0.339 -3.6369  0.5712 -0.9003
   94MOL    H7635602   3.640   6.407   0.252 -0.1594 -0.8327  2.7770
   94MOL    H7735603   3.525   6.494   0.157  1.2581  2.1933  0.3838
   94MOL    C7835604   2.944   6.258   0.236 -0.3361  0.3097 -0.5188
   94MOL    C7935605   2.806   6.325   0.232  0.3970  0.0699 -0.6925
   94MOL    C8035606   2.692   6.229   0.229  0.3506 -0.1023 -0.3769
   94MOL    O8135607   2.703   6.136   0.312  0.0204 -0.7640 -0.1350
   94MOL    N8235608   2.594   6.239   0.142  0.0772 -0.1678 -0.6625
   94MOL    C8335609   2.493   6.140   0.106  0.4058  0.4828  0.3927
   94MOL    C8435610   2.365   6.184   0.178 -0.3620  0.2566 -0.0881
   94MOL    C8535611   2.486   6.127   7.787  0.7440 -0.2217 -0.4145
   94MOL    H8635612   2.963   6.227   0.339 -1.2796 -0.4699 -0.5788
   94MOL    H8735613   2.940   6.162   0.185  0.7744  0.4149 -0.8185
   94MOL    H8835614   2.801   6.371   0.133 -1.7491 -1.8522 -1.5304
   94MOL    H8935615   2.595   6.320   0.081 -1.6972 -1.2206 -2.1305
   94MOL    H9035616   2.521   6.046   0.153  0.7249  0.4263  0.0826
   94MOL    H9135617   2.288   6.107   0.168  0.5967 -0.7553  0.1080
   94MOL    H9235618   2.377   6.209   0.283  0.6200  0.1712 -0.1737
   94MOL    H9335619   2.327   6.277   0.135  2.7408  0.2921 -2.9975
   94MOL    H9435620   2.404   6.061   7.758  0.6177  0.0392 -0.6580
   94MOL    H9535621   2.579   6.099   7.738  0.4025 -1.2245 -0.4972
   94MOL    H9635622   2.463   6.224   7.741  2.5840  0.4949  0.1425
   94MOL    C9735623   2.795   6.429   0.350  0.1738 -0.1833  0.1270
   94MOL    C9835624   2.664   6.516   0.347 -0.4115 -0.0445 -0.2020
   94MOL    C9935625   2.639   6.587   0.213 -0.0270  0.0699  0.1403
   94MOL   O10035626   2.730   6.655   0.166 -0.3097 -0.2802 -0.4726
   94MOL   N10135627   2.516   6.575   0.160 -0.4988  0.0771 -0.1562
   94MOL   C10235628   2.487   6.634   0.031 -0.6747  0.0176 -0.1915
   94MOL   C10335629   2.465   6.524   7.770  0.4758  0.0783  0.9843
   94MOL   C10435630   2.361   6.718   0.034  0.0373  0.2280  0.8959
   94MOL   H10535631   2.877   6.501   0.348 -0.3771  0.4458 -2.4407
   94MOL   H10635632   2.792   6.378   0.446 -1.8994 -1.5418 -0.6196
   94MOL   H10735633   2.576   6.454   0.359 -1.5575  0.6585 -4.2661
   94MOL   H10835634   2.449   6.524   0.215  0.3417 -1.6666 -0.7214
   94MOL   H10935635   2.567   6.695   7.826 -1.4131  2.1604  1.4929
   94MOL   H11035636   2.406   6.551   7.682  2.4572  0.4367 -0.2734
   94MOL   H11135637   2.555   6.468   7.742  0.6149 -1.1105  3.7034
   94MOL   H11235638   2.398   6.448   7.809 -1.3015  0.6353 -0.9102
   94MOL   H11335639   2.341   6.761   7.772  1.2897 -0.6081  0.2475
   94MOL   H11435640   2.362   6.790   0.115  0.1637  0.7298  0.4477
   94MOL   H11535641   2.279   6.646   0.042 -0.4246  0.7421  0.7828
   94MOL   C11635642   2.646   6.619   0.461  0.3815 -0.0452  1.0089
   94MOL   C11735643   2.613   6.561   0.596  0.0590 -0.0455 -0.0138
   94MOL   C11835644   2.482   6.487   0.601 -0.2940  0.0393  0.3654
   94MOL   O11935645   2.378   6.544   0.575 -0.0942  0.2335  0.1343
   94MOL   N12035646   2.482   6.362   0.643 -0.6177 -0.4135 -0.6790
   94MOL   C12135647   2.361   6.284   0.659 -0.0967  0.1625 -0.5267
   94MOL   C12235648   2.381   6.151   0.596 -0.2571  0.2134  0.4781
   94MOL   C12335649   2.310   6.272   0.808 -0.7558 -0.2293 -0.2690
   94MOL   H12435650   2.574   6.693   0.427 -0.4796 -1.1384  0.4241
   94MOL   H12535651   2.742   6.668   0.478 -0.6217  1.9909  0.8996
   94MOL   H12635652   2.704   6.502   0.608 -0.7501 -1.1693  0.7279
   94MOL   H12735653   2.576   6.325   0.642 -0.1815  0.6495 -3.2156
   94MOL   H12835654   2.281   6.325   0.597 -1.5597 -0.3087  1.0066
   94MOL   H12935655   2.296   6.088   0.570  1.1916 -1.0155 -1.4707
   94MOL   H13035656   2.441   6.092   0.666 -1.2637 -0.6583  0.6180
   94MOL   H13135657   2.438   6.163   0.504  1.3797  0.8573  1.5446
   94MOL   H13235658   2.214   6.221   0.819  0.2987 -1.7839  2.2311
   94MOL   H13335659   2.381   6.222   0.874  0.5670 -0.5593 -1.9110
   94MOL   H13435660   2.294   6.372   0.848 -0.3797  0.2388 -1.2872
   94MOL   C13535661   2.606   6.665   0.704  0.3797 -0.0225  0.0969
   94MOL   C13635662   2.600   6.614   0.845  0.3110 -0.2442  0.2666
   94MOL   C13735663   2.708   6.516   0.880 -0.1500 -0.1296 -0.2438
   94MOL   O13835664   2.815   6.557   0.921  0.0328 -0.0800 -0.0534
   94MOL   N13935665   2.680   6.387   0.859 -0.2559 -0.1560 -0.9609
   94MOL   C14035666   2.781   6.286   0.877 -0.6925 -0.0596  0.3482
   94MOL   C14135667   2.877   6.278   0.752 -0.0883  0.1855  0.8552
   94MOL   C14235668   2.704   6.149   0.892  1.1170 -0.0631  0.3294
   94MOL   H14335669   2.530   6.742   0.692  1.6082  1.1837 -0.0973
   94MOL   H14435670   2.697   6.725   0.692  0.2912  0.2614  0.8040
   94MOL   H14535671   2.511   6.554   0.862  0.2020 -0.2713 -0.3942
   94MOL   H14635672   2.586   6.359   0.834  0.2940 -0.5582 -2.5959
   94MOL   H14735673   2.837   6.305   0.968  1.9812 -0.2353 -1.1989
   94MOL   H14835674   2.808   6.253   0.672  0.0266 -1.3527  1.2166
   94MOL   H14935675   2.938   6.366   0.736  0.6874 -0.8235 -1.9910
   94MOL   H15035676   2.936   6.186   0.755  1.4913  1.2061  1.3446
   94MOL   H15135677   2.633   6.109   0.819 -0.3948 -1.6747  2.6214
   94MOL   H15235678   2.637   6.149   0.978 -1.0778  0.5316 -1.3394
   94MOL   H15335679   2.780   6.072   0.908 -1.5503 -2.8272  0.1456
   94MOL   C15435680   2.584   6.737   0.936 -0.3543 -0.8157  0.0873
   94MOL   C15535681   2.574   6.719   1.088  0.4356 -0.1404 -0.0306
   94MOL   C15635682   2.488   6.602   1.130  0.5111 -0.4806 -0.3668
   94MOL   O15735683   2.380   6.595   1.078  0.2254  0.2919 -0.5432
   94MOL   N15835684   2.538   6.515   1.218 -0.8546 -0.0326 -0.0173
   94MOL   C15935685   2.477   6.386   1.254 -0.2177  0.0942  0.2547
   94MOL   C16035686   2.339   6.412   1.337 -0.5819  0.2705  0.1822
   94MOL   C16135687   2.575   6.286   1.315  0.1940 -0.2647 -0.3753
   94MOL   H16235688   2.499   6.795   0.901  0.3602 -0.2112 -0.6785
   94MOL   H16335689   2.667   6.806   0.915 -1.1105  0.1586  0.2599
   94MOL   H16435690   2.677   6.705   1.121  0.2383  1.1924  1.1841
   94MOL   H16535691   2.635   6.530   1.238 -0.9381  0.2271  0.1913
   94MOL   H16635692   2.443   6.342   1.160 -0.0815 -0.8770  0.6596
   94MOL   H16735693   2.282   6.502   1.313  1.8813  1.9432  0.4653
   94MOL   H16835694   2.267   6.331   1.327 -2.0157  1.4791  0.6426
   94MOL   H16935695   2.365   6.423   1.442 -1.1185  0.4958  0.2928
   94MOL   H17035696   2.652   6.256   1.244  0.7336 -1.8254  0.8208
   94MOL   H17135697   2.532   6.195   1.357 -1.0088  0.7391  0.6197
   94MOL   H17235698   2.625   6.344   1.392 -2.1078  0.3924  0.6678
   94MOL   C17335699   2.518   6.852   1.149  0.1221 -0.2812  0.1225
   94MOL   C17435700   2.505   6.866   1.309  0.5597 -0.6518  0.4855
   94MOL   C17535701   2.640   6.853   1.376 -0.3433 -0.1294 -0.6138
   94MOL   O17635702   2.727   6.930   1.353 -0.2042 -0.1886  0.0026
   94MOL   N17735703   2.655   6.757   1.461 -0.2364 -0.0950  0.0045
   94MOL   C17835704   2.771   6.715   1.545 -1.0110 -1.1289  0.4102
   94MOL   C17935705   2.739   6.571   1.588 -0.5262  0.7847 -0.0160
   94MOL   C18035706   2.784   6.819   1.655 -0.3076  0.4553 -0.1662
   94MOL   H18135707   2.424   6.885   1.104  1.3199  0.3131 -1.9980
   94MOL   H18235708   2.578   6.937   1.118 -1.9735  0.6095 -1.6839
   94MOL   H18335709   2.443   6.780   1.337 -0.8656  0.6266  1.3235
   94MOL   H18435710   2.576   6.694   1.473 -0.3433  0.1492  0.5962
   94MOL   H18535711   2.859   6.712   1.481 -1.6322 -1.0091 -0.4535
   94MOL   H18635712   2.823   6.519   1.634  0.6882  0.5861 -2.3982
   94MOL   H18735713   2.697   6.520   1.502 -0.4919  0.6848  0.0265
   94MOL   H18835714   2.669   6.587   1.671 -2.5516 -0.3755 -1.4549
   94MOL   H18935715   2.703   6.809   1.727 -1.6399  1.1108 -1.5567
   94MOL   H19035716   2.791   6.923   1.624 -0.4792  0.9285  1.3205
   94MOL   H19135717   2.881   6.798   1.701 -0.1168 -0.4375 -0.9502
   94MOL   C19235718   2.435   7.000   1.347  0.0842 -0.1921 -0.6278
   94MOL   C19335719   2.402   7.022   1.497  0.0040  0.0098  0.1962
   94MOL   C19435720   2.355   6.896   1.570 -0.2942  0.6247  0.1836
   94MOL   O19535721   2.418   6.847   1.666 -0.0011 -0.5018  0.3178
   94MOL   N19635722   2.238   6.847   1.538 -0.3288  0.3377 -0.3019
   94MOL   C19735723   2.180   6.715   1.574  0.1343  0.5346 -0.5214
   94MOL   C19835724   2.119   6.735   1.712 -0.0641 -0.4895  0.0784
   94MOL   C19935725   2.078   6.679   1.475  0.6394 -0.5323  0.2993
   94MOL   H20035726   2.351   7.018   1.280 -0.9350  1.1653  0.9779
   94MOL   H20135727   2.504   7.077   1.311  1.1500 -0.1735  1.4192
   94MOL   H20235728   2.492   7.047   1.553  1.5566  0.3757 -2.3722
   94MOL   H20335729   2.183   6.900   1.471 -0.9919 -3.1092 -2.6083
   94MOL   H20435730   2.258   6.640   1.565 -0.7109 -0.2686 -1.3343
   94MOL   H20535731   2.069   6.642   1.740  0.4020 -0.6122  0.5127
   94MOL   H20635732   2.048   6.818   1.706  2.2126  1.6176  1.5321
   94MOL   H20735733   2.185   6.758   1.795  0.3610 -0.6902 -0.2041
   94MOL   H20835734   1.988   6.741   1.470 -0.5904 -2.1886  1.0305
   94MOL   H20935735   2.045   6.579   1.504  0.0892 -0.4478 -0.0401
   94MOL   H21035736   2.129   6.666   1.380  1.5005 -0.1037  0.6932
   94MOL   C21135737   2.300   7.141   1.508 -0.0225 -0.3239 -0.3376
   94MOL   C21235738   2.375   7.275   1.497 -0.7153  0.5036  0.0641
   94MOL   C21335739   2.347   7.346   1.361  0.1087 -0.1336  0.4862
   94MOL   O21435740   2.241   7.405   1.345 -0.1999 -0.0828  0.4344
   94MOL   N21535741   2.435   7.338   1.259  0.3173 -0.4588  0.4264
   94MOL   C21635742   2.417   7.408   1.129 -0.1074 -0.1246  0.0134
   94MOL   C21735743   2.307   7.336   1.046 -0.4313  0.1865 -0.0513
   94MOL   C21835744   2.544   7.408   1.053  0.6079  0.3740  0.1138
   94MOL   H21935745   2.242   7.135   1.601  0.7484  2.4814  0.3766
   94MOL   H22035746   2.228   7.134   1.427 -0.4445  0.1959 -0.0137
   94MOL   H22135747   2.483   7.262   1.508 -0.7842  1.0776  1.5158
   94MOL   H22235748   2.531   7.315   1.281  0.5828 -1.1183 -1.3380
   94MOL   H22335749   2.377   7.510   1.136 -0.6159 -0.2186 -1.3573
   94MOL   H22435750   2.339   7.241   1.004 -0.9073  0.1959 -0.4470
   94MOL   H22535751   2.213   7.323   1.101 -1.2034 -0.9945 -1.6138
   94MOL   H22635752   2.278   7.395   0.959  2.1989  0.6425 -0.6385
   94MOL   H22735753   2.615   7.460   1.118  0.8358 -1.1055  1.0595
   94MOL   H22835754   2.546   7.462   0.958  3.7706  1.1093  0.5237
   94MOL   H22935755   2.586   7.309   1.038  0.4240  0.4152 -0.6776
   94MOL   C23035756   2.337   7.362   1.618 -0.7016  0.1282 -0.1742
   94MOL   C23135757   2.403   7.501   1.626 -0.6474  0.5310 -0.8117
   94MOL   C23235758   2.329   7.587   1.732  0.3722  0.1542 -1.1881
   94MOL   O23335759   2.385   7.610   1.843 -0.0355 -0.1026 -0.0340
   94MOL   N23435760   2.206   7.639   1.704  0.2597  0.6595  0.0711
   94MOL   C23535761   2.118   7.717   1.787  0.7657 -0.1987 -0.1447
   94MOL   C23635762   1.995   7.761   1.701 -1.0418 -0.1688 -0.1702
   94MOL   C23735763   2.063   7.618   1.893 -0.4589 -0.2148 -0.7694
   94MOL   H23835764   2.361   7.309   1.710 -0.0746 -1.7001 -1.3492
   94MOL   H23935765   2.229   7.372   1.612 -0.6497 -0.3858 -2.7437
   94MOL   H24035766   2.384   7.558   1.535  0.6363  3.5168  0.7400
   94MOL   H24135767   2.169   7.625   1.611  1.2000  0.7655 -0.3207
   94MOL   H24235768   2.169   7.806   1.824 -0.8698  1.2659 -1.3038
   94MOL   H24335769   1.946   7.677   1.653 -0.5588  0.8246 -2.4757
   94MOL   H24435770   1.925   7.809   1.770 -1.7846  1.2127 -1.8568
   94MOL   H24535771   2.025   0.000   1.628 -1.3751 -0.8523 -1.0202
   94MOL   H24635772   2.139   7.590   1.966 -1.3976  0.8493  0.6561
   94MOL   H24735773   2.023   7.525   1.853 -2.3282 -0.8090  2.3332
   94MOL   H24835774   1.987   7.675   1.945 -0.2561 -0.8303  0.2108
   94MOL   C24935775   2.551   7.491   1.654 -0.0730 -0.1406  0.6270
   94MOL   C25035776   2.642   7.611   1.615  0.2419 -0.1631  0.3483
   94MOL   C25135777   2.641   7.613   1.462 -0.5173  0.6306  0.0889
   94MOL   O25235778   2.698   7.525   1.400  0.1510  0.0146 -0.0573
   94MOL   N25335779   2.597   7.726   1.405  0.2069 -0.0836  0.5168
   94MOL   C25435780   2.574   7.756   1.269  0.4568 -0.3204  0.8525
   94MOL   C25535781   2.427   7.786   1.237  0.3787  0.2220  0.1359
   94MOL   C25635782   2.664   0.036   1.232  0.0837 -0.0858  0.2153
   94MOL   H25735783   2.599   7.402   1.613 -0.1835  0.8355 -1.6548
   94MOL   H25835784   2.566   7.490   1.762  1.7254  0.6608  0.4125
   94MOL   H25935785   2.603   7.706   1.653  0.6602 -0.3949  1.3490
   94MOL   H26035786   2.561   7.797   1.467  2.0106  1.9376 -0.6972
   94MOL   H26135787   2.597   7.668   1.208  1.7091 -0.6697  1.8110
   94MOL   H26235788   2.418   7.799   1.129  2.8206 -0.0873 -0.1400
   94MOL   H26335789   2.362   7.701   1.258 -0.0934  0.9591  1.7249
   94MOL   H26435790   2.382   0.035   1.287 -2.0053 -2.1827  2.2310
   94MOL   H26535791   2.769   0.008   1.244 -0.0931 -0.1985  1.6183
   94MOL   H26635792   2.643   0.048   1.126  1.4488  0.6110  0.0094
   94MOL   H26735793   2.650   0.128   1.288  1.4603 -0.1387  0.6735
   94MOL   C26835794   2.789   7.605   1.675  0.0169  0.1406  0.6003
   94MOL   C26935795   2.851   7.748   1.687  0.2929  0.6371  0.1719
   94MOL   C27035796   2.952   7.750   1.801  0.2115  0.5181  0.5037
   94MOL   O27135797   2.928   7.810   1.906 -0.3230  0.4620  0.2656
   94MOL   N27235798   3.068   7.682   1.785 -0.5988 -0.5382 -0.8179
   94MOL   C27335799   3.189   7.697   1.878  0.6793  0.0894  0.1245
   94MOL   C27435800   3.227   7.569   1.967  0.5942  0.2000 -0.0259
   94MOL   C27535801   3.308   7.731   1.782  0.0551  0.5560 -0.0322
   94MOL   H27635802   2.780   7.568   1.777  1.0073 -0.5052  0.4665
   94MOL   H27735803   2.857   7.535   1.625  1.4105  2.8158 -1.3910
   94MOL   H27835804   2.770   7.812   1.721  0.2267  0.7030 -0.1090
   94MOL   H27935805   3.080   7.616   1.709  1.5231 -1.4300  0.2288
   94MOL   H28035806   3.167   7.784   1.939  1.8610  0.3719  0.1593
   94MOL   H28135807   3.145   7.535   2.030  0.8465  2.5622  1.6322
   94MOL   H28235808   3.265   7.483   1.911 -1.5413  0.0484 -1.3016
   94MOL   H28335809   3.305   7.589   2.040  0.4624 -1.1307  0.4985
   94MOL   H28435810   3.380   7.785   1.843  0.1612  3.4557 -2.6329
   94MOL   H28535811   3.359   7.639   1.751 -0.7571 -1.4560  4.1496
   94MOL   H28635812   3.282   7.794   1.697 -0.1380  0.2685 -0.1867
   94MOL   C28735813   2.907   7.802   1.558  0.3342  0.4895 -0.0842
   94MOL   C28835814   3.003   0.084   1.554  0.1373  0.0512 -0.2589
   94MOL   C28935815   2.943   0.208   1.617  0.1776 -0.9700 -0.1343
   94MOL   O29035816   2.825   0.230   1.606  0.2633 -0.8012 -0.7160
   94MOL   N29135817   3.024   0.310   1.650  0.0094  0.0147 -0.1300
   94MOL   C29235818   2.981   0.449   1.694 -0.3160  0.2878 -0.2923
   94MOL   C29335819   2.965   0.448   1.848  0.3352  1.1049  0.8187
   94MOL   C29435820   3.079   0.554   1.655  0.6337 -0.5425  0.3485
   94MOL   H29535821   2.960   7.721   1.507 -1.2549  0.0790 -1.1072
   94MOL   H29635822   2.832   0.002   1.487 -0.4290 -0.3959  0.2588
   94MOL   H29735823   3.086   0.051   1.617 -1.4478 -1.1885  1.2368
   94MOL   H29835824   3.122   0.287   1.641  0.3385  1.3992 -0.2087
   94MOL   H29935825   2.884   0.477   1.652 -0.6798 -0.7849 -0.1844
   94MOL   H30035826   3.060   0.420   1.895  0.7000  2.5840  0.9962
   94MOL   H30135827   2.953   0.550   1.883 -0.1828  1.1088  0.6293
   94MOL   H30235828   2.884   0.383   1.881  1.5305 -0.5494  0.5755
   94MOL   H30335829   3.057   0.660   1.672 -3.0313 -0.7203 -2.6824
   94MOL   H30435830   3.178   0.546   1.700 -0.0822 -1.9534  1.7193
   94MOL   H30535831   3.105   0.550   1.549  0.6234  0.1986  0.3117
   94MOL   C30635832   3.055   0.109   1.412  0.3386 -0.5773  0.6313
   94MOL   C30735833   3.183   0.196   1.375 -0.4614  0.1261  0.0592
   94MOL   C30835834   3.199   0.189   1.221 -0.0694  0.2915 -0.4033
   94MOL   O30935835   3.263   0.096   1.175 -0.4522  0.3073 -0.0015
   94MOL   N31035836   3.137   0.283   1.143  0.0227  0.9007 -0.1896
   94MOL   C31135837   3.146   0.303   1.002 -0.6166  0.1538  0.6110
   94MOL   C31235838   3.010   0.340   0.947  0.2400 -0.0452 -0.3515
   94MOL   C31335839   3.251   0.409   0.975 -0.2126  0.3772 -0.1445
   94MOL   H31435840   3.080   0.012   1.370 -1.0113 -1.3254  1.4947
   94MOL   H31535841   2.973   0.150   1.353  1.8950  2.5162  0.4722
   94MOL   H31635842   3.158   0.300   1.392  1.0471  0.8446 -1.8402
   94MOL   H31735843   3.092   0.355   1.197 -2.7637 -0.6553 -0.3892
   94MOL   H31835844   3.180   0.212   0.953 -0.4574  0.9051 -0.7020
   94MOL   H31935845   3.010   0.346   0.838 -0.5639  1.1457 -0.2945
   94MOL   H32035846   2.968   0.427   0.997  1.7399  1.3276 -1.4305
   94MOL   H32135847   2.936   0.265   0.975 -0.1548  0.3171 -0.4209
   94MOL   H32235848   3.271   0.425   0.869  1.1659  2.8453  0.4456
   94MOL   H32335849   3.344   0.388   1.029 -0.4132  1.8440  0.8018
   94MOL   H32435850   3.213   0.504   1.013 -0.1623  0.7383 -0.9876
   94MOL   C32535851   3.302   0.143   1.452  0.2404 -0.2334  0.1171
   94MOL   C32635852   3.440   0.197   1.414  0.1094  1.0548 -0.1203
   94MOL   C32735853   3.464   0.344   1.455 -0.4230  0.6664 -0.2501
   94MOL   O32835854   3.384   0.413   1.515  0.7521  0.3358  0.1930
   94MOL   N32935855   3.583   0.387   1.403 -0.1439 -0.3335 -0.5004
   94MOL   C33035856   3.662   0.497   1.448  0.2112 -0.0797  0.3636
   94MOL   C33135857   3.635   0.626   1.370  0.2960  0.4883  0.4294
   94MOL   C33235858   3.810   0.459   1.425 -0.4955  0.7184 -0.1525
   94MOL   H33335859   3.316   0.038   1.429 -0.3402 -0.3516  0.3018
   94MOL   H33435860   3.290   0.142   1.561 -2.7028 -0.9755 -0.1683
   94MOL   H33535861   3.448   0.195   1.305  0.5935  0.9917 -0.0836
   94MOL   H33635862   3.636   0.315   1.357  0.3175  0.6167 -1.4571
   94MOL   H33735863   3.627   0.510   1.550 -1.7119 -0.2862 -0.2353
   94MOL   H33835864   3.719   0.695   1.376  2.7879 -2.1807 -2.1536
   94MOL   H33935865   3.607   0.617   1.265 -0.8459 -1.2291  0.8495
   94MOL   H34035866   3.544   0.663   1.418 -1.0939  1.0986 -2.5559
   94MOL   H34135867   3.842   0.450   1.322  0.8723  0.8325  0.2613
   94MOL   H34235868   3.837   0.359   1.456  2.4092  1.6560  0.4400
   94MOL   H34335869   3.885   0.524   1.469 -0.1739 -0.7462  1.5270
   94MOL   C34435870   3.549   0.095   1.457  0.6655  0.6127  0.0957
   94MOL   C34535871   3.580   7.825   1.345  0.5389  0.2627  0.4968
   94MOL   C34635872   3.637   0.045   1.211 -1.3265  0.1443  0.4124
   94MOL   O34735873   3.756   0.085   1.201 -0.3044 -0.4743 -0.1739
   94MOL   N34835874   3.567   0.018   1.102  0.4888 -0.1886 -0.7755
   94MOL   C34935875   3.594   0.023   0.958  0.4604  0.0372  0.1553
   94MOL   C35035876   3.504   7.753   0.897  0.3095  0.2180  0.2290
   94MOL   C35135877   3.555   0.158   0.908 -0.1399 -0.1437 -0.0988
   94MOL   H35235878   3.519   0.044   1.549  0.8864 -2.3320 -1.4171
   94MOL   H35335879   3.643   0.145   1.482  0.7954  0.3098  0.2194
   94MOL   H35435880   3.477   7.793   1.326  0.8510 -0.8123  0.6037
   94MOL   H35535881   3.475   7.817   1.123  0.2582 -0.0347 -1.5059
   94MOL   H35635882   3.695   7.824   0.938  0.3147 -0.4690  0.3049
   94MOL   H35735883   3.397   7.755   0.913  0.3488  0.1839  0.4920
   94MOL   H35835884   3.505   7.753   0.788  0.9338  2.5047  0.2045
   94MOL   H35935885   3.538   7.655   0.929 -1.4262 -0.0372  1.3398
   94MOL   H36035886   3.600   0.173   0.809  1.2943  2.9948  0.9666
   94MOL   H36135887   3.447   0.173   0.901  0.0085  1.0479 -0.0494
   94MOL   H36235888   3.606   0.241   0.957 -0.3077  1.7072 -2.9067
   94MOL   C36335889   3.645   7.697   1.396 -0.2828 -0.4727 -1.3678
   94MOL   C36435890   3.797   7.693   1.409 -0.5879 -0.2661  0.4645
   94MOL   C36535891   3.862   7.610   1.291  1.5345 -0.7305  1.0304
   94MOL   O36635892   3.892   7.494   1.301  0.5687  0.0072  0.5765
   94MOL   N36735893   3.886   7.677   1.178 -0.2492 -0.2282 -0.7847
   94MOL   C36835894   3.934   7.618   1.057  0.2100  0.9850  1.0843
   94MOL   C36935895   3.833   7.531   0.988 -0.1115 -0.3575  0.1226
   94MOL   C37035896   3.994   7.733   0.962  0.0404  0.6230  0.3212
   94MOL   H37135897   3.604   7.616   1.336 -1.8298 -0.0736 -0.8648
   94MOL   H37235898   3.602   7.662   1.489  0.5078  0.0311 -0.8013
   94MOL   H37335899   3.828   7.662   1.509 -0.2517  1.4260  0.9013
   94MOL   H37435900   3.858   7.774   1.172  0.5060  0.1133  0.8825
   94MOL   H37535901   4.025   7.560   1.077  1.0354  2.2554  1.0585
   94MOL   H37635902   3.732   7.570   1.005 -0.1643  0.5446 -2.1333
   94MOL   H37735903   3.869   7.531   0.885  1.9814 -0.0277  0.8273
   94MOL   H37835904   3.846   7.426   1.013  0.9266  0.2400  2.2380
   94MOL   H37935905   4.029   7.695   0.866  2.6394  1.8867  0.7473
   94MOL   H38035906   3.924   7.813   0.939 -0.8894 -0.0253  0.8563
   94MOL   H38135907   4.077   7.789   1.004  0.2054 -0.0886  0.9539
   94MOL   H38235908   3.844   7.791   1.404 -3.2711  1.2566  2.7949
   95MOL     C135909   2.470   0.759   2.814 -0.3274 -0.0594  0.7081
   95MOL     C235910   2.313   0.791   2.820  0.4050  0.4384 -0.5355
   95MOL     C335911   2.224   0.673   2.788  0.8399 -0.2408  0.1305
   95MOL     O435912   2.273   0.559   2.775 -0.3686  0.5005  0.3223
   95MOL     N535913   2.090   0.699   2.786  0.0720  0.2582 -0.5985
   95MOL     C635914   1.990   0.599   2.756 -0.8152  0.3417 -0.0935
   95MOL     C735915   1.977   0.499   2.871  0.7067 -0.4603  0.2229
   95MOL     C835916   1.852   0.666   2.724 -0.5158  0.5309 -0.5938
   95MOL     H935917   2.535   0.846   2.815 -1.4144  0.8787 -2.5680
   95MOL    H1035918   2.492   0.730   2.711 -0.3422 -0.3262  0.7811
   95MOL    H1135919   2.295   0.861   2.739 -0.1982  1.7081  0.6670
   95MOL    H1235920   2.043   0.784   2.814  0.3160 -0.3148  1.6331
   95MOL    H1335921   2.014   0.545   2.665 -0.4921 -0.5256  0.5004
   95MOL    H1435922   1.941   0.401   2.840  0.4180 -0.6108  1.0189
   95MOL    H1535923   1.912   0.527   2.953  2.8184  0.1221  1.7616
   95MOL    H1635924   2.072   0.473   2.918  1.2442 -1.0788 -1.1707
   95MOL    H1735925   1.874   0.760   2.675  0.7795  1.2614  1.3228
   95MOL    H1835926   1.787   0.617   2.650 -1.0685  2.4952 -1.4362
   95MOL    H1935927   1.784   0.695   2.804  0.3048  0.3884  0.1601
   95MOL    H2035928   2.501   0.669   2.866 -0.3279 -0.2508  0.3795
   95MOL    C2135929   2.279   0.861   2.959  0.9906  0.2395  0.1264
   95MOL    C2235930   2.384   0.848   3.077  0.2057 -0.1437 -0.2988
   95MOL    C2335931   2.386   0.713   3.146 -0.2799  0.2028  0.1304
   95MOL    O2435932   2.452   0.695   3.251 -0.2006 -0.2817 -0.1925
   95MOL    N2535933   2.314   0.608   3.096 -0.5770 -0.0086 -0.2272
   95MOL    C2635934   2.320   0.480   3.154  0.5472 -0.2404 -0.4661
   95MOL    C2735935   2.338   0.370   3.044  0.0021  0.1837  0.0066
   95MOL    C2835936   2.190   0.443   3.231 -0.2295  0.4974 -0.3694
   95MOL    H2935937   2.182   0.835   3.002  1.5234 -1.9972  0.0540
   95MOL    H3035938   2.279   0.965   2.925 -0.2327  0.1854 -0.0875
   95MOL    H3135939   2.486   0.845   3.038 -0.2357 -0.2845 -1.4905
   95MOL    H3235940   2.254   0.619   3.015  1.4851 -0.3153 -1.8465
   95MOL    H3335941   2.412   0.474   3.211  0.3474 -0.5493 -0.1773
   95MOL    H3435942   2.411   0.297   3.079 -0.8027 -1.2698 -1.3315
   95MOL    H3535943   2.381   0.410   2.952  0.6507  1.4445  0.8375
   95MOL    H3635944   2.244   0.332   3.005 -0.7319  2.0013 -0.0696
   95MOL    H3735945   2.178   0.510   3.316  1.5643  2.2030 -1.4347
   95MOL    H3835946   2.106   0.447   3.161  0.9352  1.3190 -1.7470
   95MOL    H3935947   2.193   0.344   3.277  0.5558  0.0311 -1.3828
   95MOL    C4035948   2.381   0.986   3.158 -0.2642  0.3699  0.3652
   95MOL    C4135949   2.282   0.982   3.273  0.6637 -0.0472  0.3103
   95MOL    C4235950   2.136   0.991   3.219  0.1848  0.3921 -0.1718
   95MOL    O4335951   2.107   1.073   3.132 -0.0466 -0.2614  0.4493
   95MOL    N4435952   2.047   0.904   3.266  0.5473 -0.0573 -0.2410
   95MOL    C4535953   1.909   0.892   3.215  0.2945 -0.1964 -0.2347
   95MOL    C4635954   1.889   0.767   3.139 -0.1408 -0.2285  0.5679
   95MOL    C4735955   1.812   0.894   3.335  0.3550 -0.1705 -0.3327
   95MOL    H4835956   2.354   1.066   3.089 -0.6293 -1.4553 -1.6604
   95MOL    H4935957   2.485   1.003   3.187  0.3119  1.2222 -2.1000
   95MOL    H5035958   2.299   0.889   3.327  1.0203 -0.0772  0.1490
   95MOL    H5135959   2.062   0.854   3.352  0.8733  0.9926  0.3256
   95MOL    H5235960   1.871   0.973   3.152  0.1712  0.2031  0.3516
   95MOL    H5335961   1.787   0.764   3.099 -0.1092 -1.1501  0.5387
   95MOL    H5435962   1.919   0.676   3.191  0.0676 -0.4798  0.0036
   95MOL    H5535963   1.954   0.764   3.052 -0.5519 -0.7636  0.2747
   95MOL    H5635964   1.709   0.890   3.299 -0.1463 -0.9055  1.1184
   95MOL    H5735965   1.819   0.989   3.387 -0.7036 -0.2801  0.0384
   95MOL    H5835966   1.826   0.813   3.407 -1.6959  0.7935  1.2333
   95MOL    C5935967   2.320   1.097   3.374 -0.1370 -0.1549  0.2271
   95MOL    C6035968   2.247   1.116   3.517 -0.9960  0.1074  0.7158
   95MOL    C6135969   2.234   0.976   3.582  0.0665  0.6511 -0.3721
   95MOL    O6235970   2.128   0.912   3.578 -0.4716 -0.3554 -0.6797
   95MOL    N6335971   2.349   0.917   3.628  0.0515  0.0918  0.2530
   95MOL    C6435972   2.362   0.775   3.681  0.0865 -0.4518  0.6617
   95MOL    C6535973   2.400   0.667   3.579 -0.4147 -0.1022  0.7507
   95MOL    C6635974   2.432   0.764   3.820 -0.4953  0.2365 -0.1156
   95MOL    H6735975   2.423   1.084   3.410  0.3348  1.4488 -0.4824
   95MOL    H6835976   2.319   1.184   3.308 -1.0450 -1.4231 -1.4626
   95MOL    H6935977   2.311   1.181   3.577 -1.0747  0.9437 -0.0871
   95MOL    H7035978   2.427   0.975   3.603  0.2345 -0.2211  0.0968
   95MOL    H7135979   2.257   0.752   3.697 -1.3384  3.8978 -1.6927
   95MOL    H7235980   2.325   0.664   3.500  2.3417 -0.8733 -1.9419
   95MOL    H7335981   2.496   0.676   3.529 -0.9410 -0.3724 -0.3449
   95MOL    H7435982   2.417   0.571   3.627 -0.6899  0.6570  2.3840
   95MOL    H7535983   2.377   0.831   3.886 -0.6844  0.6608 -0.6915
   95MOL    H7635984   2.439   0.664   3.862 -1.2247  0.1619 -0.1545
   95MOL    H7735985   2.531   0.809   3.813 -0.4958 -0.0184 -2.0981
   95MOL    C7835986   2.112   1.190   3.490 -0.2637  0.5212  0.4817
   95MOL    C7935987   2.035   1.238   3.613 -0.6599 -0.0040  0.2182
   95MOL    C8035988   2.101   1.357   3.684  0.5714 -1.0836  0.0667
   95MOL    O8135989   2.067   1.477   3.652 -0.1931 -0.0948 -0.1156
   95MOL    N8235990   2.184   1.332   3.787  1.2047 -0.1064 -0.2659
   95MOL    C8335991   2.230   1.428   3.884 -0.1210 -0.0880  0.1351
   95MOL    C8435992   2.211   1.389   4.033  0.1722 -0.7310  0.4569
   95MOL    C8535993   2.374   1.468   3.853  0.3704 -0.3388  0.1019
   95MOL    H8635994   2.041   1.126   3.437  1.7801 -1.3559 -0.0915
   95MOL    H8735995   2.118   1.271   3.417 -1.4143  1.1738  1.1119
   95MOL    H8835996   2.017   1.164   3.691 -0.0851  2.0828  2.3845
   95MOL    H8935997   2.206   1.237   3.812  1.2293 -0.4636 -1.6309
   95MOL    H9035998   2.173   1.521   3.879  2.0233  1.2820  0.2081
   95MOL    H9135999   2.207   1.477   4.096 -0.3089 -1.6565  1.7307
   95MOL    H9236000   2.122   1.335   4.063  0.9809 -2.4625 -0.1825
   95MOL    H9336001   2.300   1.334   4.064 -1.2509 -2.3449  1.7514
   95MOL    H9436002   2.402   1.542   3.929 -0.1687  1.5467 -1.4858
   95MOL    H9536003   2.387   1.522   3.759 -1.3281 -1.0277 -0.5365
   95MOL    H9636004   2.445   1.386   3.855 -1.4295 -2.0145 -2.0784
   95MOL    C9736005   1.894   1.280   3.550 -0.5204  0.6141 -0.2679
   95MOL    C9836006   1.880   1.384   3.431  0.4665 -0.0879  0.0785
   95MOL    C9936007   1.781   1.498   3.457  0.8891 -0.5302  0.0466
   95MOL   O10036008   1.681   1.518   3.386 -0.0211 -0.2611  0.2011
   95MOL   N10136009   1.801   1.572   3.567  0.5423  0.3961 -0.2072
   95MOL   C10236010   1.719   1.688   3.608  0.3232 -0.4195  0.0336
   95MOL   C10336011   1.593   1.628   3.677  0.2498 -1.2059  0.5765
   95MOL   C10436012   1.797   1.777   3.707 -0.1755 -0.4564 -0.5583
   95MOL   H10536013   1.834   1.315   3.634 -1.8009 -1.1855 -0.3880
   95MOL   H10636014   1.848   1.187   3.515  0.7245  0.3173 -1.1749
   95MOL   H10736015   1.977   1.432   3.419  0.2797 -0.2074 -2.1399
   95MOL   H10836016   1.889   1.547   3.610  1.5515 -1.3950 -3.1693
   95MOL   H10936017   1.693   1.746   3.520  0.4330 -2.9371 -1.7158
   95MOL   H11036018   1.607   1.581   3.774  1.0749 -2.5389 -0.1735
   95MOL   H11136019   1.517   1.702   3.703 -1.6073 -3.0363  0.5412
   95MOL   H11236020   1.547   1.547   3.619  0.5443 -1.4886  0.7378
   95MOL   H11336021   1.851   1.717   3.779 -0.0188 -1.1718 -1.2642
   95MOL   H11436022   1.734   1.851   3.757 -2.0544 -1.1366 -1.8844
   95MOL   H11536023   1.869   1.842   3.655 -1.6745  0.4305 -1.5681
   95MOL   C11636024   1.865   1.316   3.294 -0.5419  0.0908 -0.1953
   95MOL   C11736025   1.890   1.391   3.161  0.5909  0.9703  0.6800
   95MOL   C11836026   1.805   1.328   3.047 -0.2524 -0.8841  0.0216
   95MOL   O11936027   1.695   1.371   3.014 -0.4371 -0.6155  0.3255
   95MOL   N12036028   1.862   1.226   2.987  0.1408 -0.0975  0.7010
   95MOL   C12136029   1.828   1.166   2.857  0.0917 -0.4649  0.2214
   95MOL   C12236030   1.896   1.255   2.755  0.0161 -0.1338 -0.7787
   95MOL   C12336031   1.878   1.014   2.843 -0.0479  0.5863 -0.4924
   95MOL   H12436032   1.762   1.281   3.290 -0.5392  0.0030  0.4735
   95MOL   H12536033   1.926   1.226   3.281  0.4214  0.5061  1.2902
   95MOL   H12636034   1.848   1.491   3.171 -0.4000  0.6131  0.1824
   95MOL   H12736035   1.944   1.180   3.024 -0.1941  0.0576  1.6474
   95MOL   H12836036   1.720   1.166   2.842  0.0036  1.2469  0.6768
   95MOL   H12936037   1.849   1.241   2.658  0.4536  0.6534 -1.1147
   95MOL   H13036038   2.004   1.242   2.748  0.0196 -0.9238  0.5442
   95MOL   H13136039   1.875   1.359   2.783 -2.8645 -0.4905 -1.4731
   95MOL   H13236040   1.870   0.989   2.737 -0.6052  1.5602 -0.6871
   95MOL   H13336041   1.987   1.014   2.850 -0.0117  1.2835 -1.0525
   95MOL   H13436042   1.839   0.945   2.918 -0.1981  0.0264 -1.0764
   95MOL   C13536043   2.044   1.408   3.130  0.3997 -0.0175  0.1590
   95MOL   C13636044   2.072   1.524   3.022 -0.0693 -0.0441 -0.3614
   95MOL   C13736045   2.084   1.661   3.084 -0.1918 -0.5287 -0.0281
   95MOL   O13836046   2.178   1.673   3.163  0.0066  0.3292 -0.5834
   95MOL   N13936047   1.994   1.753   3.048 -0.0476 -0.4860 -0.0189
   95MOL   C14036048   1.980   1.896   3.062  0.0032  0.4907 -0.0752
   95MOL   C14136049   2.092   1.989   3.025 -0.5480 -0.3504 -0.2992
   95MOL   C14236050   1.898   1.939   3.186 -0.6034  0.8201  0.2969
   95MOL   H14336051   2.088   1.318   3.087  0.2770  0.9408 -2.0816
   95MOL   H14436052   2.105   1.442   3.214  0.4602 -1.2613  0.6255
   95MOL   H14536053   1.982   1.526   2.960 -0.5331 -0.7815  0.2679
   95MOL   H14636054   1.923   1.718   2.985 -0.7639 -1.2294  1.1951
   95MOL   H14736055   1.910   1.910   2.979  0.3381  1.1172 -0.2490
   95MOL   H14836056   2.156   2.012   3.110 -1.9034  0.1012  0.6285
   95MOL   H14936057   2.144   1.933   2.948  1.6672  0.2101  0.7542
   95MOL   H15036058   2.057   2.081   2.978  1.8771 -0.0270 -1.5709
   95MOL   H15136059   1.958   1.928   3.277  0.4975 -1.9363 -0.7307
   95MOL   H15236060   1.817   1.868   3.200 -0.6411  1.1474  1.8306
   95MOL   H15336061   1.859   2.041   3.190  1.5222  1.6847 -0.3243
   95MOL   C15436062   2.187   1.489   2.925 -0.3593 -0.5096  0.3201
   95MOL   C15536063   2.335   1.463   2.984  0.0969  0.3619  0.1450
   95MOL   C15636064   2.427   1.588   2.953 -0.4722 -0.1479  0.3673
   95MOL   O15736065   2.486   1.598   2.841  0.1675  0.3957 -0.0885
   95MOL   N15836066   2.437   1.678   3.055 -0.8916 -0.2042  0.0985
   95MOL   C15936067   2.533   1.786   3.070  0.4495  0.0661  0.2476
   95MOL   C16036068   2.585   1.768   3.210 -0.1815 -0.3911 -0.3294
   95MOL   C16136069   2.464   1.928   3.064 -0.1205 -0.8981 -0.1372
   95MOL   H16236070   2.191   1.580   2.864  0.4617 -1.8791 -1.7169
   95MOL   H16336071   2.156   1.401   2.868 -3.3480  0.5207  0.2347
   95MOL   H16436072   2.327   1.456   3.093 -0.6591 -3.4049 -0.0681
   95MOL   H16536073   2.371   1.677   3.132 -1.5332  3.4692 -0.2692
   95MOL   H16636074   2.620   1.780   3.005 -0.7135 -1.2088 -1.2115
   95MOL   H16736075   2.504   1.795   3.278 -0.4286  0.1896 -0.8413
   95MOL   H16836076   2.630   1.670   3.226 -0.7986 -0.7606 -0.8237
   95MOL   H16936077   2.667   1.838   3.228  0.5402 -1.0953 -0.8295
   95MOL   H17036078   2.540   2.006   3.073  0.4795 -1.3089 -1.4549
   95MOL   H17136079   2.379   1.940   3.131 -0.7464 -2.6455 -0.6102
   95MOL   H17236080   2.420   1.955   2.968  0.1715 -0.8738 -0.2640
   95MOL   C17336081   2.398   1.331   2.923 -0.1808 -0.4591  0.8543
   95MOL   C17436082   2.548   1.302   2.943 -0.0974  0.3352  0.2016
   95MOL   C17536083   2.600   1.316   3.093 -0.6130  0.5260 -0.1182
   95MOL   O17636084   2.537   1.285   3.195  0.3368 -0.2245  0.1391
   95MOL   N17736085   2.725   1.352   3.094 -0.8768  0.5464  0.0357
   95MOL   C17836086   2.809   1.368   3.201  1.1126  0.1340 -0.2816
   95MOL   C17936087   2.878   1.499   3.176 -0.5108 -0.2901 -0.7226
   95MOL   C18036088   2.904   1.249   3.211  0.0488 -0.2772  0.2016
   95MOL   H18136089   2.372   1.331   2.817  0.7523  1.6907  0.6124
   95MOL   H18236090   2.337   1.250   2.964  0.6976 -0.8365  1.4298
   95MOL   H18336091   2.599   1.379   2.885 -0.5835 -0.8615 -1.8346
   95MOL   H18436092   2.765   1.367   3.002 -0.6460 -1.1396 -0.1483
   95MOL   H18536093   2.751   1.377   3.293 -0.5772  4.5267 -1.6534
   95MOL   H18636094   2.933   1.520   3.267 -1.2742  0.6748 -0.4783
   95MOL   H18736095   2.806   1.580   3.168  0.3868  0.5057 -0.7608
   95MOL   H18836096   2.950   1.499   3.093  0.4401  0.9575  0.0835
   95MOL   H18936097   2.970   1.260   3.297 -0.6243  0.5780  0.6139
   95MOL   H19036098   2.953   1.234   3.115 -0.1440  2.2160 -0.3361
   95MOL   H19136099   2.850   1.158   3.237 -0.3649 -0.0799  0.0331
   95MOL   C19236100   2.581   1.158   2.893  0.3412 -0.3431 -0.5205
   95MOL   C19336101   2.677   1.150   2.777  0.0663  0.2953 -0.1441
   95MOL   C19436102   2.819   1.202   2.806 -0.6022 -0.4188 -0.1417
   95MOL   O19536103   2.845   1.312   2.857  0.0141  0.3641  0.3208
   95MOL   N19636104   2.914   1.109   2.787  0.5548  0.3997  0.0040
   95MOL   C19736105   3.055   1.134   2.810  0.1221  0.2608  0.5998
   95MOL   C19836106   3.104   1.029   2.906  0.8965 -0.2503 -0.7938
   95MOL   C19936107   3.136   1.124   2.678  0.1998 -0.5258 -0.3889
   95MOL   H20036108   2.491   1.100   2.872  0.6919 -1.7532  1.6352
   95MOL   H20136109   2.629   1.095   2.968  1.9414 -1.0800 -2.1280
   95MOL   H20236110   2.691   1.043   2.771  1.3995  0.4363  0.3227
   95MOL   H20336111   2.890   1.031   2.728 -1.4855 -0.2390  1.6161
   95MOL   H20436112   3.080   1.231   2.854  0.0806  0.4427  0.2200
   95MOL   H20536113   3.082   0.931   2.865 -1.8739 -0.6502  1.4581
   95MOL   H20636114   3.061   1.049   3.005  0.7183  2.4856 -1.3717
   95MOL   H20736115   3.211   1.049   2.911  0.7503  0.4580 -0.4271
   95MOL   H20836116   3.119   1.027   2.632 -0.6606  0.0820 -1.3752
   95MOL   H20936117   3.238   1.155   2.700 -0.5036 -0.0733  2.4660
   95MOL   H21036118   3.109   1.205   2.610  2.6242 -1.7402 -2.9314
   95MOL   C21136119   2.613   1.213   2.646  0.0359 -0.3347 -0.6288
   95MOL   C21236120   2.705   1.223   2.518  0.2685  0.5641 -0.6223
   95MOL   C21336121   2.760   1.086   2.484 -0.3498 -0.5674 -0.7790
   95MOL   O21436122   2.730   0.986   2.555 -0.5231 -0.2502  0.7648
   95MOL   N21536123   2.847   1.076   2.379  0.6767 -0.3414 -0.1299
   95MOL   C21636124   2.906   0.954   2.329 -0.6558  0.2194 -0.1178
   95MOL   C21736125   3.025   1.010   2.253 -0.4303 -0.6138  0.0725
   95MOL   C21836126   2.810   0.886   2.237 -0.5597 -0.1228  0.3779
   95MOL   H21936127   2.578   1.313   2.668 -0.3085 -0.3756 -0.9893
   95MOL   H22036128   2.522   1.155   2.631 -0.9543  1.3211 -1.0569
   95MOL   H22136129   2.789   1.282   2.552 -1.2540  1.4764  1.6354
   95MOL   H22236130   2.881   1.165   2.346 -0.7509  0.6297  0.9323
   95MOL   H22336131   2.926   0.895   2.418 -1.4378  0.1933  0.0427
   95MOL   H22436132   3.011   1.054   2.155  1.6781 -2.3130 -1.0322
   95MOL   H22536133   3.065   1.096   2.307 -1.8064 -1.0462  1.8594
   95MOL   H22636134   3.101   0.932   2.249 -0.1882 -0.3742  0.0130
   95MOL   H22736135   2.857   0.796   2.198 -0.9740  0.0130 -0.4602
   95MOL   H22836136   2.779   0.944   2.150  1.7354  0.6194  0.0451
   95MOL   H22936137   2.720   0.856   2.291  0.0038 -1.0828  0.7737
   95MOL   C23036138   2.635   1.293   2.403  0.3187  0.1557  0.0776
   95MOL   C23136139   2.618   1.449   2.414  0.0265  0.3596 -0.0973
   95MOL   C23236140   2.744   1.516   2.480  0.5051 -0.4160  0.0555
   95MOL   O23336141   2.857   1.507   2.428 -0.2899 -0.3128 -0.3656
   95MOL   N23436142   2.728   1.573   2.602 -0.1639 -0.3523  0.6169
   95MOL   C23536143   2.818   1.665   2.671 -0.4365  0.1464 -0.2296
   95MOL   C23636144   2.756   1.808   2.660 -0.1438 -0.4334 -0.1810
   95MOL   C23736145   2.840   1.622   2.813 -0.2657 -0.1991 -0.1971
   95MOL   H23836146   2.537   1.244   2.393  0.3623  0.0009  0.3929
   95MOL   H23936147   2.694   1.277   2.313 -1.0556 -1.0522 -0.6320
   95MOL   H24036148   2.531   1.466   2.477 -2.1528  1.0359 -3.1614
   95MOL   H24136149   2.633   1.571   2.637 -1.1451  2.2653 -1.7170
   95MOL   H24236150   2.915   1.655   2.621  0.0910 -1.3707  1.0607
   95MOL   H24336151   2.829   1.880   2.699 -1.5987  0.9777 -0.0222
   95MOL   H24436152   2.732   1.833   2.557 -0.9822  0.8893  0.3315
   95MOL   H24536153   2.668   1.816   2.724  0.2182 -1.0947  0.4064
   95MOL   H24636154   2.746   1.594   2.862  0.0404  0.3200  0.6982
   95MOL   H24736155   2.891   1.695   2.876 -0.7089  0.6475 -0.8117
   95MOL   H24836156   2.907   1.536   2.814  0.3496  0.2543 -1.1719
   95MOL   C24936157   2.600   1.511   2.277 -0.2336 -0.3025  0.4514
   95MOL   C25036158   2.573   1.667   2.280  0.0917  0.4042 -0.2900
   95MOL   C25136159   2.438   1.701   2.334  0.8653  0.0783  0.3708
   95MOL   O25236160   2.342   1.628   2.307 -0.3293 -0.2165 -0.2386
   95MOL   N25336161   2.420   1.808   2.412 -0.3152 -0.8446  0.0317
   95MOL   C25436162   2.296   1.840   2.484 -0.2949  0.5630 -0.7784
   95MOL   C25536163   2.314   1.874   2.631 -0.2068 -0.7694  0.0025
   95MOL   C25636164   2.221   1.948   2.405 -0.3702  0.6600 -0.1459
   95MOL   H25736165   2.518   1.461   2.225  0.1167 -1.9698  1.4394
   95MOL   H25836166   2.680   1.481   2.210  1.3240  1.6719  1.3789
   95MOL   H25936167   2.641   1.721   2.346 -1.0306  0.0470  1.1815
   95MOL   H26036168   2.485   1.885   2.404 -1.3282 -0.1127 -1.2584
   95MOL   H26136169   2.233   1.751   2.491  1.7456 -0.8051  1.2277
   95MOL   H26236170   2.375   1.963   2.645  0.9186 -1.3710 -1.0159
   95MOL   H26336171   2.219   1.884   2.684 -0.6848  0.8954 -1.1195
   95MOL   H26436172   2.378   1.800   2.678 -2.0524 -2.0982  0.4531
   95MOL   H26536173   2.181   1.903   2.314 -3.8126  2.9519  0.1472
   95MOL   H26636174   2.146   1.991   2.472 -1.0592  0.1913 -0.6088
   95MOL   H26736175   2.291   2.023   2.369  1.9495 -1.1276  0.4667
   95MOL   C26836176   2.585   1.719   2.133 -0.7666 -0.1259 -0.2263
   95MOL   C26936177   2.564   1.875   2.117 -0.4509  0.0285 -0.4438
   95MOL   C27036178   2.652   1.943   2.217  0.1134 -0.4281  0.0632
   95MOL   O27136179   2.614   2.029   2.297 -0.3435  0.0749  0.3634
   95MOL   N27236180   2.780   1.910   2.205 -0.5751  0.0448 -0.8371
   95MOL   C27336181   2.891   1.974   2.276 -0.6941  0.9074 -0.8524
   95MOL   C27436182   2.969   1.857   2.329 -0.1526 -0.7021 -0.2520
   95MOL   C27536183   2.976   2.049   2.175 -0.2439 -0.0556  0.2021
   95MOL   H27636184   2.684   1.705   2.090  0.0245  0.4939  1.3710
   95MOL   H27736185   2.510   1.664   2.074  0.3592  0.2112 -2.0168
   95MOL   H27836186   2.459   1.881   2.145  0.1758  0.4418  1.9964
   95MOL   H27936187   2.793   1.839   2.135 -0.5511  0.7498 -1.5496
   95MOL   H28036188   2.861   2.038   2.359  0.9653  2.7542 -1.6453
   95MOL   H28136189   3.063   1.881   2.379  0.1410 -3.4039  0.5476
   95MOL   H28236190   2.910   1.812   2.408  0.4381  0.3184  0.7733
   95MOL   H28336191   2.999   1.792   2.246  2.8623  0.3537 -0.0438
   95MOL   H28436192   3.075   2.067   2.216 -0.4410  0.4904  0.4401
   95MOL   H28536193   2.993   1.984   2.089 -2.6388  1.7136 -1.6783
   95MOL   H28636194   2.920   2.140   2.155  1.0081  0.7533  0.3711
   95MOL   C28736195   2.580   1.920   1.972 -0.2369  0.7892  0.2520
   95MOL   C28836196   2.612   2.069   1.952  0.1792  0.2378 -0.7658
   95MOL   C28936197   2.492   2.156   1.974 -0.7131 -0.3990 -0.2337
   95MOL   O29036198   2.429   2.202   1.874 -0.0200 -0.0270  0.8036
   95MOL   N29136199   2.447   2.185   2.095 -0.3685 -0.7482 -0.4229
   95MOL   C29236200   2.328   2.258   2.135  0.2054  0.2327  0.1397
   95MOL   C29336201   2.204   2.172   2.125  0.1276  0.4510  0.1742
   95MOL   C29436202   2.346   2.340   2.263 -0.3468 -0.6233  0.1053
   95MOL   H29536203   2.667   1.867   1.936  1.6629  2.2217  2.5412
   95MOL   H29636204   2.498   1.890   1.907  0.8025 -2.0458  0.2022
   95MOL   H29736205   2.697   2.100   2.012 -1.5615  2.1312  0.8244
   95MOL   H29836206   2.508   2.169   2.174 -1.4771  0.5377  0.7168
   95MOL   H29936207   2.317   2.341   2.065  2.6459  1.5516  1.2541
   95MOL   H30036208   2.118   2.239   2.130  0.1091  0.4567 -0.1806
   95MOL   H30136209   2.199   2.127   2.026  0.9413  3.3674 -1.2508
   95MOL   H30236210   2.199   2.091   2.197  1.1525 -0.5151 -0.8288
   95MOL   H30336211   2.257   2.395   2.294  0.2097  0.4104 -0.1080
   95MOL   H30436212   2.359   2.271   2.346 -0.2374 -0.6709  0.0485
   95MOL   H30536213   2.425   2.413   2.249  0.9534 -2.2196 -1.0024
   95MOL   C30636214   2.679   2.098   1.811  0.2262 -0.3565 -0.1708
   95MOL   C30736215   2.737   2.248   1.804  0.3824 -0.4483  0.2856
   95MOL   C30836216   2.718   2.303   1.664 -0.4123 -0.3553 -0.2973
   95MOL   O30936217   2.818   2.307   1.586 -0.0740 -0.2140 -0.1980
   95MOL   N31036218   2.598   2.345   1.626 -0.2110 -0.7731  0.0915
   95MOL   C31136219   2.553   2.409   1.501  0.4412 -0.2043 -0.0932
   95MOL   C31236220   2.402   2.399   1.468 -0.1755  0.3985 -0.3755
   95MOL   C31336221   2.608   2.553   1.486  0.1016 -0.1712 -0.1740
   95MOL   H31436222   2.758   2.026   1.795  1.6900  0.9722  0.9859
   95MOL   H31536223   2.611   2.077   1.728  0.7990  0.8942 -0.9772
   95MOL   H31636224   2.674   2.316   1.861 -0.9175 -2.2464  1.0683
   95MOL   H31736225   2.530   2.321   1.697 -1.7247  2.6611 -0.1017
   95MOL   H31836226   2.600   2.353   1.420 -0.3353 -0.3058 -0.4876
   95MOL   H31936227   2.368   2.298   1.490 -0.6733  0.5602 -0.4071
   95MOL   H32036228   2.375   2.412   1.364 -1.6417 -0.1984 -0.0821
   95MOL   H32136229   2.348   2.470   1.530 -1.5016  0.6251 -1.7788
   95MOL   H32236230   2.561   2.598   1.400 -2.0063 -0.1078  0.9888
   95MOL   H32336231   2.715   2.536   1.473  0.1038  0.2114 -0.6598
   95MOL   H32436232   2.594   2.609   1.578 -2.2640 -1.1161  0.0749
   95MOL   C32536233   2.886   2.256   1.852  0.5127 -1.1059  0.8562
   95MOL   C32636234   2.945   2.405   1.859  0.4979  0.4358 -0.3687
   95MOL   C32736235   2.861   2.497   1.946  0.6883  0.3671 -0.1935
   95MOL   O32836236   2.866   2.487   2.067 -0.3794  0.3103 -0.4652
   95MOL   N32936237   2.774   2.584   1.888 -0.1748  0.4109  0.1013
   95MOL   C33036238   2.678   2.666   1.957  0.7011  0.5054  0.0779
   95MOL   C33136239   2.551   2.592   1.976  0.0212  0.6917  0.2842
   95MOL   C33236240   2.647   2.784   1.871  0.6308 -0.3372 -0.5215
   95MOL   H33336241   2.948   2.200   1.782 -0.0167 -2.6041  1.5652
   95MOL   H33436242   2.892   2.199   1.945  0.0083 -1.0919  0.8968
   95MOL   H33536243   2.944   2.460   1.765 -3.0480 -0.1241 -0.6916
   95MOL   H33636244   2.779   2.585   1.787 -0.5867 -0.2916  0.0691
   95MOL   H33736245   2.717   2.693   2.055  0.5813 -0.8458  0.5039
   95MOL   H33836246   2.516   2.541   1.886  3.1272  0.7276 -0.9903
   95MOL   H33936247   2.582   2.508   2.038 -0.3389  0.3895  0.0579
   95MOL   H34036248   2.470   2.650   2.019  2.6209  3.6640  1.3490
   95MOL   H34136249   2.618   2.749   1.772  0.7866 -1.2663 -0.2430
   95MOL   H34236250   2.725   2.859   1.879  1.0207 -0.8292  0.4814
   95MOL   H34336251   2.556   2.828   1.911  0.0875  0.2271 -2.3349
   95MOL   C34436252   3.083   2.400   1.921 -0.0960 -0.2803 -0.1565
   95MOL   C34536253   3.207   2.386   1.827  0.6916  0.2697 -0.1819
   95MOL   C34636254   3.242   2.238   1.800 -0.5666  0.0239  0.1541
   95MOL   O34736255   3.320   2.179   1.875  0.8234 -0.2842  0.3203
   95MOL   N34836256   3.186   2.174   1.694 -0.3311  0.6106  0.1844
   95MOL   C34936257   3.185   2.031   1.669  0.1911  0.0462  0.2352
   95MOL   C35036258   3.126   1.947   1.789  0.0986 -0.0513  0.6207
   95MOL   C35136259   3.110   2.003   1.541 -0.0857  0.2278  0.1859
   95MOL   H35236260   3.086   2.320   1.995 -1.2219 -0.5561 -0.3967
   95MOL   H35336261   3.109   2.483   1.987  2.1264 -1.7617  0.8787
   95MOL   H35436262   3.289   2.418   1.892  0.4184 -0.8534  0.7170
   95MOL   H35536263   3.127   2.222   1.628  0.3146  0.8921 -0.1878
   95MOL   H35636264   3.292   2.013   1.663 -0.4190 -3.6232 -1.5362
   95MOL   H35736265   3.188   1.964   1.877 -0.0915  1.0375  0.5608
   95MOL   H35836266   3.032   1.992   1.820  0.2841  2.8111 -2.5971
   95MOL   H35936267   3.108   1.841   1.773 -0.9529  0.3768 -1.1150
   95MOL   H36036268   3.005   2.032   1.543 -0.0911  0.3151 -1.0239
   95MOL   H36136269   3.151   2.057   1.456 -0.9168  1.7408  0.7449
   95MOL   H36236270   3.125   1.896   1.522 -1.0034  0.3681 -1.4134
   95MOL   C36336271   3.222   2.488   1.709 -0.0074 -0.6004  0.1722
   95MOL   C36436272   3.363   2.543   1.692  0.2104 -0.1868  1.0021
   95MOL   C36536273   3.375   2.639   1.573 -0.2045  0.2089 -0.0612
   95MOL   O36636274   3.318   2.608   1.469 -0.1772 -0.0609 -0.0967
   95MOL   N36736275   3.449   2.755   1.591  0.7261 -0.3644 -0.9118
   95MOL   C36836276   3.472   2.855   1.493 -0.7233 -0.0931  0.6856
   95MOL   C36936277   3.474   2.993   1.562 -0.6536 -0.4082 -0.3950
   95MOL   C37036278   3.605   2.819   1.411  0.2294  0.8099 -0.6366
   95MOL   H37136279   3.147   2.561   1.738 -1.1883 -2.5316  2.2313
   95MOL   H37236280   3.184   2.442   1.618 -0.9929  1.8865 -0.6949
   95MOL   H37336281   3.436   2.466   1.670  2.5001  2.6078 -1.6316
   95MOL   H37436282   3.490   2.768   1.683  1.9510 -2.9711 -1.0451
   95MOL   H37536283   3.382   2.851   1.431  0.0291 -1.9325 -0.3008
   95MOL   H37636284   3.575   3.014   1.599 -1.1623 -0.4450  1.0636
   95MOL   H37736285   3.472   3.069   1.483  0.9807 -1.3186 -1.3303
   95MOL   H37836286   3.388   3.023   1.622 -0.9835  1.7456 -1.8780
   95MOL   H37936287   3.688   2.800   1.479 -2.7345  0.4965  3.0266
   95MOL   H38036288   3.589   2.731   1.348  1.8359  0.0643 -0.0323
   95MOL   H38136289   3.632   2.902   1.346 -0.6721  0.8470 -0.9743
   95MOL   H38236290   3.396   2.596   1.781  1.9645  1.1314 -0.3880
   96MOL     C136291   3.839   1.491   2.913 -0.2104 -0.0079  0.5956
   96MOL     C236292   3.710   1.543   2.975  0.3643 -0.1585 -0.1153
   96MOL     C336293   3.593   1.451   2.962  0.8254 -0.3907  0.2814
   96MOL     O436294   3.511   1.472   2.867 -0.0439 -1.1057 -0.1020
   96MOL     N536295   3.579   1.355   3.057  0.1008 -0.5232 -0.0589
   96MOL     C636296   3.486   1.247   3.050 -0.0280  0.4816  0.5119
   96MOL     C736297   3.341   1.289   3.064  0.1716  1.0266 -1.3872
   96MOL     C836298   3.494   1.169   2.913 -0.8237  0.2418 -0.1801
   96MOL     H936299   3.816   1.456   2.812  0.3585  0.4769  0.2897
   96MOL    H1036300   3.877   1.407   2.971  0.0505  0.3222  0.9025
   96MOL    H1136301   3.674   1.623   2.910 -2.1442  0.5009  1.9832
   96MOL    H1236302   3.643   1.358   3.135  1.0451  0.6791 -0.8469
   96MOL    H1336303   3.509   1.170   3.125 -1.0578 -0.5445 -0.2088
   96MOL    H1436304   3.295   1.334   2.976 -0.3976  1.3646 -0.9236
   96MOL    H1536305   3.333   1.344   3.158  1.3198  1.1203 -1.3320
   96MOL    H1636306   3.280   1.205   3.094  0.0086  0.9912 -1.8202
   96MOL    H1736307   3.422   1.087   2.909  0.1890 -0.6000 -1.6100
   96MOL    H1836308   3.477   1.236   2.829  1.2838  1.0929  0.0438
   96MOL    H1936309   3.587   1.119   2.884 -0.5256  0.5096  0.2916
   96MOL    H2036310   3.907   1.574   2.892 -3.4983  2.9413  1.2083
   96MOL    C2136311   3.726   1.592   3.120  0.0457  0.0989 -0.3787
   96MOL    C2236312   3.827   1.699   3.155 -0.2155 -0.1442  0.9521
   96MOL    C2336313   3.966   1.637   3.164  0.0327  0.0592 -0.1800
   96MOL    O2436314   3.985   1.555   3.255 -0.4809 -0.1915  0.4295
   96MOL    N2536315   4.064   1.681   3.090 -0.2365 -0.2482  0.8755
   96MOL    C2636316   4.206   1.639   3.077 -1.3241  0.4511 -0.3835
   96MOL    C2736317   4.287   1.756   3.019  0.6184 -0.7614 -0.4391
   96MOL    C2836318   4.232   1.523   2.989 -0.1349 -0.9352 -0.1888
   96MOL    H2936319   3.748   1.503   3.178 -1.6546  0.8128  1.4247
   96MOL    H3036320   3.632   1.632   3.157 -0.2684  0.4023 -1.4864
   96MOL    H3136321   3.825   1.770   3.073  0.7972 -0.7602  0.3736
   96MOL    H3236322   4.033   1.754   3.029  2.0900 -0.5401 -0.7056
   96MOL    H3336323   4.226   1.610   3.180  3.0532 -0.7420 -1.4836
   96MOL    H3436324   4.274   1.845   3.081 -0.5034 -1.2474  0.0369
   96MOL    H3536325   4.261   1.784   2.917  0.7631 -1.0694 -0.5592
   96MOL    H3636326   4.392   1.727   3.024  1.1418  1.0708 -0.4494
   96MOL    H3736327   4.206   1.543   2.885 -0.1430  1.0752  0.1780
   96MOL    H3836328   4.337   1.493   2.990  1.1165  3.1286 -1.4121
   96MOL    H3936329   4.182   1.429   3.013 -0.9428 -0.5235 -0.2627
   96MOL    C4036330   3.776   1.772   3.285  0.1350  0.2856  0.3001
   96MOL    C4136331   3.784   1.705   3.422 -0.1119  0.9465  0.2601
   96MOL    C4236332   3.720   1.566   3.424 -0.1424  0.3392  0.9663
   96MOL    O4336333   3.603   1.561   3.397  0.1783 -0.0469 -0.0970
   96MOL    N4436334   3.796   1.462   3.461  0.1636  0.0725 -0.0273
   96MOL    C4536335   3.750   1.329   3.478  0.2051  0.0525  0.3779
   96MOL    C4636336   3.743   1.256   3.349 -0.0122  0.4848 -0.4240
   96MOL    C4736337   3.835   1.270   3.587 -0.3376 -0.0052  0.5459
   96MOL    H4836338   3.676   1.809   3.265  0.0256  0.8663  1.8264
   96MOL    H4936339   3.841   1.859   3.289  0.0530  0.3624 -0.0353
   96MOL    H5036340   3.885   1.686   3.459 -0.2655 -1.0141 -0.2442
   96MOL    H5136341   3.891   1.489   3.479 -0.5492  1.1457  2.3273
   96MOL    H5236342   3.648   1.333   3.517 -0.1163  0.8513 -0.5383
   96MOL    H5336343   3.666   1.290   3.280  2.9045 -0.1283 -4.1492
   96MOL    H5436344   3.722   1.149   3.351  1.3560  0.2023 -0.7355
   96MOL    H5536345   3.839   1.277   3.301  0.7055 -0.2510  0.6737
   96MOL    H5636346   3.822   1.162   3.582 -0.9316  0.0044  1.7113
   96MOL    H5736347   3.797   1.318   3.676 -0.1716  1.9686 -0.4138
   96MOL    H5836348   3.940   1.299   3.591 -0.5249  2.0543 -5.1562
   96MOL    C5936349   3.724   1.804   3.527 -0.3207 -0.0248  0.4659
   96MOL    C6036350   3.693   1.758   3.671 -0.0869 -0.5335 -0.0151
   96MOL    C6136351   3.651   1.884   3.760  0.4330  0.1695 -0.0745
   96MOL    O6236352   3.532   1.919   3.777  0.5303 -0.4861  0.5201
   96MOL    N6336353   3.754   1.952   3.820 -0.0781 -0.7060  0.6051
   96MOL    C6436354   3.745   2.061   3.915  0.3000 -0.5990 -0.3517
   96MOL    C6536355   3.688   1.995   4.042 -0.0067  0.0723 -0.3210
   96MOL    C6636356   3.892   2.110   3.934 -0.2878  0.2951  0.7171
   96MOL    H6736357   3.795   1.887   3.523  1.0580 -1.1527  1.0209
   96MOL    H6836358   3.634   1.844   3.481 -0.0561 -1.0939 -1.0076
   96MOL    H6936359   3.595   1.710   3.661 -0.0913 -0.2299 -1.5031
   96MOL    H7036360   3.840   1.900   3.815  1.3821  1.6903  0.1423
   96MOL    H7136361   3.680   2.137   3.871  2.2394  1.2504 -0.0934
   96MOL    H7236362   3.670   2.074   4.116 -0.0902  1.1501 -1.4668
   96MOL    H7336363   3.592   1.945   4.029 -0.3892  0.7480 -0.1116
   96MOL    H7436364   3.763   1.927   4.082 -0.5116 -0.5248 -0.3969
   96MOL    H7536365   3.896   2.204   3.988 -0.4503  0.8655 -0.2389
   96MOL    H7636366   3.958   2.033   3.974 -1.7817 -0.2298  2.2257
   96MOL    H7736367   3.945   2.140   3.843 -0.8645  0.4812  0.4379
   96MOL    C7836368   3.802   1.674   3.744 -0.1689  0.0071  0.0892
   96MOL    C7936369   3.768   1.628   3.881  0.0004  0.0510  0.0145
   96MOL    C8036370   3.633   1.549   3.884  0.1014 -0.7197 -0.2618
   96MOL    O8136371   3.613   1.451   3.811  0.4700 -0.1459  0.1963
   96MOL    N8236372   3.544   1.596   3.971  0.2167 -0.0563  0.5669
   96MOL    C8336373   3.404   1.551   3.987  0.2122 -0.0549 -0.5307
   96MOL    C8436374   3.389   1.451   4.108  0.2779  0.2204 -0.4306
   96MOL    C8536375   3.308   1.669   4.014 -0.1887  0.4686 -0.1134
   96MOL    H8636376   3.895   1.731   3.748  0.1845 -0.5840  0.3597
   96MOL    H8736377   3.820   1.581   3.690 -0.8681 -0.2094  0.2203
   96MOL    H8836378   3.757   1.721   3.938  0.9174 -0.2513  0.6918
   96MOL    H8936379   3.579   1.676   4.022 -0.7221  0.8851 -0.2557
   96MOL    H9036380   3.379   1.501   3.894  0.7684 -1.0091 -0.1780
   96MOL    H9136381   3.438   1.355   4.092  0.9254  0.3857  0.4900
   96MOL    H9236382   3.441   1.482   4.199 -1.6530  0.2680  0.6648
   96MOL    H9336383   3.286   1.434   4.138  0.2629 -0.1634 -0.6976
   96MOL    H9436384   3.328   1.715   4.111  0.1652 -1.1135  0.5706
   96MOL    H9536385   3.202   1.645   4.014  0.1260 -0.9812  0.6863
   96MOL    H9636386   3.319   1.748   3.939  1.1846  0.0727 -0.3373
   96MOL    C9736387   3.876   1.543   3.955  0.1162  0.5925 -0.8625
   96MOL    C9836388   3.860   1.503   4.105 -0.7715  0.1785  0.3797
   96MOL    C9936389   3.837   1.620   4.195 -0.5762 -1.0268 -0.1523
   96MOL   O10036390   3.727   1.679   4.203 -0.7785  1.6068 -0.4822
   96MOL   N10136391   3.945   1.665   4.263  0.0802 -0.2004 -0.1592
   96MOL   C10236392   3.945   1.795   4.344 -0.2118  0.7473 -1.4041
   96MOL   C10336393   3.972   1.757   4.491  0.3919 -0.1667  0.7926
   96MOL   C10436394   4.049   1.896   4.297  0.4657  0.2827 -0.1701
   96MOL   H10536395   3.968   1.601   3.948  0.7477 -0.3737 -0.7891
   96MOL   H10636396   3.898   1.458   3.889 -2.4532 -0.6772 -0.1261
   96MOL   H10736397   3.771   1.441   4.116 -1.5401  1.4173  1.2475
   96MOL   H10836398   4.027   1.606   4.259  1.9356  2.3772 -2.3706
   96MOL   H10936399   3.846   1.840   4.351  0.1437  1.1082  2.2030
   96MOL   H11036400   4.076   1.733   4.512  0.8230 -0.1459 -1.2102
   96MOL   H11136401   3.947   1.843   4.553 -0.7327 -0.0334  0.1773
   96MOL   H11236402   3.902   1.678   4.518  3.9208 -3.3140  1.0963
   96MOL   H11336403   4.066   1.971   4.374  1.2129 -0.3022  0.2445
   96MOL   H11436404   4.005   1.956   4.218 -0.7954 -0.5791 -0.1312
   96MOL   H11536405   4.142   1.852   4.259  0.6811  1.2373 -0.7721
   96MOL   C11636406   3.970   1.409   4.145  0.0593 -0.5575  0.1437
   96MOL   C11736407   3.982   1.273   4.080  0.4915 -0.3027  0.2074
   96MOL   C11836408   3.886   1.171   4.149  0.4063  0.1925 -1.1992
   96MOL   O11936409   3.902   1.126   4.264 -0.0498  0.2320 -0.2503
   96MOL   N12036410   3.784   1.135   4.065  0.2640  0.2204  0.6751
   96MOL   C12136411   3.678   1.035   4.073  0.1741  0.4373  0.1447
   96MOL   C12236412   3.712   0.886   4.106  0.3566 -0.3782  0.1857
   96MOL   C12336413   3.563   1.076   4.161 -0.2757  0.1079  0.0659
   96MOL   H12436414   3.963   1.397   4.253  0.5457 -1.7827  0.0505
   96MOL   H12536415   4.067   1.454   4.124  0.9051 -1.3504  2.2404
   96MOL   H12636416   3.965   1.278   3.973 -0.7575  1.5373  0.4677
   96MOL   H12736417   3.795   1.168   3.970 -3.1790 -1.0631 -0.2584
   96MOL   H12836418   3.627   1.037   3.977  0.1909 -0.1143  0.1245
   96MOL   H12936419   3.800   0.854   4.052 -0.5606  1.2707 -2.3751
   96MOL   H13036420   3.630   0.821   4.075 -0.4825  0.8272 -0.2039
   96MOL   H13136421   3.730   0.874   4.213  0.0646 -0.7898  0.1898
   96MOL   H13236422   3.593   1.079   4.266  0.2986  0.2340 -0.1007
   96MOL   H13336423   3.542   1.178   4.132  2.1453  0.7961  0.6134
   96MOL   H13436424   3.477   1.009   4.149  1.3065 -1.8642 -0.5456
   96MOL   C13536425   4.126   1.218   4.082 -0.2143 -0.0672 -0.2526
   96MOL   C13636426   4.206   1.201   4.218  0.0651  0.2845 -0.0500
   96MOL   C13736427   4.244   1.058   4.237 -0.3278  0.2699  0.3222
   96MOL   O13836428   4.360   1.019   4.217  0.3792  0.1440 -0.0206
   96MOL   N13936429   4.141   0.974   4.261  0.4445  0.1805  0.4034
   96MOL   C14036430   4.165   0.838   4.301 -0.0495 -0.2643 -0.6548
   96MOL   C14136431   4.037   0.763   4.273  0.2025 -0.1628 -0.2949
   96MOL   C14236432   4.204   0.842   4.452 -0.5784  0.2566  0.7821
   96MOL   H14336433   4.173   1.290   4.015  1.4990 -1.0454 -0.1333
   96MOL   H14436434   4.125   1.128   4.021  3.2752  0.2002 -0.8084
   96MOL   H14536435   4.137   1.229   4.297  0.3888  0.2088  0.2601
   96MOL   H14636436   4.047   1.003   4.237  0.7901  0.5354 -0.5435
   96MOL   H14736437   4.242   0.797   4.236  0.8706 -4.4103  2.7963
   96MOL   H14836438   3.949   0.810   4.316 -0.6880 -0.7044 -1.4682
   96MOL   H14936439   4.008   0.755   4.168  0.3415  0.0198 -0.3468
   96MOL   H15036440   4.044   0.657   4.300 -1.7578 -0.1624  0.3122
   96MOL   H15136441   4.293   0.904   4.467  1.8190 -2.5266 -1.4028
   96MOL   H15236442   4.232   0.746   4.493  1.2342  0.0334 -0.8774
   96MOL   H15336443   4.123   0.874   4.517 -1.4432 -2.5920  1.1476
   96MOL   C15436444   4.324   1.309   4.218  0.8482 -0.2624 -0.0260
   96MOL   C15536445   4.398   1.339   4.353 -0.0364  0.2364  0.2952
   96MOL   C15636446   4.312   1.432   4.434  0.7003 -0.1883 -0.0274
   96MOL   O15736447   4.273   1.539   4.388  0.0993 -0.3149 -0.4093
   96MOL   N15836448   4.292   1.396   4.565 -0.6394 -0.3399 -0.8197
   96MOL   C15936449   4.224   1.482   4.665 -0.3749 -0.2119  0.1132
   96MOL   C16036450   4.288   1.469   4.800  1.3739 -0.1875  0.1795
   96MOL   C16136451   4.075   1.458   4.655 -0.5928 -0.6976  0.4199
   96MOL   H16236452   4.287   1.401   4.173 -1.1069 -1.4221 -0.9001
   96MOL   H16336453   4.408   1.267   4.162  1.9647 -0.4618  1.7546
   96MOL   H16436454   4.399   1.245   4.409 -1.5064  0.2192  0.3108
   96MOL   H16536455   4.331   1.309   4.598 -0.7419 -0.1333 -0.1515
   96MOL   H16636456   4.249   1.584   4.636 -1.6099 -0.0508 -0.4326
   96MOL   H16736457   4.224   1.514   4.876 -0.9557 -2.6665 -0.2226
   96MOL   H16836458   4.285   1.370   4.846 -1.4503  0.2640  1.0617
   96MOL   H16936459   4.394   1.489   4.815  1.4405  0.5650 -1.2794
   96MOL   H17036460   4.056   1.350   4.658 -0.1768 -0.8283 -1.0187
   96MOL   H17136461   4.044   1.494   4.557  2.1781  1.8852  0.4278
   96MOL   H17236462   4.013   1.509   4.729 -1.7289 -1.3196 -0.0957
   96MOL   C17336463   4.534   1.401   4.332 -0.1487 -0.2322  0.2149
   96MOL   C17436464   4.655   1.312   4.388  0.0645  0.2884  0.2794
   96MOL   C17536465   4.647   1.299   4.545 -0.3482  0.4791  0.3300
   96MOL   O17636466   4.550   1.258   4.606 -0.5617 -0.1644 -0.3661
   96MOL   N17736467   4.754   1.355   4.603 -1.0268 -0.2586  0.0269
   96MOL   C17836468   4.799   1.320   4.738 -0.8596 -0.2742 -0.1813
   96MOL   C17936469   4.799   1.450   4.827  0.6355  0.8351  0.1833
   96MOL   C18036470   4.936   1.258   4.730  0.0290  0.0641  0.5996
   96MOL   H18136471   4.539   1.509   4.350  0.2072 -0.4537  1.4898
   96MOL   H18236472   4.556   1.408   4.226 -1.5911  0.7131 -0.0456
   96MOL   H18336473   4.741   1.369   4.355 -1.1497  1.1907 -1.4396
   96MOL   H18436474   4.816   1.405   4.542 -2.7155  0.7021 -0.9250
   96MOL   H18536475   4.738   1.239   4.778 -0.5091  0.1792  1.3014
   96MOL   H18636476   4.697   1.481   4.850 -0.1178 -1.4258 -0.0069
   96MOL   H18736477   4.860   1.527   4.780  0.4674  1.5597  1.1292
   96MOL   H18836478   4.829   1.424   4.929  5.1977  4.1830 -0.1514
   96MOL   H18936479   4.973   1.240   4.831 -3.2486  1.2104  2.0601
   96MOL   H19036480   5.010   1.326   4.686  1.2144 -2.1944 -1.0536
   96MOL   H19136481   4.952   1.162   4.680  4.1787 -0.1402  2.0921
   96MOL   C19236482   4.665   1.176   4.327  0.5412  0.7571 -0.2855
   96MOL   C19336483   4.808   1.113   4.338 -0.0745  0.8676  0.3559
   96MOL   C19436484   4.909   1.188   4.249  1.1666  0.8973  0.0148
   96MOL   O19536485   4.879   1.227   4.136 -0.4597 -0.3662 -0.4362
   96MOL   N19636486   5.036   1.198   4.293  0.5898  0.2971 -0.2110
   96MOL   C19736487   5.157   1.225   4.208 -0.6375  0.7131 -0.5791
   96MOL   C19836488   5.218   1.360   4.255 -0.5436  0.0983  0.3263
   96MOL   C19936489   5.249   1.109   4.206 -0.0480 -0.2430 -0.2725
   96MOL   H20036490   4.647   1.180   4.220  2.3845  1.4589 -0.6002
   96MOL   H20136491   4.588   1.116   4.375  0.5666 -1.0846 -2.4994
   96MOL   H20236492   4.843   1.117   4.441  0.9281  2.7139 -0.0537
   96MOL   H20336493   5.060   1.184   4.390 -0.8064  1.9201  0.3884
   96MOL   H20436494   5.123   1.240   4.106 -0.2330 -0.5137 -0.9026
   96MOL   H20536495   5.252   1.348   4.357  1.2065  1.6914 -0.0496
   96MOL   H20636496   5.148   1.444   4.253  0.1378  0.6638  0.2499
   96MOL   H20736497   5.300   1.387   4.189 -1.4412 -3.2856 -2.3574
   96MOL   H20836498   5.326   1.140   4.135  0.1421  0.1478  0.1072
   96MOL   H20936499   5.202   1.019   4.165 -1.1200 -0.3777  1.2117
   96MOL   H21036500   5.304   1.099   4.299 -1.1977  1.3297  0.5935
   96MOL   C21136501   4.824   0.954   4.321  1.4126  0.2446  0.0234
   96MOL   C21236502   4.776   0.898   4.184 -0.4905  0.0269 -0.5411
   96MOL   C21336503   4.893   0.893   4.080 -0.6222 -0.1254 -0.5111
   96MOL   O21436504   5.004   0.848   4.108  0.2885 -0.3189  0.0167
   96MOL   N21536505   4.866   0.931   3.951  0.5946 -0.4748 -0.2574
   96MOL   C21636506   4.968   0.929   3.848 -0.3764 -0.1675 -0.5686
   96MOL   C21736507   4.932   1.054   3.764  0.0662 -0.2988 -0.1442
   96MOL   C21836508   4.965   0.801   3.758  0.1615  0.2820 -0.3483
   96MOL   H21936509   4.769   0.908   4.404  0.9002  0.2209 -0.3294
   96MOL   H22036510   4.927   0.931   4.346  0.7868 -0.3232  2.2425
   96MOL   H22136511   4.692   0.956   4.145 -3.1350 -2.3123  1.4329
   96MOL   H22236512   4.772   0.953   3.919 -0.1419 -1.5166  1.1526
   96MOL   H22336513   5.066   0.941   3.893 -0.3267 -3.3879  0.2964
   96MOL   H22436514   4.933   1.138   3.834  1.4986  0.4532 -1.0414
   96MOL   H22536515   5.009   1.058   3.687 -0.8068  2.2800 -0.9121
   96MOL   H22636516   4.829   1.037   3.732 -0.5466 -1.5369  2.3375
   96MOL   H22736517   5.051   0.815   3.692  0.3874  0.6341  0.0077
   96MOL   H22836518   4.882   0.779   3.691  0.3877 -0.6257 -0.3358
   96MOL   H22936519   4.985   0.707   3.810  0.1369  0.2278 -0.4382
   96MOL   C23036520   4.737   0.755   4.212  0.0636 -0.3044 -0.2908
   96MOL   C23136521   4.650   0.684   4.106  0.0214 -0.3104  0.8497
   96MOL   C23236522   4.656   0.531   4.117 -0.2032  0.3061  0.2495
   96MOL   O23336523   4.613   0.477   4.219 -0.5554 -0.6643 -0.0714
   96MOL   N23436524   4.699   0.458   4.007  0.0693 -0.0797 -0.1530
   96MOL   C23536525   4.715   0.314   3.998 -0.5368  0.4103  0.0381
   96MOL   C23636526   4.593   0.256   3.923 -0.5119 -0.7370  0.0306
   96MOL   C23736527   4.847   0.291   3.923 -0.8879  0.2485  0.6067
   96MOL   H23836528   4.686   0.741   4.307 -3.0122 -2.4949 -2.1462
   96MOL   H23936529   4.828   0.698   4.227 -0.5626 -1.5677 -1.1606
   96MOL   H24036530   4.693   0.716   4.010 -0.1026  3.1106  1.8482
   96MOL   H24136531   4.732   0.512   3.928  0.0021  0.4434  0.1713
   96MOL   H24236532   4.724   0.275   4.099 -0.2587  0.8718  0.1948
   96MOL   H24336533   4.571   0.323   3.839 -2.2061 -0.5772  0.5731
   96MOL   H24436534   4.596   0.152   3.890  2.6139 -0.2502 -1.3274
   96MOL   H24536535   4.510   0.259   3.994 -0.4165  1.5268  0.0811
   96MOL   H24636536   4.848   0.356   3.836 -2.0539 -1.2356 -0.5499
   96MOL   H24736537   4.874   0.187   3.900  1.7365  0.8251  0.8877
   96MOL   H24836538   4.931   0.323   3.985  0.4749 -2.1516  0.0895
   96MOL   C24936539   4.504   0.743   4.084 -0.1779 -0.0741  0.2442
   96MOL   C25036540   4.460   0.754   3.941  0.2067 -0.9657 -0.0231
   96MOL   C25136541   4.517   0.864   3.859 -0.0229  0.6793  0.4500
   96MOL   O25236542   4.567   0.836   3.753 -0.4383 -0.0757 -0.5943
   96MOL   N25336543   4.506   0.989   3.908 -0.5943  0.5089 -0.1664
   96MOL   C25436544   4.549   1.106   3.834 -0.1618 -0.3086  0.2020
   96MOL   C25536545   4.426   1.175   3.765  0.2332  0.8229 -0.1417
   96MOL   C25636546   4.622   1.202   3.928 -0.1071  0.5788  0.2708
   96MOL   H25736547   4.501   0.841   4.131 -0.3131  2.4250 -4.7052
   96MOL   H25836548   4.447   0.673   4.145  0.4676 -1.7260 -1.0036
   96MOL   H25936549   4.485   0.661   3.889  2.7846 -0.1812 -0.2738
   96MOL   H26036550   4.482   1.006   4.004 -3.0357 -3.9726  0.1802
   96MOL   H26136551   4.619   1.080   3.754  1.1005  3.3387  0.0245
   96MOL   H26236552   4.471   1.257   3.710  0.6671  2.2221  2.2382
   96MOL   H26336553   4.376   1.105   3.698  1.7600 -1.0438  0.6302
   96MOL   H26436554   4.361   1.212   3.845  0.0476 -1.3313  0.7609
   96MOL   H26536555   4.557   1.218   4.014 -2.0504 -0.7937 -0.9074
   96MOL   H26636556   4.723   1.166   3.947 -0.6502 -2.6900 -2.4797
   96MOL   H26736557   4.629   1.303   3.887  3.0611 -0.6672 -2.4671
   96MOL   C26836558   4.303   0.772   3.942 -0.3268  0.1271  0.7797
   96MOL   C26936559   4.230   0.790   3.806  0.4427 -0.3240 -0.1294
   96MOL   C27036560   4.268   0.678   3.706 -0.1985 -0.3113 -0.4073
   96MOL   O27136561   4.198   0.580   3.713  0.1476 -0.0585 -0.0180
   96MOL   N27236562   4.360   0.691   3.603  0.6248 -0.0496 -0.1678
   96MOL   C27336563   4.384   0.593   3.495 -0.3838 -0.4508  0.0701
   96MOL   C27436564   4.366   0.672   3.360 -0.5267 -0.5582 -0.1174
   96MOL   C27536565   4.523   0.532   3.502  0.2770  0.5639  0.2984
   96MOL   H27636566   4.262   0.678   3.979 -2.0272  0.5453  0.0346
   96MOL   H27736567   4.273   0.853   4.008  1.5346  2.6500 -1.3469
   96MOL   H27836568   4.266   0.882   3.760  0.8645 -1.1321 -1.4368
   96MOL   H27936569   4.421   0.771   3.596 -0.5919  0.7438 -2.2107
   96MOL   H28036570   4.308   0.517   3.516 -0.6691  0.0429  0.8165
   96MOL   H28136571   4.276   0.733   3.372  0.1094  0.4278 -0.3353
   96MOL   H28236572   4.445   0.739   3.328 -0.2633 -1.1060 -0.6347
   96MOL   H28336573   4.354   0.603   3.276 -0.6050  0.8028 -1.2459
   96MOL   H28436574   4.529   0.433   3.457  1.5290  0.4101  0.7828
   96MOL   H28536575   4.604   0.597   3.469  0.0427  1.2870  1.1201
   96MOL   H28636576   4.550   0.504   3.604 -2.0094  0.0935  0.7948
   96MOL   C28736577   4.081   0.823   3.815  0.9048 -0.7094  0.6171
   96MOL   C28836578   4.015   0.877   3.686  0.1811 -0.2245  0.4463
   96MOL   C28936579   4.070   1.016   3.638 -0.4562  0.9895  0.5729
   96MOL   O29036580   4.074   1.113   3.713 -0.4914  0.2237 -0.0632
   96MOL   N29136581   4.131   1.014   3.515  0.5755  0.2674 -0.0273
   96MOL   C29236582   4.212   1.116   3.443 -0.1906 -0.6389  0.2063
   96MOL   C29336583   4.345   1.062   3.400 -0.1274  0.2909 -0.1755
   96MOL   C29436584   4.134   1.172   3.321  0.3261 -0.5263 -0.1244
   96MOL   H29536585   4.033   0.727   3.834 -1.7236  0.4671  0.1745
   96MOL   H29636586   4.073   0.880   3.908  2.5521  0.7441 -0.1088
   96MOL   H29736587   4.033   0.807   3.605  0.3350 -0.3293  0.5711
   96MOL   H29836588   4.129   0.928   3.463 -1.4208 -0.7891  1.7351
   96MOL   H29936589   4.215   1.201   3.511  0.0241 -0.8523  0.4633
   96MOL   H30036590   4.411   1.142   3.368  0.2799  0.2836  0.6401
   96MOL   H30136591   4.393   1.004   3.479  3.4820  0.9803 -1.7902
   96MOL   H30236592   4.335   0.994   3.316  1.6675  0.5404 -0.6041
   96MOL   H30336593   4.100   1.094   3.254 -2.5241 -0.3845  1.0611
   96MOL   H30436594   4.037   1.209   3.353 -0.0814 -0.5230 -1.3417
   96MOL   H30536595   4.177   1.259   3.273 -0.8449  0.1542  0.0392
   96MOL   C30636596   3.868   0.894   3.718  0.4189  0.3326 -0.1109
   96MOL   C30736597   3.764   0.887   3.599  0.0261  0.2535  0.1128
   96MOL   C30836598   3.624   0.919   3.654 -0.8363  0.5870  0.0479
   96MOL   O30936599   3.587   0.861   3.758 -0.0584  0.1804  0.5049
   96MOL   N31036600   3.545   1.010   3.591  0.1147  0.1093  0.1895
   96MOL   C31136601   3.411   1.052   3.627  0.6497  0.5137 -0.2323
   96MOL   C31236602   3.408   1.133   3.755  0.3868  0.5020  0.5045
   96MOL   C31336603   3.354   1.137   3.518  0.4674 -0.5557  0.2732
   96MOL   H31436604   3.841   0.818   3.791 -0.1506  1.5888  1.0313
   96MOL   H31536605   3.860   0.987   3.774 -1.8518 -1.1319  2.1060
   96MOL   H31636606   3.794   0.963   3.527 -1.7567  2.4887  1.6281
   96MOL   H31736607   3.577   1.053   3.505  1.3352 -0.6824  0.2378
   96MOL   H31836608   3.346   0.966   3.638 -1.2727  1.8830 -0.5201
   96MOL   H31936609   3.423   1.070   3.842 -0.2535 -0.1880  0.1228
   96MOL   H32036610   3.308   1.170   3.779  0.6565  0.6968  1.3258
   96MOL   H32136611   3.486   1.210   3.756  2.4778 -1.5308 -0.7321
   96MOL   H32236612   3.377   1.096   3.420 -3.7935  1.3343 -1.6850
   96MOL   H32336613   3.388   1.240   3.534 -2.9483  1.0448 -2.0223
   96MOL   H32436614   3.246   1.149   3.523  0.7405  1.3278  2.6160
   96MOL   C32536615   3.763   0.745   3.534  0.1673  0.2680 -0.1438
   96MOL   C32636616   3.768   0.733   3.377 -0.4612  0.2194  0.3262
   96MOL   C32736617   3.641   0.799   3.318  0.7965  0.3295  0.2002
   96MOL   O32836618   3.622   0.921   3.338  0.0212  0.3045 -0.0204
   96MOL   N32936619   3.559   0.711   3.251 -0.5497  0.1243 -0.2477
   96MOL   C33036620   3.446   0.759   3.171 -0.0985 -0.1768  0.0529
   96MOL   C33136621   3.358   0.647   3.136 -0.5509 -0.2776  0.3930
   96MOL   C33236622   3.502   0.838   3.052  0.0526  0.6032  0.6067
   96MOL   H33336623   3.679   0.685   3.568  0.1958 -0.1789 -0.8548
   96MOL   H33436624   3.849   0.687   3.567  0.3989  2.5191  3.5494
   96MOL   H33536625   3.767   0.624   3.369  5.1036  0.0448  0.0483
   96MOL   H33636626   3.585   0.613   3.243  1.2182  0.5947 -0.3358
   96MOL   H33736627   3.387   0.818   3.243  4.1181  2.0892  1.8262
   96MOL   H33836628   3.405   0.556   3.099  2.4432  0.2476  2.7224
   96MOL   H33936629   3.298   0.607   3.218 -1.6148  0.3639 -0.0704
   96MOL   H34036630   3.278   0.677   3.069  0.0151  4.1464  1.5896
   96MOL   H34136631   3.539   0.936   3.082 -0.0634  0.9281 -0.2981
   96MOL   H34236632   3.420   0.866   2.986  0.4548  3.3361  1.2444
   96MOL   H34336633   3.582   0.786   2.998 -1.3688  0.6078 -1.5709
   96MOL   C34436634   3.892   0.787   3.305 -0.0474  0.3154  0.5584
   96MOL   C34536635   3.912   0.708   3.170  0.0507 -0.5143 -0.0285
   96MOL   C34636636   3.992   0.785   3.070 -0.3263  0.1730  0.0656
   96MOL   O34736637   4.105   0.820   3.100 -0.3887  0.5983 -0.2941
   96MOL   N34836638   3.926   0.810   2.961 -0.3229 -0.5994 -0.9209
   96MOL   C34936639   3.968   0.905   2.860 -0.3926 -0.0787  0.5257
   96MOL   C35036640   4.075   0.841   2.757  0.3083  0.1546  0.0859
   96MOL   C35136641   3.848   0.967   2.787  0.1728  0.5051 -0.1664
   96MOL   H35236642   3.984   0.788   3.362  1.2916 -0.4302 -1.5473
   96MOL   H35336643   3.873   0.892   3.280 -2.0214  0.0736  0.9620
   96MOL   H35436644   3.812   0.700   3.129 -0.2245  1.3821  0.2341
   96MOL   H35536645   3.832   0.775   2.951 -1.6075  2.6482 -0.9828
   96MOL   H35636646   4.025   0.980   2.915  0.4379 -0.7991  0.6539
   96MOL   H35736647   4.093   0.914   2.678 -2.1316 -0.3574 -1.0017
   96MOL   H35836648   4.170   0.822   2.806  1.0178  0.0978 -1.2852
   96MOL   H35936649   4.048   0.744   2.716  0.1921  0.3638 -0.3340
   96MOL   H36036650   3.782   1.031   2.845  1.0039  0.2630  1.0801
   96MOL   H36136651   3.895   1.029   2.710  0.9710 -0.7504 -0.7104
   96MOL   H36236652   3.791   0.892   2.731 -0.3079  0.3765  0.4924
   96MOL   C36336653   3.966   0.563   3.200 -0.3079  0.2732  0.1043
   96MOL   C36436654   3.914   0.471   3.088  0.0171 -0.1733  0.2430
   96MOL   C36536655   3.767   0.424   3.090 -0.1072  0.3215  0.0832
   96MOL   O36636656   3.676   0.479   3.147  0.1805 -0.1909 -0.0939
   96MOL   N36736657   3.735   0.318   3.013  0.4563  0.0897 -0.3631
   96MOL   C36836658   3.607   0.262   2.991  0.3717 -0.5913  0.1303
   96MOL   C36936659   3.548   0.309   2.852  0.2604 -0.2702 -0.5027
   96MOL   C37036660   3.619   0.116   3.015 -0.8581 -0.3086 -0.3792
   96MOL   H37136661   3.938   0.520   3.296  0.5786 -2.0372 -0.6422
   96MOL   H37236662   4.074   0.568   3.212 -0.3793  0.2524  0.7832
   96MOL   H37336663   3.979   0.383   3.082 -0.6678 -0.7168  0.6700
   96MOL   H37436664   3.811   0.255   2.991 -1.1016 -1.7269 -0.6839
   96MOL   H37536665   3.534   0.300   3.062  0.5341  0.6654 -0.3598
   96MOL   H37636666   3.622   0.313   2.772  1.1797 -2.8651  0.1620
   96MOL   H37736667   3.470   0.242   2.818  0.0555 -0.3175  0.0528
   96MOL   H37836668   3.504   0.409   2.856  0.2916 -0.2219 -1.3293
   96MOL   H37936669   3.520   0.070   3.024 -1.0792  0.2704  0.1853
   96MOL   H38036670   3.662   0.067   2.928 -0.7423  0.4554 -0.7520
   96MOL   H38136671   3.680   0.100   3.104 -0.4377  1.6473 -0.3119
   96MOL   H38236672   3.937   0.521   2.994  3.0813  0.8517  1.4999
   97MOL     C136673   2.972   2.801   2.170  0.1221 -0.0837  0.0789
   97MOL     C236674   2.962   2.710   2.289 -0.0108 -0.1080 -0.0736
   97MOL     C336675   3.104   2.642   2.310  0.0430 -0.3909 -0.6162
   97MOL     O436676   3.196   2.716   2.343 -0.5535  0.1435 -0.2294
   97MOL     N536677   3.112   2.513   2.296 -0.3538  0.6709  0.0378
   97MOL     C636678   3.227   2.444   2.349  0.5008  1.0343 -0.1646
   97MOL     C736679   3.179   2.305   2.399  0.2682  0.2608  0.4211
   97MOL     C836680   3.329   2.424   2.234 -0.5243 -0.4152  0.0402
   97MOL     H936681   3.062   2.861   2.180  0.3180 -0.1996 -1.0221
   97MOL    H1036682   2.892   2.875   2.169 -2.0540 -2.3618  0.0983
   97MOL    H1136683   2.895   2.625   2.276  1.7861 -1.2007 -2.8428
   97MOL    H1236684   3.025   2.464   2.279  0.2945 -0.6499  0.4997
   97MOL    H1336685   3.285   2.499   2.423  1.8857 -0.5767 -0.0302
   97MOL    H1436686   3.257   2.259   2.459  0.8101 -0.2815 -0.7083
   97MOL    H1536687   3.165   2.233   2.319  2.7696  1.3093 -1.0117
   97MOL    H1636688   3.100   2.307   2.475  1.8283  1.1465  2.0745
   97MOL    H1736689   3.425   2.388   2.271 -0.1839 -1.9842 -2.2329
   97MOL    H1836690   3.292   2.353   2.160 -0.2157 -0.1955 -0.3310
   97MOL    H1936691   3.344   2.512   2.171 -0.3787  0.6975  1.6303
   97MOL    H2036692   2.972   2.745   2.077  0.7705 -1.6653  1.0024
   97MOL    C2136693   2.929   2.789   2.419  0.0938 -0.2802 -0.0508
   97MOL    C2236694   2.906   2.715   2.550  0.7498 -0.3080 -0.0516
   97MOL    C2336695   2.789   2.613   2.534 -0.4394  0.1630  0.7092
   97MOL    O2436696   2.678   2.657   2.527  0.6096 -0.1603  0.1882
   97MOL    N2536697   2.812   2.482   2.524 -0.5651  0.4357 -0.1766
   97MOL    C2636698   2.711   2.388   2.480 -0.6894  0.4875 -0.1207
   97MOL    C2736699   2.729   2.262   2.561  0.1932 -0.5387 -0.1047
   97MOL    C2836700   2.729   2.353   2.333 -0.0897  0.3128  0.7599
   97MOL    H2936701   2.843   2.855   2.403 -0.2288 -0.6432  0.1976
   97MOL    H3036702   3.013   2.858   2.431 -0.0233 -0.0712 -0.4084
   97MOL    H3136703   3.000   2.663   2.567  0.9308  0.6197  2.0218
   97MOL    H3236704   2.901   2.442   2.548 -0.3430  0.0760 -1.5744
   97MOL    H3336705   2.609   2.426   2.489 -1.4721 -1.1319 -2.0372
   97MOL    H3436706   2.817   2.209   2.526  1.2167  0.6275  0.6661
   97MOL    H3536707   2.644   2.196   2.543  0.0836 -0.9041  1.6470
   97MOL    H3636708   2.742   2.277   2.669 -0.0847 -0.6212 -0.0575
   97MOL    H3736709   2.651   2.288   2.292  2.2754 -1.0336 -1.7661
   97MOL    H3836710   2.711   2.444   2.275  2.6962 -0.2282 -1.0783
   97MOL    H3936711   2.824   2.316   2.294 -0.0126  1.6564 -0.3773
   97MOL    C4036712   2.889   2.816   2.668 -0.0131  0.1029  0.8130
   97MOL    C4136713   2.898   2.742   2.802 -0.4770  0.9361 -0.0369
   97MOL    C4236714   2.832   2.824   2.910  0.2964  0.3272  0.9077
   97MOL    O4336715   2.810   2.943   2.894 -0.7892  0.1891 -0.0139
   97MOL    N4436716   2.801   2.763   3.022 -0.0599 -0.1480 -0.0388
   97MOL    C4536717   2.758   2.837   3.140  0.2787  0.8812 -0.1202
   97MOL    C4636718   2.620   2.783   3.182 -0.6367 -0.1317 -0.4368
   97MOL    C4736719   2.852   2.816   3.257 -0.9246  0.0097 -0.1354
   97MOL    H4836720   2.789   2.860   2.659 -0.9278 -2.0813 -0.1400
   97MOL    H4936721   2.960   2.899   2.663  0.9935 -0.7380  1.0328
   97MOL    H5036722   2.834   2.654   2.796  0.1395  0.5593 -1.1832
   97MOL    H5136723   2.823   2.665   3.024 -0.6126 -0.2882 -0.8197
   97MOL    H5236724   2.740   2.944   3.130  1.8163  1.2753  1.1518
   97MOL    H5336725   2.630   2.680   3.217 -2.3771 -0.0726  0.2670
   97MOL    H5436726   2.559   2.781   3.091  0.0967  0.9615 -0.9591
   97MOL    H5536727   2.579   2.829   3.271  0.6155 -0.8771  0.5416
   97MOL    H5636728   2.952   2.860   3.258 -0.2841 -1.4174  0.5975
   97MOL    H5736729   2.877   2.709   3.258 -3.0145 -0.5318 -1.4218
   97MOL    H5836730   2.814   2.834   3.357  0.0648 -0.2161  0.2919
   97MOL    C5936731   3.034   2.697   2.837 -0.2133 -0.4330 -0.2238
   97MOL    C6036732   3.044   2.551   2.901 -0.0402  0.0595 -0.0416
   97MOL    C6136733   3.036   2.545   3.053 -0.2416 -0.6387 -0.3759
   97MOL    O6236734   2.933   2.516   3.103 -0.7129  0.2707  0.4840
   97MOL    N6336735   3.145   2.575   3.116 -0.1783  0.3490 -0.5128
   97MOL    C6436736   3.170   2.576   3.258 -0.1005 -0.6400 -0.3810
   97MOL    C6536737   3.198   2.435   3.306  0.7578 -0.8272  0.0129
   97MOL    C6636738   3.298   2.654   3.285 -0.3981  0.2371 -0.1441
   97MOL    H6736739   3.101   2.709   2.752  2.0649 -0.3713  1.5442
   97MOL    H6836740   3.073   2.770   2.908  1.8113  1.0942 -2.8142
   97MOL    H6936741   2.955   2.495   2.875 -1.1613  1.3570  0.9160
   97MOL    H7036742   3.222   2.604   3.058  2.0733 -3.6026  0.3456
   97MOL    H7136743   3.088   2.623   3.313  2.3219  0.1846  2.6979
   97MOL    H7236744   3.246   2.371   3.233 -0.3442  0.6155 -2.0517
   97MOL    H7336745   3.264   2.430   3.392 -0.1994  1.8453  0.9737
   97MOL    H7436746   3.109   2.382   3.341  0.9505 -1.1840 -0.0403
   97MOL    H7536747   3.385   2.610   3.235 -2.2391 -2.1964 -1.3153
   97MOL    H7636748   3.294   2.753   3.241  0.5583  0.5114  0.3656
   97MOL    H7736749   3.316   2.685   3.388  1.2906  0.3371 -0.4485
   97MOL    C7836750   3.160   2.478   2.823 -0.7083 -0.5358 -0.0650
   97MOL    C7936751   3.209   2.352   2.889  0.0876 -0.1286 -0.0861
   97MOL    C8036752   3.101   2.235   2.872  1.1700 -0.0782  0.1158
   97MOL    O8136753   3.081   2.187   2.762  0.2502  0.4383  0.0970
   97MOL    N8236754   3.042   2.187   2.982  0.1855  0.0194  0.2663
   97MOL    C8336755   2.945   2.081   2.989  0.2742  0.3118 -0.0514
   97MOL    C8436756   2.917   2.056   3.137  0.0053  0.5173 -0.0580
   97MOL    C8536757   2.814   2.111   2.920  0.1387 -0.0004  0.1710
   97MOL    H8636758   3.245   2.545   2.812 -0.1701 -1.1649  0.2361
   97MOL    H8736759   3.129   2.461   2.720  1.1096 -0.8276 -0.5855
   97MOL    H8836760   3.229   2.375   2.994  0.2945  2.0954 -0.5846
   97MOL    H8936761   3.062   2.223   3.074 -0.9029  1.9735 -0.2311
   97MOL    H9036762   2.994   1.991   2.950  1.4736  1.3871 -1.0683
   97MOL    H9136763   2.846   1.974   3.147  0.2899  0.1934 -0.6314
   97MOL    H9236764   3.006   2.024   3.192 -1.7181 -3.7398  0.4029
   97MOL    H9336765   2.875   2.146   3.181  0.2089  1.6975 -2.1792
   97MOL    H9436766   2.739   2.041   2.955  0.2820  1.0789  2.7535
   97MOL    H9536767   2.832   2.096   2.814 -1.2570 -0.9396  0.0511
   97MOL    H9636768   2.764   2.204   2.943 -0.9781 -0.3525 -0.8444
   97MOL    C9736769   3.345   2.302   2.835 -0.4540 -0.1076  1.2754
   97MOL    C9836770   3.411   2.183   2.908  0.3560  0.4098 -0.0630
   97MOL    C9936771   3.454   2.223   3.056 -0.1312 -0.2755  0.2024
   97MOL   O10036772   3.495   2.336   3.078  0.0193  0.3778 -0.5099
   97MOL   N10136773   3.448   2.131   3.156  0.0190 -0.4641 -0.4237
   97MOL   C10236774   3.483   2.162   3.297 -0.0346 -0.4404  0.2558
   97MOL   C10336775   3.412   2.061   3.385 -0.5481 -0.8516  0.3027
   97MOL   C10436776   3.633   2.148   3.321 -0.6593 -0.4878 -0.9529
   97MOL   H10536777   3.410   2.389   2.840 -4.0994  2.9196 -0.6715
   97MOL   H10636778   3.326   2.287   2.729  0.9458 -0.5845  1.0936
   97MOL   H10736779   3.337   2.103   2.912  1.2793 -0.4329  0.0462
   97MOL   H10836780   3.438   2.035   3.127 -0.5236  0.0943 -2.1050
   97MOL   H10936781   3.452   2.261   3.328 -0.3963 -0.7370  0.8539
   97MOL   H11036782   3.463   2.065   3.482  0.6209 -2.0560 -0.2460
   97MOL   H11136783   3.304   2.075   3.383 -0.3465  0.9546  1.2668
   97MOL   H11236784   3.442   1.957   3.373  1.2406 -0.2591 -0.4200
   97MOL   H11336785   3.677   2.217   3.248 -0.2941  0.9086  0.5544
   97MOL   H11436786   3.676   2.049   3.314 -0.3296 -0.1932 -3.9867
   97MOL   H11536787   3.653   2.180   3.423 -3.3278 -4.2594  0.8652
   97MOL   C11636788   3.527   2.118   2.830  0.3779  0.1421  0.2986
   97MOL   C11736789   3.493   1.976   2.782  0.5938 -0.7458  0.7877
   97MOL   C11836790   3.480   1.879   2.894  0.2071  0.2355  0.0475
   97MOL   O11936791   3.580   1.856   2.959 -0.3224  0.1720 -1.0853
   97MOL   N12036792   3.355   1.824   2.918 -0.2455  0.1972  0.4635
   97MOL   C12136793   3.329   1.724   3.032 -0.0090 -0.6691  0.9298
   97MOL   C12236794   3.306   1.785   3.174  0.0959 -0.0874  0.5045
   97MOL   C12336795   3.195   1.650   2.993 -0.0223 -0.5420 -0.3090
   97MOL   H12436796   3.617   2.112   2.892  1.6499 -1.2883 -1.6163
   97MOL   H12536797   3.544   2.188   2.747 -2.2227  1.8268  1.1117
   97MOL   H12636798   3.394   1.983   2.737  0.6852  0.0607  0.7107
   97MOL   H12736799   3.277   1.849   2.859  1.0973 -2.2126 -2.4574
   97MOL   H12836800   3.410   1.652   3.024  0.2228 -0.3936  0.7485
   97MOL   H12936801   3.247   1.874   3.192  0.2911  0.2694 -0.5801
   97MOL   H13036802   3.398   1.795   3.231  0.1409  0.9364  0.2466
   97MOL   H13136803   3.249   1.716   3.237  1.2495 -1.5677 -0.0269
   97MOL   H13236804   3.166   1.574   3.065 -2.8045 -0.4088 -1.2052
   97MOL   H13336805   3.108   1.716   2.983 -0.7025 -0.7410  3.3495
   97MOL   H13436806   3.198   1.604   2.894  0.6192  0.5669 -0.8127
   97MOL   C13536807   3.596   1.930   2.680  0.3989  0.2594  0.2234
   97MOL   C13636808   3.575   1.785   2.618 -0.3905 -0.2788 -0.7848
   97MOL   C13736809   3.430   1.750   2.578  0.3286 -0.1076  0.3521
   97MOL   O13836810   3.360   1.829   2.517  0.0220 -0.0520 -0.2515
   97MOL   N13936811   3.387   1.623   2.603  0.7316 -0.2868  0.2339
   97MOL   C14036812   3.249   1.586   2.569 -0.1005 -0.1423  0.7626
   97MOL   C14136813   3.219   1.450   2.646  0.1500  0.7262 -1.0366
   97MOL   C14236814   3.226   1.561   2.414 -0.0472  0.6662  0.1108
   97MOL   H14336815   3.689   1.926   2.738 -0.5945  1.4480  1.9240
   97MOL   H14436816   3.618   1.998   2.598 -2.7193  0.8366 -0.1953
   97MOL   H14536817   3.618   1.714   2.689 -2.4314 -1.4500 -0.6802
   97MOL   H14636818   3.440   1.558   2.659 -1.1976 -0.1113  2.3388
   97MOL   H14736819   3.179   1.662   2.602 -0.2945  0.6336 -1.3671
   97MOL   H14836820   3.113   1.436   2.668  0.4319 -1.6926 -1.0326
   97MOL   H14936821   3.255   1.361   2.594 -2.7808 -0.2885 -1.4328
   97MOL   H15036822   3.263   1.459   2.745  0.0316  0.0789 -0.9212
   97MOL   H15136823   3.255   1.655   2.368  2.1370  0.8324  1.7610
   97MOL   H15236824   3.125   1.533   2.384  0.0760 -1.2071  1.3696
   97MOL   H15336825   3.300   1.487   2.382 -0.6982  0.0023  0.1194
   97MOL   C15436826   3.679   1.763   2.503 -0.2018  0.1194  0.0919
   97MOL   C15536827   3.686   1.616   2.444  0.6344 -0.7774 -0.0284
   97MOL   C15636828   3.834   1.584   2.417 -0.6586 -0.5705 -0.5023
   97MOL   O15736829   3.895   1.644   2.332  0.2300  0.3564 -0.4546
   97MOL   N15836830   3.892   1.488   2.492  0.4962  0.0612  0.0411
   97MOL   C15936831   4.035   1.479   2.487 -0.5607  0.1665 -0.1166
   97MOL   C16036832   4.076   1.366   2.382 -0.0149  0.3970 -0.1106
   97MOL   C16136833   4.085   1.449   2.625  0.1199  0.1148 -0.4704
   97MOL   H16236834   3.779   1.792   2.533 -0.5685 -0.1812  1.6441
   97MOL   H16336835   3.657   1.827   2.417  0.9429 -1.8190 -1.6956
   97MOL   H16436836   3.639   1.552   2.520 -0.6457 -0.4560 -0.5384
   97MOL   H16536837   3.840   1.435   2.561  1.6743 -0.1952  0.7531
   97MOL   H16636838   4.086   1.569   2.453  0.5311 -0.3240  0.2028
   97MOL   H16736839   4.017   1.378   2.291  1.6804  0.0145 -1.2886
   97MOL   H16836840   4.180   1.368   2.349 -0.0663  1.4014 -0.2265
   97MOL   H16936841   4.078   1.263   2.418  0.8823  0.5429  0.2773
   97MOL   H17036842   4.046   1.521   2.697 -2.6989 -2.6645  0.9272
   97MOL   H17136843   4.193   1.435   2.633  0.0281  0.6498  1.9866
   97MOL   H17236844   4.038   1.358   2.663 -0.4569  0.1481 -1.0900
   97MOL   C17336845   3.609   1.600   2.305  0.1567 -0.6291 -0.6658
   97MOL   C17436846   3.628   1.467   2.229  0.1813  0.2379 -0.1951
   97MOL   C17536847   3.599   1.338   2.317  0.6222 -0.1801  0.4975
   97MOL   O17636848   3.485   1.297   2.328  0.5549 -0.1557 -0.3365
   97MOL   N17736849   3.697   1.274   2.376  0.1061 -0.3190 -0.4880
   97MOL   C17836850   3.671   1.161   2.463  0.1385  0.4264 -0.0924
   97MOL   C17936851   3.669   1.206   2.609  0.1214  0.8190 -0.7256
   97MOL   C18036852   3.782   1.066   2.438 -0.4026 -0.5117 -0.8437
   97MOL   H18136853   3.633   1.679   2.234  0.4033  1.7319  1.9680
   97MOL   H18236854   3.504   1.625   2.317 -0.0240 -0.0558 -3.1314
   97MOL   H18336855   3.734   1.452   2.209  0.4341 -1.9523  2.4350
   97MOL   H18436856   3.791   1.311   2.365  0.7247 -1.8512 -0.4215
   97MOL   H18536857   3.568   1.129   2.447 -0.5844  2.4959  0.2865
   97MOL   H18636858   3.616   1.299   2.626 -0.7489  1.0497 -4.3689
   97MOL   H18736859   3.768   1.215   2.654 -0.5740 -0.9113  1.2763
   97MOL   H18836860   3.621   1.123   2.662  0.2235  1.1030 -0.1842
   97MOL   H18936861   3.869   1.132   2.435 -0.7753  0.0274  0.0826
   97MOL   H19036862   3.771   1.030   2.336 -1.6271  0.2707 -0.9895
   97MOL   H19136863   3.789   0.980   2.505  1.0500  1.1716  1.2254
   97MOL   C19236864   3.559   1.467   2.082 -0.2548  0.2544 -0.8466
   97MOL   C19336865   3.578   1.334   2.001  0.7469 -0.5674  0.0561
   97MOL   C19436866   3.724   1.309   1.959 -0.4961 -0.4121  0.0499
   97MOL   O19536867   3.784   1.397   1.897 -0.6907 -0.3444 -0.0233
   97MOL   N19636868   3.781   1.201   2.007 -0.1542  0.6293 -0.6113
   97MOL   C19736869   3.923   1.168   1.979 -0.1948 -0.0722  0.3623
   97MOL   C19836870   3.976   1.111   2.111 -0.4849  0.0618  0.6645
   97MOL   C19936871   3.924   1.064   1.861  0.6595  0.2004  0.2847
   97MOL   H20036872   3.594   1.547   2.017  3.3443 -1.4045 -1.0491
   97MOL   H20136873   3.452   1.486   2.093 -0.2238  0.8008 -1.4401
   97MOL   H20236874   3.539   1.261   2.073  0.4855  1.6947  2.2941
   97MOL   H20336875   3.722   1.155   2.074  0.5902 -1.2804 -1.2360
   97MOL   H20436876   3.985   1.252   1.948  0.2657 -0.8370 -0.8168
   97MOL   H20536877   3.959   1.177   2.196 -0.8451  0.6473  0.1454
   97MOL   H20636878   4.081   1.098   2.086 -0.2692 -1.4468  2.3134
   97MOL   H20736879   3.950   1.008   2.136 -0.0129 -0.7276 -1.9225
   97MOL   H20836880   4.024   1.030   1.833 -0.2810 -2.5798  0.1673
   97MOL   H20936881   3.874   1.099   1.771 -0.4766 -3.5845 -0.6598
   97MOL   H21036882   3.857   0.986   1.897  1.7698 -0.6720  0.4817
   97MOL   C21136883   3.481   1.339   1.877  0.5455  0.1236 -0.4045
   97MOL   C21236884   3.378   1.226   1.855 -0.2328 -0.7955 -0.6912
   97MOL   C21336885   3.263   1.225   1.953  0.7804  0.8841 -0.1943
   97MOL   O21436886   3.251   1.125   2.026 -0.0401  0.2188  0.2332
   97MOL   N21536887   3.176   1.328   1.953 -0.0276 -0.8151  0.1205
   97MOL   C21636888   3.075   1.351   2.057 -0.6136  0.2643 -0.4758
   97MOL   C21736889   2.940   1.288   2.012 -0.1688  0.5741 -0.6654
   97MOL   C21836890   3.066   1.499   2.093 -0.2458  0.3163  1.0972
   97MOL   H21936891   3.539   1.348   1.785 -0.0898 -0.9611 -0.9168
   97MOL   H22036892   3.425   1.433   1.879  0.2050 -0.0901  0.0740
   97MOL   H22136893   3.435   1.140   1.891  0.9072  1.1957  2.4364
   97MOL   H22236894   3.181   1.397   1.880 -1.8217  0.6209  1.3450
   97MOL   H22336895   3.112   1.301   2.146  3.5882  1.0129 -1.6647
   97MOL   H22436896   2.866   1.274   2.091  0.4311  1.3687  0.0291
   97MOL   H22536897   2.892   1.342   1.931  0.2785  1.6711 -0.1976
   97MOL   H22636898   2.956   1.193   1.961 -0.7034  0.2170 -0.1803
   97MOL   H22736899   3.031   1.553   2.005 -0.0566 -0.6871  0.4057
   97MOL   H22836900   3.166   1.541   2.104 -0.4214  0.7311  1.1096
   97MOL   H22936901   3.015   1.515   2.188 -0.1057  1.5467  0.9750
   97MOL   C23036902   3.319   1.215   1.707  0.6500  0.5126  0.1136
   97MOL   C23136903   3.228   1.321   1.639  0.0537 -0.0141  0.0413
   97MOL   C23236904   3.260   1.471   1.675  0.3069 -0.2693  0.1821
   97MOL   O23336905   3.186   1.534   1.744 -0.3913 -0.2030  0.2490
   97MOL   N23436906   3.368   1.524   1.616  0.8535 -0.3997  0.1220
   97MOL   C23536907   3.415   1.667   1.626 -0.6862 -0.5068  0.0115
   97MOL   C23636908   3.560   1.664   1.671 -0.1383 -0.5843 -0.1921
   97MOL   C23736909   3.404   1.730   1.489  0.8883 -0.3069 -0.1424
   97MOL   H23836910   3.264   1.121   1.698  0.6402  0.5037  0.2692
   97MOL   H23936911   3.402   1.190   1.641  1.8396  0.9266  1.4338
   97MOL   H24036912   3.128   1.301   1.678 -0.5555  1.8899 -0.4621
   97MOL   H24136913   3.414   1.466   1.547  2.8147 -0.2694  1.2795
   97MOL   H24236914   3.350   1.717   1.698 -2.5364 -1.8442 -0.6846
   97MOL   H24336915   3.627   1.611   1.604  0.5326  1.3467 -1.0878
   97MOL   H24436916   3.607   1.762   1.675  0.3843 -0.7452 -2.1267
   97MOL   H24536917   3.571   1.624   1.772 -0.9406 -0.2839  0.0251
   97MOL   H24636918   3.444   1.653   1.423  1.1499 -0.7969  0.5890
   97MOL   H24736919   3.459   1.823   1.475  2.8607 -1.0763  2.2654
   97MOL   H24836920   3.298   1.737   1.463  1.2626 -0.7359 -1.8315
   97MOL   C24936921   3.201   1.304   1.482  0.2525  0.4925  0.2655
   97MOL   C25036922   3.107   1.391   1.403 -0.1023 -0.4062  0.1819
   97MOL   C25136923   2.962   1.372   1.449 -0.6796 -0.1507 -0.3808
   97MOL   O25236924   2.896   1.283   1.392  0.1832 -0.1906  0.1434
   97MOL   N25336925   2.899   1.460   1.533 -0.2780 -0.3551  0.1201
   97MOL   C25436926   2.773   1.436   1.594  0.1368  0.3205  0.4226
   97MOL   C25536927   2.762   1.525   1.717  0.3875 -0.2257 -0.3081
   97MOL   C25636928   2.646   1.443   1.505  0.3169 -1.1167  0.6362
   97MOL   H25736929   3.178   1.199   1.468 -1.4592  0.9933 -0.9420
   97MOL   H25836930   3.299   1.325   1.438 -0.5895  0.7855 -1.5121
   97MOL   H25936931   3.123   1.497   1.425 -0.4020 -0.3188 -0.0218
   97MOL   H26036932   2.953   1.539   1.567 -1.1291  1.3997 -2.3796
   97MOL   H26136933   2.771   1.333   1.630 -2.3976  0.0811 -0.3069
   97MOL   H26236934   2.670   1.495   1.767  1.0191 -2.0057 -0.1808
   97MOL   H26336935   2.842   1.510   1.788  1.9240  0.1241 -1.9280
   97MOL   H26436936   2.760   1.632   1.700  1.6047  0.1365  1.7160
   97MOL   H26536937   2.637   1.533   1.444 -0.1565 -1.2899  0.4432
   97MOL   H26636938   2.653   1.366   1.428  2.3130  0.9136 -1.2845
   97MOL   H26736939   2.552   1.434   1.560 -0.5909 -1.6215 -0.9598
   97MOL   C26836940   3.133   1.370   1.249  0.5458 -0.2062 -0.0968
   97MOL   C26936941   3.073   1.474   1.143  0.0432 -0.1432  0.1607
   97MOL   C27036942   3.140   1.613   1.142 -0.4594  0.3308  0.0804
   97MOL   O27136943   3.264   1.628   1.162 -0.4142  0.1261 -0.1394
   97MOL   N27236944   3.055   1.715   1.119 -0.9956  0.3249  0.3213
   97MOL   C27336945   3.086   1.843   1.057 -0.8197 -0.4307 -0.3542
   97MOL   C27436946   2.965   1.898   0.985 -0.5947  0.3255 -1.0881
   97MOL   C27536947   3.133   1.938   1.170  1.0599 -0.8230 -0.2500
   97MOL   H27636948   3.240   1.375   1.234  0.3634 -0.2973 -1.5551
   97MOL   H27736949   3.093   1.271   1.223 -0.8065  0.3418 -0.1292
   97MOL   H27836950   2.972   1.488   1.183 -0.0321 -0.9146  0.2493
   97MOL   H27936951   2.957   1.689   1.119 -0.8990 -0.0650 -0.2750
   97MOL   H28036952   3.165   1.837   0.983 -0.7503 -1.0640 -0.2295
   97MOL   H28136953   2.975   2.004   0.965 -0.2891  0.0830 -2.2781
   97MOL   H28236954   2.945   1.853   0.888  0.0189  0.0544 -1.0918
   97MOL   H28336955   2.875   1.889   1.046  2.5733  0.6445  3.9569
   97MOL   H28436956   3.222   1.891   1.211  0.3401 -1.2964  0.7950
   97MOL   H28536957   3.158   2.037   1.133 -0.6489 -0.0443  0.6374
   97MOL   H28636958   3.058   1.944   1.249  1.3431  1.2784 -0.1276
   97MOL   C28736959   3.044   1.409   1.005 -0.0018 -0.0720 -0.5584
   97MOL   C28836960   2.892   1.399   0.956 -0.2555 -0.4487 -0.4157
   97MOL   C28936961   2.823   1.536   0.937 -0.7063  0.5687  0.2958
   97MOL   O29036962   2.809   1.608   1.032 -0.1597  0.1478  0.0882
   97MOL   N29136963   2.772   1.570   0.821 -0.5747 -0.3330  0.5801
   97MOL   C29236964   2.686   1.692   0.792 -0.2453  0.3847 -0.1225
   97MOL   C29336965   2.721   1.770   0.667  0.4212 -0.3296 -0.1458
   97MOL   C29436966   2.537   1.668   0.811  0.0555 -0.1019  0.0271
   97MOL   H29536967   3.105   1.456   0.927  0.4209 -0.9962 -0.7937
   97MOL   H29636968   3.092   1.312   1.002  1.3973  0.6283 -2.0707
   97MOL   H29736969   2.905   1.355   0.858 -0.6484 -0.2997 -0.5373
   97MOL   H29836970   2.779   1.515   0.736  1.5427  1.3436 -0.3871
   97MOL   H29936971   2.704   1.765   0.871 -1.0087 -0.1113  0.5276
   97MOL   H30036972   2.690   1.875   0.669  0.7148 -0.2586  2.7355
   97MOL   H30136973   2.828   1.761   0.648  0.2750  0.7791 -1.5381
   97MOL   H30236974   2.676   1.720   0.581  1.8966 -0.1908 -1.0189
   97MOL   H30336975   2.510   1.571   0.853 -0.1612 -0.2012 -0.3428
   97MOL   H30436976   2.492   1.747   0.871 -2.1585 -1.2043 -0.1405
   97MOL   H30536977   2.502   1.675   0.708 -1.8121 -0.3227  0.6248
   97MOL   C30636978   2.819   1.298   1.050  0.1824  0.4842  0.6305
   97MOL   C30736979   2.861   1.149   1.062 -0.3690  0.2163 -0.1707
   97MOL   C30836980   2.872   1.076   0.931 -0.2407 -0.4669  0.6885
   97MOL   O30936981   2.767   1.063   0.869 -0.1748  0.6552  0.6790
   97MOL   N31036982   2.994   1.024   0.892  0.0401 -0.6960 -0.1766
   97MOL   C31136983   3.025   0.952   0.775 -0.1592  0.2423  0.4935
   97MOL   C31236984   3.145   1.025   0.711  0.1303  0.4474 -0.2821
   97MOL   C31336985   3.055   0.810   0.807  0.4679 -0.3911  0.0656
   97MOL   H31436986   2.801   1.346   1.146 -0.6611  0.3996  0.5190
   97MOL   H31536987   2.720   1.298   1.005  1.2632  3.5532 -1.9571
   97MOL   H31636988   2.962   1.165   1.099 -0.9176  0.9138  1.0389
   97MOL   H31736989   3.069   1.025   0.958 -1.0706  0.0097  1.1080
   97MOL   H31836990   2.941   0.940   0.707  1.1203  1.7020 -1.4397
   97MOL   H31936991   3.241   1.002   0.757 -0.9380 -3.0244  0.3840
   97MOL   H32036992   3.121   1.131   0.715 -2.3839 -0.1070  0.1483
   97MOL   H32136993   3.145   0.985   0.609 -1.1994 -3.0943  1.0157
   97MOL   H32236994   3.039   0.742   0.723  2.1067 -1.7858  0.8428
   97MOL   H32336995   2.984   0.778   0.883  0.9627 -0.4457  0.5043
   97MOL   H32436996   3.155   0.803   0.849  0.9020 -3.0577 -1.3412
   97MOL   C32536997   2.766   1.083   1.169  0.2605  0.0564 -0.0196
   97MOL   C32636998   2.839   0.984   1.264  0.3788  0.3029 -0.0509
   97MOL   C32736999   2.751   0.958   1.386  0.4844 -0.1110 -0.3092
   97MOL   O32837000   2.670   0.860   1.383 -0.6723  0.0472  0.3479
   97MOL   N32937001   2.761   1.045   1.489  0.0884 -0.0473 -0.7238
   97MOL   C33037002   2.689   1.032   1.611 -0.3991 -0.1667 -0.7810
   97MOL   C33137003   2.553   1.105   1.627 -0.1719 -0.3340  0.8581
   97MOL   C33237004   2.781   1.048   1.730 -0.0863  0.1096 -0.9001
   97MOL   H33337005   2.680   1.034   1.123  2.3133 -0.6627 -3.2624
   97MOL   H33437006   2.717   1.163   1.224 -0.3844 -0.6638  0.4607
   97MOL   H33537007   2.936   1.024   1.294  1.1783 -1.4004 -0.3101
   97MOL   H33637008   2.836   1.111   1.476  1.1804 -0.6758  2.0617
   97MOL   H33737009   2.654   0.928   1.616  3.2212 -1.4219 -0.1309
   97MOL   H33837010   2.525   1.108   1.733 -0.4721 -1.5797  0.8145
   97MOL   H33937011   2.564   1.208   1.593  1.0649  0.1316  2.5880
   97MOL   H34037012   2.470   1.061   1.573  0.2346 -1.0931  0.8376
   97MOL   H34137013   2.845   1.136   1.722 -2.8677  2.3480  0.7344
   97MOL   H34237014   2.845   0.961   1.745  0.9681  0.8556 -0.9945
   97MOL   H34337015   2.719   1.062   1.818  0.7505  1.0438 -0.4480
   97MOL   C34437016   2.899   0.852   1.203  0.4416 -0.0006  0.6065
   97MOL   C34537017   3.000   0.766   1.286  0.5294 -0.1936  1.0533
   97MOL   C34637018   2.962   0.617   1.287  0.1505 -0.1533  0.2282
   97MOL   O34737019   3.045   0.533   1.251  0.6740  0.1980 -0.1192
   97MOL   N34837020   2.842   0.588   1.336 -0.3397  0.0117  0.2852
   97MOL   C34937021   2.779   0.456   1.349  0.3164 -0.3429 -0.1105
   97MOL   C35037022   2.644   0.479   1.417 -0.1386 -0.0008  0.7638
   97MOL   C35137023   2.770   0.384   1.217 -0.3268  0.2062 -0.1069
   97MOL   H35237024   2.957   0.881   1.115 -1.8494  3.8642  0.2558
   97MOL   H35337025   2.816   0.787   1.176  0.0078 -0.2225  2.3873
   97MOL   H35437026   2.996   0.809   1.386 -4.6437  0.7986  0.5598
   97MOL   H35537027   2.786   0.667   1.361 -0.9574 -0.6161  0.9131
   97MOL   H35637028   2.844   0.403   1.418 -0.4149 -3.4877 -1.7199
   97MOL   H35737029   2.614   0.379   1.447 -2.5849  1.0426  1.9000
   97MOL   H35837030   2.651   0.531   1.512 -0.3658  1.9183 -0.2457
   97MOL   H35937031   2.571   0.533   1.357 -0.0952  0.4015  1.0663
   97MOL   H36037032   2.864   0.337   1.188  0.1261 -1.1507  3.3306
   97MOL   H36137033   2.689   0.314   1.198  3.0508 -3.9591  0.1196
   97MOL   H36237034   2.754   0.455   1.135  0.4074 -0.8154 -1.1554
   97MOL   C36337035   3.147   0.792   1.248 -0.2682  0.2009  0.1063
   97MOL   C36437036   3.248   0.732   1.347 -0.8433  0.5668 -1.1595
   97MOL   C36537037   3.280   0.814   1.470 -0.1458  0.5461  0.0558
   97MOL   O36637038   3.296   0.934   1.454 -0.2981  0.2245 -0.1984
   97MOL   N36737039   3.305   0.743   1.587 -0.6334 -0.2418  0.3538
   97MOL   C36837040   3.350   0.793   1.720  0.2496  0.4458  0.1777
   97MOL   C36937041   3.244   0.797   1.833  0.1144 -0.1526 -0.9601
   97MOL   C37037042   3.475   0.712   1.753 -0.3931  0.7216 -0.2253
   97MOL   H37137043   3.171   0.898   1.242 -0.2056  0.1830  0.0535
   97MOL   H37237044   3.166   0.739   1.155  1.8462  0.8504  0.1445
   97MOL   H37337045   3.340   0.722   1.289 -0.3834 -1.6855 -0.0946
   97MOL   H37437046   3.296   0.642   1.595  1.3369 -0.2629  3.2156
   97MOL   H37537047   3.379   0.895   1.693 -4.2406  1.4400 -1.4193
   97MOL   H37637048   3.172   0.873   1.806  0.9086  1.4812  1.3508
   97MOL   H37737049   3.202   0.699   1.856  2.4890 -1.2518 -1.1063
   97MOL   H37837050   3.292   0.840   1.922 -1.0009 -1.7929  0.4831
   97MOL   H37937051   3.451   0.613   1.791  0.9337  0.2790 -0.5287
   97MOL   H38037052   3.545   0.705   1.670 -0.0414  0.5663  0.0774
   97MOL   H38137053   3.535   0.772   1.822  2.0180 -2.8057  0.8859
   97MOL   H38237054   3.222   0.633   1.383  1.0146 -0.3525 -2.2373
   98MOL     C137055   7.290   4.595   7.392 -0.1674 -0.1080 -0.3630
   98MOL     C237056   7.365   4.461   7.412 -0.4638  0.0027 -0.2271
   98MOL     C337057   7.275   4.343   7.382  0.6902  0.0026  0.1771
   98MOL     O437058   7.241   4.318   7.269 -0.2251  0.1947  0.1111
   98MOL     N537059   7.247   4.257   7.483 -0.0238 -0.4644 -0.6412
   98MOL     C637060   7.181   4.129   7.485  0.5725 -0.0303 -0.0680
   98MOL     C737061   7.271   4.007   7.440  0.0638 -0.2127 -0.0525
   98MOL     C837062   7.131   4.105   7.628  0.3394 -0.3167  0.4253
   98MOL     H937063   7.274   4.619   7.287  2.2909  1.1772 -0.4825
   98MOL    H1037064   7.341   4.678   7.440 -1.0409 -0.0343  0.4636
   98MOL    H1137065   7.388   4.464   7.518  0.5135  1.7327 -0.4725
   98MOL    H1237066   7.265   4.295   7.575  0.2397 -1.4977 -0.2589
   98MOL    H1337067   7.087   4.123   7.429  0.3529  0.0690  0.2850
   98MOL    H1437068   7.200   3.925   7.433 -0.4039  0.1388  0.5582
   98MOL    H1537069   7.353   3.981   7.507  0.0626 -1.2240 -0.4253
   98MOL    H1637070   7.321   4.022   7.344  2.0546 -0.3424  0.9601
   98MOL    H1737071   7.083   4.008   7.641 -1.2363  0.4346  0.2937
   98MOL    H1837072   7.216   4.112   7.695 -0.3162 -2.0561  1.4738
   98MOL    H1937073   7.073   4.192   7.660 -0.3638 -1.1728  1.5083
   98MOL    H2037074   7.200   4.592   7.453  1.2191  0.8938  1.7849
   98MOL    C2137075   7.499   4.457   7.339 -0.0157 -0.4620 -1.0693
   98MOL    C2237076   7.582   4.332   7.360 -0.9519 -0.1034 -0.7174
   98MOL    C2337077   7.608   4.300   7.506  0.3081 -0.1075 -0.7728
   98MOL    O2437078   7.644   4.391   7.578 -0.2113  0.3845 -0.6816
   98MOL    N2537079   7.583   4.173   7.553  0.1899 -0.9099  0.3821
   98MOL    C2637080   7.598   4.128   7.695  0.1778  0.8145  0.3578
   98MOL    C2737081   7.744   4.127   7.741 -0.1152 -0.1053 -0.0401
   98MOL    C2837082   7.534   3.990   7.719 -0.0771 -0.3573 -0.2620
   98MOL    H2937083   7.553   4.549   7.361  1.3404 -1.3149 -0.7422
   98MOL    H3037084   7.470   4.467   7.235 -0.3204  1.3175 -0.8228
   98MOL    H3137085   7.516   4.252   7.326 -0.9185 -0.2968 -0.3314
   98MOL    H3237086   7.557   4.099   7.489  0.2189  0.1409 -0.8519
   98MOL    H3337087   7.556   4.212   7.750 -0.4173  1.0855 -0.5169
   98MOL    H3437088   7.805   4.052   7.689  1.2475  0.4895  0.6744
   98MOL    H3537089   7.746   4.087   0.006 -0.5839  0.8841  0.3647
   98MOL    H3637090   7.790   4.225   7.730  0.4903 -0.4032 -0.1863
   98MOL    H3737091   7.568   3.907   7.657  1.9116 -0.2988  0.6780
   98MOL    H3837092   7.546   3.960   7.823  1.7667 -1.0339 -0.6507
   98MOL    H3937093   7.427   3.990   7.699  0.1537  0.3183 -1.4782
   98MOL    C4037094   7.715   4.348   7.285 -0.4360 -1.0209 -0.2380
   98MOL    C4137095   7.724   4.338   7.132  0.4577 -0.6624  0.4370
   98MOL    C4237096   7.673   4.196   7.095 -0.6113  0.0281 -0.1755
   98MOL    O4337097   7.746   4.097   7.098 -0.6442  0.5189  0.1038
   98MOL    N4437098   7.548   4.180   7.065  0.3271  0.6349 -0.3722
   98MOL    C4537099   7.484   4.078   6.985 -0.3822  0.2242 -0.3175
   98MOL    C4637100   7.342   4.057   7.037  0.7659 -0.1624  0.0092
   98MOL    C4737101   7.480   4.125   6.837 -0.0114 -0.1682 -0.0869
   98MOL    H4837102   7.786   4.274   7.324 -0.5277  0.7761  3.5685
   98MOL    H4937103   7.751   4.448   7.309 -1.6547 -1.0202  1.6763
   98MOL    H5037104   7.652   4.410   7.092  0.3911 -0.0107  1.7006
   98MOL    H5137105   7.486   4.254   7.094  2.2816  2.8649 -1.6743
   98MOL    H5237106   7.550   3.993   6.999  1.3233  1.5139 -0.4016
   98MOL    H5337107   7.344   4.055   7.146 -0.0801  0.8321  0.0508
   98MOL    H5437108   7.298   3.961   7.009 -0.6972  0.1831  1.0284
   98MOL    H5537109   7.275   4.139   7.011  0.3310 -1.0038 -1.6161
   98MOL    H5637110   7.580   4.110   6.796 -0.9894  1.4950 -3.2895
   98MOL    H5737111   7.441   4.225   6.821 -1.2035 -0.5967  0.1041
   98MOL    H5837112   7.423   4.055   6.775  1.8781 -0.3422 -1.6747
   98MOL    C5937113   0.029   4.355   7.076  0.6669  0.7190 -0.0732
   98MOL    C6037114   0.047   4.334   6.920 -0.3687  0.0945 -0.7085
   98MOL    C6137115   0.190   4.386   6.876 -0.0556 -0.0689  0.2434
   98MOL    O6237116   0.216   4.502   6.898  0.0040  0.0008  0.0353
   98MOL    N6337117   0.274   4.306   6.800  0.2633  0.3674 -0.3687
   98MOL    C6437118   0.381   4.353   6.719  0.6850 -0.4405 -0.1970
   98MOL    C6537119   0.493   4.252   6.709 -0.2002  0.1806  0.0121
   98MOL    C6637120   0.345   4.376   6.571 -0.1192  0.2932  0.3246
   98MOL    H6737121   0.075   4.448   7.111  1.0274  1.2268 -1.8197
   98MOL    H6837122   0.098   4.287   7.126  0.4774  0.5821  0.0033
   98MOL    H6937123   0.047   4.228   6.898  0.1004 -0.5347  2.0790
   98MOL    H7037124   0.242   4.213   6.777 -1.5750  0.7252  0.6551
   98MOL    H7137125   0.423   4.446   6.758  1.3666 -0.2095 -1.4488
   98MOL    H7237126   0.532   4.246   6.811 -0.7017  1.2842  0.2762
   98MOL    H7337127   0.466   4.150   6.681  2.8716 -0.4746 -0.6912
   98MOL    H7437128   0.574   4.292   6.648 -1.0479  1.6961 -0.1626
   98MOL    H7537129   0.324   4.284   6.517  0.4327  0.6050 -0.4290
   98MOL    H7637130   0.257   4.437   6.549  0.0952  0.4492 -0.1186
   98MOL    H7737131   0.428   4.425   6.518  0.8988 -0.0695  1.5661
   98MOL    C7837132   7.770   4.393   6.839  0.4789 -0.3955 -0.2718
   98MOL    C7937133   7.752   4.549   6.838 -0.1811 -0.4567 -0.0588
   98MOL    C8037134   7.817   4.609   6.710  0.5981 -0.0154 -0.5150
   98MOL    O8137135   7.764   4.594   6.600 -0.0158  0.0682 -0.1677
   98MOL    N8237136   0.096   4.675   6.724 -0.3788  0.0887  0.2728
   98MOL    C8337137   0.158   4.750   6.621  0.2980 -0.5697  0.0193
   98MOL    C8437138   0.075   4.880   6.598 -0.9075 -0.6281 -0.2259
   98MOL    C8537139   0.302   4.776   6.641  0.0724  0.1376  0.5853
   98MOL    H8637140   7.676   4.342   6.859 -0.7311  1.5159 -1.0480
   98MOL    H8737141   7.798   4.365   6.737  2.1289  1.6916 -0.4267
   98MOL    H8837142   7.799   4.586   6.929  1.0571 -1.6018 -0.2266
   98MOL    H8937143   0.142   4.682   6.814  0.9059  2.0288 -0.4920
   98MOL    H9037144   0.151   4.684   6.534 -1.7194  0.3877 -0.5770
   98MOL    H9137145   0.110   4.947   6.519 -1.8730  1.0135  0.6909
   98MOL    H9237146   7.804   4.868   6.584 -0.7474  0.7906 -3.1207
   98MOL    H9337147   0.083   4.943   6.687 -1.6291 -0.3381 -0.3643
   98MOL    H9437148   0.343   4.852   6.576 -1.8282  0.2074 -0.5940
   98MOL    H9537149   0.359   4.683   6.639 -0.4447 -0.1794  0.3797
   98MOL    H9637150   0.312   4.817   6.742 -1.8699  1.1074  0.4176
   98MOL    C9737151   7.602   4.577   6.852  0.4277  0.4072 -0.7719
   98MOL    C9837152   7.558   4.721   6.872  0.2222 -0.5332 -0.1262
   98MOL    C9937153   7.621   4.781   6.993  0.4971 -0.8339  0.4919
   98MOL   O10037154   7.647   4.718   7.095 -0.4638  0.5425 -0.0417
   98MOL   N10137155   7.647   4.907   6.968 -0.3737  0.3727  0.1404
   98MOL   C10237156   7.708   4.999   7.062  0.3384  0.3836 -0.2732
   98MOL   C10337157   7.817   5.076   6.979  0.5051  0.3064 -0.8331
   98MOL   C10437158   7.610   5.092   7.131 -0.2467 -0.2122 -0.2172
   98MOL   H10537159   7.557   4.510   6.924  2.7619 -0.3887 -0.0183
   98MOL   H10637160   7.556   4.547   6.757 -1.4887  0.9146 -0.0355
   98MOL   H10737161   7.584   4.784   6.787  2.4506 -0.1836  0.7595
   98MOL   H10837162   7.618   4.945   6.880 -1.0128 -0.1836  0.1011
   98MOL   H10937163   7.766   4.952   7.141 -0.9481 -2.0447 -0.6922
   98MOL   H11037164   7.771   5.159   6.926 -1.6045 -1.0869 -1.2480
   98MOL   H11137165   0.052   5.126   7.044 -0.1125  0.7237 -0.4751
   98MOL   H11237166   0.053   5.019   6.920 -0.7672  1.1854 -3.2785
   98MOL   H11337167   7.660   5.166   7.194  0.3226 -0.9362  0.1843
   98MOL   H11437168   7.544   5.031   7.191  0.7314 -0.6539  0.4213
   98MOL   H11537169   7.545   5.154   7.069  1.4847  1.8011 -0.0717
   98MOL   C11637170   7.401   4.725   6.888  0.3514 -0.3842 -0.3657
   98MOL   C11737171   7.305   4.844   6.841  0.6511  0.0366 -0.6528
   98MOL   C11837172   7.159   4.795   6.839  0.1226 -0.0377 -0.0259
   98MOL   O11937173   7.129   4.704   6.767  0.1685  0.0324  0.9814
   98MOL   N12037174   7.060   4.857   6.901 -0.0986 -0.2118  0.4473
   98MOL   C12137175   6.918   4.828   6.880 -0.1138  0.0593 -0.5985
   98MOL   C12237176   6.870   4.711   6.968  0.0458  0.2925  0.4711
   98MOL   C12337177   6.845   4.964   6.903 -0.0931  0.5457 -0.0028
   98MOL   H12437178   7.380   4.704   6.993 -0.5720  0.9249 -0.2839
   98MOL   H12537179   7.355   4.637   6.844 -1.7834 -1.2060  3.2570
   98MOL   H12637180   7.321   4.922   6.914 -1.7773 -0.6816  0.6969
   98MOL   H12737181   7.080   4.940   6.955  2.1591  0.0504 -0.7511
   98MOL   H12837182   6.905   4.792   6.778  1.6199 -1.2019 -0.4053
   98MOL   H12937183   6.762   4.719   6.986 -0.0979 -1.5821  0.5171
   98MOL   H13037184   6.926   4.712   7.062 -0.2424  0.0240  0.6453
   98MOL   H13137185   6.886   4.612   6.925  0.0557 -0.9909  3.2932
   98MOL   H13237186   6.827   4.983   7.009  2.8480 -2.6295  1.1504
   98MOL   H13337187   6.901   5.044   6.854  1.7964  0.3865  1.8247
   98MOL   H13437188   6.747   4.952   6.855 -0.9274  1.0908  1.5382
   98MOL   C13537189   7.345   4.913   6.703 -0.0256 -0.1028  0.6814
   98MOL   C13637190   7.233   5.002   6.639  0.8824 -0.2205 -0.3896
   98MOL   C13737191   7.185   5.122   6.728 -0.4584 -0.0524 -0.7164
   98MOL   O13837192   7.268   5.166   6.814 -0.1862 -0.0390 -0.6037
   98MOL   N13937193   7.069   5.182   6.700 -0.2024  0.2999 -0.2305
   98MOL   C14037194   7.036   5.308   6.758  0.3482 -0.6759  0.8055
   98MOL   C14137195   6.999   5.291   6.911 -0.4434  0.2355  0.3035
   98MOL   C14237196   6.917   5.377   6.683  0.3047  0.3145  0.0231
   98MOL   H14337197   7.371   4.828   6.641 -0.2889  1.8714 -2.2109
   98MOL   H14437198   7.435   4.973   6.717  0.0144  0.5139 -2.0943
   98MOL   H14537199   7.137   4.951   6.629  1.7972 -2.1127  0.1736
   98MOL   H14637200   7.004   5.139   6.636 -0.7015 -0.4160  0.7542
   98MOL   H14737201   7.118   5.379   6.764  0.7164 -1.0627  0.3669
   98MOL   H14837202   6.978   5.389   6.956 -2.4404 -0.9826  2.0981
   98MOL   H14937203   6.911   5.230   6.931 -0.5886 -0.2803 -1.8583
   98MOL   H15037204   7.082   5.249   6.968 -2.1775  1.2025  3.6926
   98MOL   H15137205   6.821   5.330   6.702  0.9730 -0.3961  1.6993
   98MOL   H15237206   6.927   5.390   6.575 -0.5438 -0.2323 -0.1267
   98MOL   H15337207   6.906   5.478   6.723  1.0843  0.6468 -0.5735
   98MOL   C15437208   7.278   5.056   6.497 -0.0949  0.4924  0.1024
   98MOL   C15537209   7.389   5.172   6.483  0.2864  0.5499 -0.4819
   98MOL   C15637210   7.342   5.317   6.515  0.3111 -0.2454 -0.2454
   98MOL   O15737211   7.239   5.357   6.465 -0.0714  0.0984 -0.0528
   98MOL   N15837212   7.427   5.388   6.594  0.6508 -0.1377  0.2077
   98MOL   C15937213   7.405   5.518   6.662  0.1289 -0.2905 -0.0637
   98MOL   C16037214   7.471   5.630   6.590 -0.3872  0.2718 -0.2961
   98MOL   C16137215   7.448   5.514   6.808 -0.1091 -0.1866 -0.2240
   98MOL   H16237216   7.190   5.090   6.443  1.2471  0.6058 -2.0443
   98MOL   H16337217   7.297   4.964   6.442 -0.8741 -0.3831  1.2511
   98MOL   H16437218   7.462   5.139   6.558  0.3769  1.3083 -0.2357
   98MOL   H16537219   7.503   5.338   6.639  1.6219 -0.0767 -1.3190
   98MOL   H16637220   7.300   5.550   6.664  0.6641  1.5468 -1.0057
   98MOL   H16737221   7.420   5.664   6.500  0.1022  0.0656 -0.6572
   98MOL   H16837222   7.478   5.723   6.646 -4.4479 -0.1479  1.0613
   98MOL   H16937223   7.569   5.602   6.551  0.0224 -0.8976  1.5084
   98MOL   H17037224   7.468   5.605   6.864 -0.2781 -0.2651 -0.0344
   98MOL   H17137225   7.542   5.460   6.819 -0.2964 -0.4584  0.0362
   98MOL   H17237226   7.378   5.456   6.869  0.3690 -0.6111 -0.0722
   98MOL   C17337227   7.447   5.158   6.345  0.1213  0.0708 -0.2653
   98MOL   C17437228   7.571   5.240   6.304  0.1696 -0.0902  0.4083
   98MOL   C17537229   7.683   5.230   6.404 -0.3128  0.0532  0.1485
   98MOL   O17637230   7.732   5.121   6.428  0.1715 -0.5280 -0.1276
   98MOL   N17737231   7.719   5.346   6.470  0.0158 -0.1198 -0.0497
   98MOL   C17837232   7.836   5.365   6.544 -0.4561  0.4032  0.0993
   98MOL   C17937233   7.817   5.322   6.696  0.2039  0.1983  0.2465
   98MOL   C18037234   0.035   5.516   6.531  0.2709  0.1528 -0.5845
   98MOL   H18137235   7.373   5.184   6.269  0.8046  0.9452 -0.6369
   98MOL   H18237236   7.471   5.054   6.323  0.4727 -0.2445  1.5193
   98MOL   H18337237   7.533   5.342   6.307  1.6926  0.4804  0.2836
   98MOL   H18437238   7.664   5.429   6.450  0.3231  0.1285  0.1361
   98MOL   H18537239   0.080   5.303   6.503  0.6752  1.1067  1.1927
   98MOL   H18637240   0.058   5.359   6.763  0.7058  0.0361 -0.2427
   98MOL   H18737241   7.796   5.217   6.715  0.8552 -0.2944 -1.6243
   98MOL   H18837242   7.728   5.370   6.738 -0.0863 -0.2553  0.1574
   98MOL   H18937243   0.120   5.539   6.595  0.0847  1.9079 -0.9526
   98MOL   H19037244   7.779   5.570   6.551 -0.9613 -1.8811 -0.5372
   98MOL   H19137245   0.062   5.536   6.427 -0.9183 -0.8716 -1.1088
   98MOL   C19237246   7.621   5.197   6.166 -0.4563  0.5095 -0.1771
   98MOL   C19337247   7.727   5.285   6.099 -0.1572 -0.3370 -0.2591
   98MOL   C19437248   7.681   5.433   6.087  0.7334 -0.1327 -0.6855
   98MOL   O19537249   7.767   5.518   6.106  0.1314  0.0466  0.0260
   98MOL   N19637250   7.544   5.455   6.076 -0.1838 -0.1951  0.2000
   98MOL   C19737251   7.480   5.584   6.089 -0.4360  0.3045  0.1552
   98MOL   C19837252   7.332   5.573   6.034 -0.2162 -0.7820 -0.8958
   98MOL   C19937253   7.484   5.641   6.231 -0.4766  0.1872 -0.0878
   98MOL   H20037254   7.533   5.187   6.102  0.8258 -0.5259 -1.8353
   98MOL   H20137255   7.655   5.093   6.167 -0.1602  0.5163 -3.9042
   98MOL   H20237256   7.804   5.300   6.175  0.2177  1.1297 -0.9048
   98MOL   H20337257   7.474   5.382   6.072 -1.6493  1.0948  1.5340
   98MOL   H20437258   7.535   5.648   6.019 -0.0849  0.2072  0.3434
   98MOL   H20537259   7.269   5.504   6.090  1.6375 -1.3029  0.6080
   98MOL   H20637260   7.332   5.550   5.927  0.2231  1.5067 -1.4173
   98MOL   H20737261   7.286   5.671   6.044 -0.1991 -0.6502 -2.0343
   98MOL   H20837262   7.429   5.571   6.294 -1.4952  1.0800  0.0258
   98MOL   H20937263   7.430   5.735   6.240 -0.6879  0.1573 -0.9967
   98MOL   H21037264   7.585   5.651   6.269  0.0858 -3.0507 -0.5520
   98MOL   C21137265   7.777   5.236   5.968 -0.0406 -0.1573  0.8518
   98MOL   C21237266   0.064   5.306   5.903 -0.0076  0.1641  0.0853
   98MOL   C21337267   0.189   5.289   5.983 -0.8284 -0.2133  0.0163
   98MOL   O21437268   0.285   5.227   5.932  0.3500 -0.0421 -0.1023
   98MOL   N21537269   0.191   5.356   6.101  0.0426  0.1761 -0.1634
   98MOL   C21637270   0.300   5.350   6.200 -0.9982  0.3878 -0.2625
   98MOL   C21737271   0.413   5.439   6.144 -0.0307  0.2165 -0.5664
   98MOL   C21837272   0.341   5.207   6.242  0.7896  0.3223  0.5078
   98MOL   H21937273   7.694   5.251   5.899 -0.0285 -1.3137  0.5614
   98MOL   H22037274   7.801   5.129   5.964 -0.3867 -0.2237  0.5066
   98MOL   H22137275   0.054   5.414   5.900 -2.0719  0.0304  1.4561
   98MOL   H22237276   0.109   5.409   6.123 -0.0819 -0.5239  1.1212
   98MOL   H22337277   0.257   5.404   6.285  1.4566  1.1824  0.4919
   98MOL   H22437278   0.455   5.411   6.047  0.4484 -0.9098 -0.0387
   98MOL   H22537279   0.391   5.546   6.143  0.7501  0.3840  0.4104
   98MOL   H22637280   0.499   5.429   6.210 -0.5677 -1.6222 -0.1193
   98MOL   H22737281   0.374   5.149   6.156 -1.8848 -0.5162 -0.0158
   98MOL   H22837282   0.255   5.155   6.285  0.4535  0.7017  0.2990
   98MOL   H22937283   0.406   5.195   6.328  0.2614 -0.5712  0.7894
   98MOL   C23037284   0.085   5.266   5.753  0.0393 -0.1600 -0.4785
   98MOL   C23137285   7.830   5.362   5.666 -0.6813  0.0222 -0.1691
   98MOL   C23237286   0.045   5.512   5.655  1.0044 -1.0067 -0.9040
   98MOL   O23337287   0.162   5.543   5.628 -0.0266 -0.2645 -0.0452
   98MOL   N23437288   7.792   5.606   5.692 -0.1402  0.0303 -0.4859
   98MOL   C23537289   7.824   5.744   5.721 -0.6775  0.2759  0.5538
   98MOL   C23637290   7.697   5.827   5.700  0.8141 -0.1001 -0.8850
   98MOL   C23737291   0.036   5.736   5.867  0.3024 -0.6067  0.3962
   98MOL   H23837292   0.056   5.164   5.727 -1.6683  0.3499 -0.6493
   98MOL   H23937293   0.183   5.298   5.718 -0.3975  1.6757 -0.0680
   98MOL   H24037294   7.735   5.364   5.720 -0.1369 -0.1865  0.8023
   98MOL   H24137295   7.697   5.573   5.702  0.1337 -0.7585 -0.4510
   98MOL   H24237296   0.066   5.782   5.656 -1.8362 -1.2760 -1.8026
   98MOL   H24337297   7.617   5.793   5.766 -0.0898 -0.4335 -2.1419
   98MOL   H24437298   7.714   5.932   5.722 -0.8159  0.0424 -0.2207
   98MOL   H24537299   7.658   5.834   5.599 -0.8627  0.6837 -0.2003
   98MOL   H24637300   0.052   5.830   5.919 -1.6756 -0.6993  1.2191
   98MOL   H24737301   0.129   5.684   5.890  0.5996 -0.0982  0.3419
   98MOL   H24837302   7.799   5.705   5.942  0.6663 -0.1071  0.9637
   98MOL   C24937303   7.803   5.304   5.523  0.0674 -0.0220  0.5770
   98MOL   C25037304   7.739   5.155   5.503 -0.5875 -0.5894  0.3092
   98MOL   C25137305   7.742   5.112   5.352 -0.4596  0.4207 -0.0320
   98MOL   O25237306   7.701   5.190   5.265 -0.1151  0.8265  0.1206
   98MOL   N25337307   7.797   4.990   5.337 -0.2847  0.5801  0.1613
   98MOL   C25437308   7.827   4.918   5.213 -0.1202  0.0028 -0.1531
   98MOL   C25537309   0.104   4.974   5.137 -0.5726 -0.0589  0.1521
   98MOL   C25637310   0.002   4.771   5.219 -0.5060 -0.1686 -0.0584
   98MOL   H25737311   0.064   5.310   5.474 -0.7347  3.0987 -0.7376
   98MOL   H25837312   7.747   5.375   5.462 -1.0090 -1.7880 -0.5223
   98MOL   H25937313   7.802   5.087   5.559  0.8327  0.2664 -0.2298
   98MOL   H26037314   7.825   4.954   5.428 -0.1476  2.2417  0.7870
   98MOL   H26137315   7.744   4.928   5.143  0.2954 -1.8870 -0.9573
   98MOL   H26237316   0.068   5.063   5.085  1.1559 -1.3030 -3.3852
   98MOL   H26337317   0.185   5.003   5.203 -0.6877  0.8335 -0.0900
   98MOL   H26437318   0.138   4.913   5.053  0.3279 -1.3525  1.4243
   98MOL   H26537319   0.065   4.739   5.302 -0.9604  2.2846  1.2722
   98MOL   H26637320   7.736   4.735   5.229 -0.4348 -0.6408 -1.0038
   98MOL   H26737321   0.036   4.718   5.130  0.4031 -1.1371  0.8348
   98MOL   C26837322   7.601   5.143   5.571  0.5163 -0.2046  0.5207
   98MOL   C26937323   7.480   5.225   5.517 -0.0281 -0.3600  0.3545
   98MOL   C27037324   7.390   5.140   5.420 -0.0670  0.1937 -0.2804
   98MOL   O27137325   7.310   5.058   5.465  0.3937  0.2715 -0.0229
   98MOL   N27237326   7.428   5.157   5.292  0.3553 -0.8492  0.2262
   98MOL   C27337327   7.365   5.105   5.178  0.0974  0.2463  0.6534
   98MOL   C27437328   7.317   5.217   5.086 -0.3624  0.3021 -0.2732
   98MOL   C27537329   7.475   5.015   5.107  0.5788 -0.8732  0.1092
   98MOL   H27637330   7.569   5.039   5.580 -1.1616  0.2703  0.1662
   98MOL   H27737331   7.615   5.167   5.677  0.8940 -1.0993  0.6768
   98MOL   H27837332   7.522   5.311   5.465 -0.0709 -0.9757 -0.7138
   98MOL   H27937333   7.498   5.228   5.276 -0.9552  0.9900  2.2865
   98MOL   H28037334   7.273   5.052   5.205 -0.4027  0.6089 -0.3038
   98MOL   H28137335   7.261   5.168   5.006  0.8428 -0.5364 -0.6055
   98MOL   H28237336   7.255   5.282   5.148  0.4475  0.2852  0.5504
   98MOL   H28337337   7.401   5.281   5.057 -0.3547  0.1280 -0.6393
   98MOL   H28437338   7.566   5.074   5.095  0.4207 -0.0474  2.6499
   98MOL   H28537339   7.494   4.921   5.158 -2.4301 -1.5719  0.0129
   98MOL   H28637340   7.447   4.988   5.005 -1.0396 -3.9448  1.3207
   98MOL   C28737341   7.394   5.264   5.637  1.1151  0.0561 -0.1728
   98MOL   C28837342   7.268   5.349   5.604 -0.2411  0.0491  0.3682
   98MOL   C28937343   7.310   5.491   5.552 -0.2382 -0.8933 -0.3933
   98MOL   O29037344   7.415   5.539   5.581 -0.2566 -0.4809  0.2444
   98MOL   N29137345   7.224   5.550   5.460 -0.3090  0.0260 -0.3621
   98MOL   C29237346   7.252   5.671   5.382 -0.1222 -0.5757 -0.5740
   98MOL   C29337347   7.197   5.657   5.237 -0.5849 -0.2246  0.7121
   98MOL   C29437348   7.196   5.791   5.450 -0.2423 -0.6753  0.1665
   98MOL   H29537349   7.360   5.173   5.687  0.5591  0.7081  0.6597
   98MOL   H29637350   7.463   5.322   5.698 -1.2432  1.3537  1.3660
   98MOL   H29737351   7.213   5.310   5.519  1.4075  0.9031 -1.1271
   98MOL   H29837352   7.139   5.497   5.450  0.8881 -2.5934  2.4346
   98MOL   H29937353   7.360   5.683   5.377 -0.1246 -0.1882  0.3811
   98MOL   H30037354   7.098   5.613   5.245 -1.7673  2.2431 -0.0098
   98MOL   H30137355   7.192   5.754   5.188  1.3043 -1.1332 -1.4010
   98MOL   H30237356   7.266   5.591   5.185 -0.9936  1.2354 -1.7452
   98MOL   H30337357   7.210   5.870   5.376 -1.2469  0.7662  1.4660
   98MOL   H30437358   7.087   5.785   5.452 -0.1844 -2.2974 -1.3823
   98MOL   H30537359   7.241   5.816   5.547 -1.5578 -0.0794  0.6373
   98MOL   C30637360   7.168   5.346   5.725 -0.4347  0.0776  0.3155
   98MOL   C30737361   7.084   5.221   5.746  0.0071 -1.2637  0.4573
   98MOL   C30837362   6.988   5.214   5.628  0.0171 -0.4053  0.3204
   98MOL   O30937363   6.890   5.290   5.618  0.1550  0.0263 -0.4012
   98MOL   N31037364   7.019   5.112   5.543  0.2152  0.5576 -0.1274
   98MOL   C31137365   6.946   5.084   5.423 -0.4016 -0.2304 -0.1987
   98MOL   C31237366   7.010   5.174   5.315 -0.4648  0.3890  0.2011
   98MOL   C31337367   6.957   4.941   5.387 -0.2455  0.0410 -0.5994
   98MOL   H31437368   7.230   5.365   5.813  1.1900 -1.9208 -0.3499
   98MOL   H31537369   7.099   5.430   5.713  2.0680  1.8715 -2.1350
   98MOL   H31637370   7.147   5.133   5.730  1.6538  0.1963 -1.3267
   98MOL   H31737371   7.104   5.059   5.557 -0.3944  0.2085  2.5476
   98MOL   H31837372   6.841   5.101   5.443 -0.5164 -0.2578 -0.7708
   98MOL   H31937373   6.970   5.150   5.216  0.2745  1.9742 -0.5025
   98MOL   H32037374   7.119   5.172   5.308 -0.2394 -0.0596  3.3641
   98MOL   H32137375   6.992   5.280   5.331 -0.3871  0.3988  0.2212
   98MOL   H32237376   6.925   4.874   5.468  0.7030 -0.6923 -0.8243
   98MOL   H32337377   7.059   4.906   5.370  0.4004  1.0273  1.0704
   98MOL   H32437378   6.903   4.922   5.294 -0.2696 -2.2838 -0.1531
   98MOL   C32537379   7.022   5.224   5.893 -0.6054 -0.2033 -0.7298
   98MOL   C32637380   7.060   5.097   5.971  0.2990  0.4750 -0.5265
   98MOL   C32737381   7.210   5.087   6.003 -0.1483  0.0573 -0.2862
   98MOL   O32837382   7.274   5.182   6.041 -0.2007 -0.0531  0.5276
   98MOL   N32937383   7.262   4.963   5.988  0.0332 -0.0233 -0.4141
   98MOL   C33037384   7.398   4.920   6.008 -0.1257  0.2013  0.6400
   98MOL   C33137385   7.486   4.967   5.901 -0.3168  0.0579  0.3194
   98MOL   C33237386   7.406   4.758   6.015 -0.3442  0.1364 -0.0707
   98MOL   H33337387   6.913   5.229   5.889 -0.6223 -0.8029 -0.9857
   98MOL   H33437388   7.055   5.313   5.948  0.0721 -0.6532 -0.3999
   98MOL   H33537389   7.035   5.008   5.914  0.6827  0.6011 -0.8969
   98MOL   H33637390   7.197   4.892   5.959  1.2136 -0.9116 -0.9474
   98MOL   H33737391   7.426   4.956   6.107  0.8501 -0.3156  0.5583
   98MOL   H33837392   7.590   4.940   5.920 -0.2694 -0.5592 -0.8168
   98MOL   H33937393   7.468   4.920   5.805  2.0501 -0.1088 -0.0861
   98MOL   H34037394   7.479   5.076   5.894  2.8092  0.2900 -0.3232
   98MOL   H34137395   7.347   4.738   6.105  1.1958  0.2787  0.9939
   98MOL   H34237396   7.508   4.720   6.021  0.1533  1.3600 -0.6404
   98MOL   H34337397   7.346   4.724   5.931 -0.2534  1.8632 -0.8345
   98MOL   C34437398   6.977   5.101   6.108  0.4210  0.1690  1.0294
   98MOL   C34537399   7.014   5.204   6.225 -0.2783 -0.4667  0.5537
   98MOL   C34637400   6.971   5.347   6.205  0.0356 -0.5001 -0.1390
   98MOL   O34737401   6.886   5.377   6.128 -0.7461 -0.4026  0.0532
   98MOL   N34837402   7.030   5.446   6.283 -0.2356  0.0343 -0.2867
   98MOL   C34937403   7.013   5.591   6.269 -0.0640 -0.0828  0.4433
   98MOL   C35037404   6.870   5.651   6.286  0.0395  1.1750 -0.4184
   98MOL   C35137405   7.118   5.657   6.356  0.3716  0.2425 -0.0316
   98MOL   H35237406   6.981   5.000   6.148 -0.1181  0.8577  2.8403
   98MOL   H35337407   6.873   5.128   6.087  0.0521 -2.5153 -0.8611
   98MOL   H35437408   7.120   5.201   6.250 -0.0792  2.0730  0.1421
   98MOL   H35537409   7.100   5.410   6.346  0.5549  1.1609 -0.5234
   98MOL   H35637410   7.037   5.605   6.163  0.6708  2.0225  0.8608
   98MOL   H35737411   6.847   5.653   6.393 -0.3148 -1.4460 -0.4137
   98MOL   H35837412   6.878   5.755   6.256  0.0398  0.3667 -3.4151
   98MOL   H35937413   6.794   5.599   6.228  0.0187 -0.2168  0.8123
   98MOL   H36037414   7.106   5.665   6.464  1.0756 -2.3673  0.2766
   98MOL   H36137415   7.218   5.614   6.351  0.7224  0.7159  2.3830
   98MOL   H36237416   7.124   5.760   6.322  1.7002  0.5771  1.1921
   98MOL   C36337417   6.953   5.152   6.361 -0.4997  0.6692 -0.1408
   98MOL   C36437418   6.803   5.154   6.384 -0.2086 -0.0870 -0.8984
   98MOL   C36537419   6.761   5.102   6.519  0.5058  0.0802  0.2516
   98MOL   O36637420   6.848   5.043   6.591  0.3965  0.3698 -1.0091
   98MOL   N36737421   6.639   5.120   6.555  0.3433  0.3988  0.5098
   98MOL   C36837422   6.558   5.081   6.666  0.7396  0.4313  0.0578
   98MOL   C36937423   6.571   5.171   6.787 -0.2040 -0.3211  0.0376
   98MOL   C37037424   6.407   5.078   6.623  0.4820 -0.4891  0.3424
   98MOL   H37137425   6.995   5.207   6.445  3.2575 -2.2811  0.0462
   98MOL   H37237426   6.993   5.051   6.370  3.2622  1.9904 -0.8749
   98MOL   H37337427   6.759   5.087   6.310 -1.4903  0.1877 -0.4089
   98MOL   H37437428   6.586   5.173   6.487  4.2044  2.2057 -1.2984
   98MOL   H37537429   6.586   4.986   6.712  0.0117  0.4958  0.6382
   98MOL   H37637430   6.672   5.183   6.827  0.4931  0.3385 -1.8486
   98MOL   H37737431   6.542   5.267   6.744  2.8200 -0.1324 -1.7535
   98MOL   H37837432   6.507   5.158   6.874  0.0715  0.8083  0.4233
   98MOL   H37937433   6.365   5.170   6.584  0.1833 -0.6643  0.2478
   98MOL   H38037434   6.389   4.993   6.557  2.5090 -1.9818  1.6351
   98MOL   H38137435   6.336   5.050   6.702 -1.1193 -1.7559 -1.5065
   98MOL   H38237436   6.754   5.247   6.355  0.9539  1.2175  1.2257
   99MOL     C137437   2.204   7.600   5.500  0.4382 -0.0253  0.4010
   99MOL     C237438   2.294   7.667   5.609 -0.0763  0.0763 -0.4833
   99MOL     C337439   2.331   7.565   5.715  0.3885 -0.6267 -0.4527
   99MOL     O437440   2.342   7.445   5.677  0.2014 -0.1433  0.8226
   99MOL     N537441   2.338   7.600   5.844 -0.2841  0.6954 -0.5922
   99MOL     C637442   2.371   7.513   5.956 -0.2356  0.0878  0.1049
   99MOL     C737443   2.516   7.530   6.004 -0.1776 -0.5630  0.1214
   99MOL     C837444   2.274   7.538   6.065 -0.4206 -0.0987 -0.4121
   99MOL     H937445   2.171   7.496   5.512  0.1817  0.0157  0.0611
   99MOL    H1037446   2.232   7.610   5.395  1.7525  0.0561  0.7568
   99MOL    H1137447   2.226   7.732   5.665 -1.1755 -0.4695 -1.1691
   99MOL    H1237448   2.332   7.699   5.861  1.5603  0.6764  0.3237
   99MOL    H1337449   2.359   7.413   5.916 -0.7250  0.1362  0.1244
   99MOL    H1437450   2.547   7.621   6.054 -0.9197 -0.3367  0.1728
   99MOL    H1537451   2.574   7.523   5.912 -2.3502  1.3458 -1.4435
   99MOL    H1637452   2.540   7.443   6.066  2.8313  0.5062  0.5589
   99MOL    H1737453   2.174   7.513   6.030  0.7173 -1.3096 -2.9221
   99MOL    H1837454   2.298   7.475   6.151 -0.8237 -1.2369 -1.1268
   99MOL    H1937455   2.286   7.644   6.091  1.3959 -0.2883 -0.4109
   99MOL    H2037456   2.103   7.640   5.513 -0.6750 -2.9586  1.3637
   99MOL    C2137457   2.426   7.721   5.535  0.0249 -0.2214 -0.0752
   99MOL    C2237458   2.523   7.809   5.612 -0.5401  0.0572 -0.1146
   99MOL    C2337459   2.455   0.072   5.696  0.6238  0.2844 -0.2409
   99MOL    O2437460   2.421   0.042   5.809  0.3248 -0.4520 -0.6042
   99MOL    N2537461   2.437   0.200   5.645 -0.1381 -0.0081  0.0126
   99MOL    C2637462   2.379   0.315   5.717 -0.3281  1.2866 -0.6578
   99MOL    C2737463   2.224   0.295   5.722  0.6091 -0.0740  0.7881
   99MOL    C2837464   2.416   0.450   5.645  0.2893  0.0953  0.3901
   99MOL    H2937465   2.387   7.776   5.449  1.5972  0.3991 -0.4072
   99MOL    H3037466   2.484   7.638   5.494  0.5267  1.0349 -1.9890
   99MOL    H3137467   2.580   7.741   5.677  1.6101  1.3173 -0.6279
   99MOL    H3237468   2.481   0.216   5.556 -0.7487 -0.0159 -0.2944
   99MOL    H3337469   2.411   0.324   5.821 -3.1785  1.0791  0.2877
   99MOL    H3437470   2.200   0.216   5.793 -1.0350 -0.5433 -0.2664
   99MOL    H3537471   2.188   0.281   5.620  2.0363  2.4888 -0.1138
   99MOL    H3637472   2.180   0.388   5.760  1.2024  1.2248 -1.5420
   99MOL    H3737473   2.370   0.527   5.708  0.5127  0.5046  0.0589
   99MOL    H3837474   2.524   0.465   5.640  0.1272  1.0826 -0.3155
   99MOL    H3937475   2.383   0.457   5.542  2.4261 -2.1413 -0.4877
   99MOL    C4037476   2.640   0.028   5.526 -0.2788 -0.1026  0.1872
   99MOL    C4137477   2.771   0.057   5.603  0.3099  0.3364 -0.1094
   99MOL    C4237478   2.770   0.180   5.702  0.6309 -0.4402 -0.2676
   99MOL    O4337479   2.762   0.290   5.651 -0.3731 -0.1075  0.9996
   99MOL    N4437480   2.791   0.163   5.832 -0.0031 -0.8484  0.3648
   99MOL    C4537481   2.845   0.253   5.935  0.6052 -0.0821  0.7424
   99MOL    C4637482   2.816   0.194   6.065  0.3664  0.4498  0.1585
   99MOL    C4737483   2.994   0.287   5.912  0.5218  0.6547 -0.9340
   99MOL    H4837484   2.614   0.114   5.465 -2.6712  0.4108  1.8506
   99MOL    H4937485   2.672   7.783   5.461  0.2971  0.5813 -0.3977
   99MOL    H5037486   2.783   7.806   5.668  0.5470 -0.3979 -1.1183
   99MOL    H5137487   2.768   0.071   5.866 -0.6689 -1.6965 -2.2545
   99MOL    H5237488   2.789   0.345   5.919  1.2321  0.7972  3.3237
   99MOL    H5337489   2.711   0.191   6.091  0.5910 -0.4602  0.9716
   99MOL    H5437490   2.868   0.249   6.143 -0.5414  1.6304 -0.0503
   99MOL    H5537491   2.856   0.093   6.072  1.7778  0.6023 -3.9957
   99MOL    H5637492   3.058   0.199   5.915 -0.3755  0.0495  3.1727
   99MOL    H5737493   3.039   0.344   5.992 -1.4909  1.2497 -0.1976
   99MOL    H5837494   3.012   0.352   5.826 -3.0705  0.6411 -1.7828
   99MOL    C5937495   2.887   0.080   5.504  0.0002 -0.0643 -0.7009
   99MOL    C6037496   3.026   0.041   5.573  0.0823 -0.7638  0.5750
   99MOL    C6137497   3.131   0.147   5.530 -0.1499  0.1644  0.6813
   99MOL    O6237498   3.134   0.174   5.409 -0.1588  0.1093 -0.0743
   99MOL    N6337499   3.209   0.202   5.621  0.0591 -0.4649 -0.1824
   99MOL    C6437500   3.304   0.314   5.587 -0.7365  0.1638 -1.0470
   99MOL    C6537501   3.270   0.444   5.664 -0.7318  0.3896  0.0183
   99MOL    C6637502   3.443   0.265   5.630 -0.4254 -0.0127 -0.4856
   99MOL    H6737503   2.879   0.022   5.412  1.7497 -0.9644 -0.3046
   99MOL    H6837504   2.898   0.185   5.477  3.6782 -0.7193 -1.9862
   99MOL    H6937505   3.009   0.059   5.679 -1.3468  0.2448  0.1976
   99MOL    H7037506   3.195   0.174   5.717  1.7846  1.8197  0.7762
   99MOL    H7137507   3.301   0.331   5.480  2.6120  0.4468 -1.1326
   99MOL    H7237508   3.295   0.446   5.771  0.8157 -1.0870 -0.2780
   99MOL    H7337509   3.314   0.536   5.627  1.7458 -1.1293 -0.9141
   99MOL    H7437510   3.162   0.458   5.666 -0.7371  0.3344  0.1838
   99MOL    H7537511   3.431   0.236   5.734  0.1350 -3.2199 -1.2599
   99MOL    H7637512   3.474   0.176   5.575 -0.2628 -0.4633  0.3205
   99MOL    H7737513   3.524   0.337   5.619 -1.0822  0.7587 -0.3321
   99MOL    C7837514   3.056   7.730   5.547  0.1723  0.3562  0.4909
   99MOL    C7937515   3.166   7.656   5.635 -1.6280  0.3095 -0.4694
   99MOL    C8037516   3.141   7.692   5.786 -0.1158 -1.1506  0.3620
   99MOL    O8137517   3.208   7.784   5.840 -0.0986 -0.1468 -0.0778
   99MOL    N8237518   3.045   7.629   5.854  0.6106  0.0069  0.3768
   99MOL    C8337519   3.000   7.665   5.990 -0.6414 -0.1224  0.4919
   99MOL    C8437520   2.850   7.659   5.993 -0.4324 -0.0465  0.5472
   99MOL    C8537521   3.075   7.586   6.098 -0.3421  0.6793  0.5146
   99MOL    H8637522   3.067   7.708   5.441 -2.8009 -0.9808  0.4036
   99MOL    H8737523   2.961   7.682   5.574  0.8732 -1.2667  0.1220
   99MOL    H8837524   3.258   7.713   5.620 -0.2554 -2.2958 -2.4531
   99MOL    H8937525   2.983   7.577   5.793  1.9842  0.4242 -1.4038
   99MOL    H9037526   3.026   7.770   6.006  0.5472 -0.3474  0.1200
   99MOL    H9137527   2.800   7.680   5.899 -0.2259 -0.2977  0.3784
   99MOL    H9237528   2.822   7.559   6.026  0.8140 -1.1156 -1.5166
   99MOL    H9337529   2.814   7.720   6.076 -0.7462  0.2211  0.2168
   99MOL    H9437530   3.183   7.575   6.087 -0.4596  2.9862 -4.4813
   99MOL    H9537531   3.041   7.483   6.095 -0.2606  0.7135 -2.8398
   99MOL    H9637532   3.052   7.639   6.190  0.0099  1.0394  0.3966
   99MOL    C9737533   3.189   7.509   5.601  0.5640 -0.0318 -1.1756
   99MOL    C9837534   3.286   7.483   5.484  0.0931  0.3438 -0.9106
   99MOL    C9937535   3.250   7.549   5.348 -0.4422  0.4983  0.0607
   99MOL   O10037536   3.149   7.519   5.285 -0.3444 -0.1948 -0.4345
   99MOL   N10137537   3.323   7.645   5.295 -0.2186  0.1050  0.4510
   99MOL   C10237538   3.467   7.675   5.308  1.0214  0.4141  0.1510
   99MOL   C10337539   3.503   7.729   5.172 -0.5395  0.4480 -0.7714
   99MOL   C10437540   3.492   7.772   5.415  0.0922 -0.4400  0.3000
   99MOL   H10537541   3.089   7.467   5.584 -0.0933  0.6959  0.7100
   99MOL   H10637542   3.233   7.447   5.680 -0.5831 -2.1570 -2.1406
   99MOL   H10737543   3.378   7.537   5.508 -0.4407  0.8290  0.0741
   99MOL   H10837544   3.276   7.697   5.223 -0.8236 -0.3155  0.5362
   99MOL   H10937545   3.513   7.579   5.330  1.0691  0.7304  1.4415
   99MOL   H11037546   3.611   7.745   5.171 -0.3753 -0.4908  0.6809
   99MOL   H11137547   3.491   7.658   5.090 -0.0630 -0.5564  0.0127
   99MOL   H11237548   3.465   7.826   5.140 -1.0056  0.7932  0.8116
   99MOL   H11337549   3.593   7.807   5.436 -0.0146 -0.3298  0.6324
   99MOL   H11437550   3.473   7.723   5.510  2.2513 -3.8951 -0.9627
   99MOL   H11537551   3.426   0.022   5.407 -1.0100 -1.1274  1.8760
   99MOL   C11637552   3.319   7.331   5.471  0.3140 -0.2320 -0.7282
   99MOL   C11737553   3.454   7.295   5.407 -0.4918  0.1304 -0.7754
   99MOL   C11837554   3.466   7.165   5.329 -0.4071 -0.3729 -0.7335
   99MOL   O11937555   3.571   7.108   5.331 -0.7148  0.3268  0.6633
   99MOL   N12037556   3.357   7.115   5.270  0.0720  0.5550 -0.0451
   99MOL   C12137557   3.357   6.985   5.199 -0.6708  0.1102  0.4646
   99MOL   C12237558   3.225   6.919   5.201 -0.0233 -0.1892  0.1218
   99MOL   C12337559   3.405   7.003   5.056 -0.2077 -0.2031 -0.2069
   99MOL   H12437560   3.239   7.283   5.416 -2.2788  0.8405  1.9833
   99MOL   H12537561   3.302   7.270   5.560 -1.2287 -0.2419 -1.0196
   99MOL   H12637562   3.473   7.366   5.326 -0.3994  0.5226 -0.4149
   99MOL   H12737563   3.268   7.163   5.271  0.2826  0.9614 -0.4846
   99MOL   H12837564   3.427   6.927   5.259  0.1194  1.5218  0.9314
   99MOL   H12937565   3.181   6.925   5.301 -1.1322  0.1795 -0.3746
   99MOL   H13037566   3.236   6.812   5.183  3.2054  0.1240 -0.0189
   99MOL   H13137567   3.156   6.951   5.123 -0.3654  1.6154  1.1421
   99MOL   H13237568   3.401   6.907   5.004 -1.4619 -1.1319  1.5793
   99MOL   H13337569   3.341   7.060   4.989 -0.9712  0.4732  1.0820
   99MOL   H13437570   3.508   7.038   5.049  0.1238 -1.1904 -0.3405
   99MOL   C13537571   3.567   7.316   5.517  0.1879  0.9768 -0.3254
   99MOL   C13637572   3.595   7.209   5.630  0.1134 -0.7670 -0.0527
   99MOL   C13737573   3.738   7.168   5.643  0.7178 -0.7979 -0.7302
   99MOL   O13837574   3.815   7.231   5.718 -1.1596 -0.3580  0.5098
   99MOL   N13937575   3.771   7.065   5.568 -0.1810  0.0875 -0.8555
   99MOL   C14037576   3.898   6.997   5.553 -0.2075 -0.2933 -0.4789
   99MOL   C14137577   3.934   6.987   5.405  0.2180 -1.0586 -0.1230
   99MOL   C14237578   3.888   6.860   5.621  0.1061 -0.5197 -0.2169
   99MOL   H14337579   3.553   7.414   5.563  0.1480  0.2429  1.2845
   99MOL   H14437580   3.656   7.334   5.457  1.2093  0.5576  1.0452
   99MOL   H14537581   3.551   7.118   5.590  1.5741 -0.0530 -3.4323
   99MOL   H14637582   3.704   7.035   5.498  1.1405 -1.3864 -1.5159
   99MOL   H14737583   3.966   7.065   5.604 -0.0107 -0.4945 -0.4732
   99MOL   H14837584   4.031   6.938   5.390  0.9812  0.0320  1.1453
   99MOL   H14937585   3.860   6.920   5.362 -1.9131  0.2853  1.3386
   99MOL   H15037586   3.930   7.084   5.356 -2.8444 -1.1180 -0.0451
   99MOL   H15137587   3.791   6.813   5.599 -0.5759 -0.0461  1.7426
   99MOL   H15237588   3.897   6.870   5.729 -2.8455 -0.3638  0.0508
   99MOL   H15337589   3.959   6.792   5.573 -1.0578 -1.0954 -1.1723
   99MOL   C15437590   3.515   7.231   5.758 -0.1826 -0.1187  0.0232
   99MOL   C15537591   3.533   7.138   5.876  0.2671 -0.2366 -0.4168
   99MOL   C15637592   3.484   6.994   5.860  0.1747  0.0947 -0.9313
   99MOL   O15737593   3.532   6.904   5.924 -0.3545 -0.0340 -0.1070
   99MOL   N15837594   3.394   6.970   5.756  0.2555  0.7189  0.6517
   99MOL   C15937595   3.330   6.845   5.713 -0.0910 -0.3935  1.1515
   99MOL   C16037596   3.412   6.786   5.601  0.2714 -0.4323  0.2112
   99MOL   C16137597   3.182   6.859   5.670 -0.1001  0.3275  0.1562
   99MOL   H16237598   3.410   7.226   5.729  0.7049 -1.2093 -3.1701
   99MOL   H16337599   3.528   7.337   5.782  0.3828 -0.1703 -0.0431
   99MOL   H16437600   3.636   7.125   5.909  0.4259 -0.9496 -1.1667
   99MOL   H16537601   3.370   7.049   5.697  2.6178  0.7658 -0.2797
   99MOL   H16637602   3.332   6.779   5.800  0.2110 -1.5318  0.2988
   99MOL   H16737603   3.393   6.847   5.512 -3.0517 -1.2058  0.3167
   99MOL   H16837604   3.517   6.786   5.627 -0.3002 -1.2791  2.6479
   99MOL   H16937605   3.375   6.685   5.583 -2.5098  0.1682  2.1837
   99MOL   H17037606   3.136   6.776   5.617  1.1390  0.1057 -0.5808
   99MOL   H17137607   3.173   6.948   5.608 -0.4849  1.0281  1.1954
   99MOL   H17237608   3.119   6.883   5.756  0.1837 -0.8942  0.7183
   99MOL   C17337609   3.450   7.194   6.001  0.2333 -0.8395  0.0654
   99MOL   C17437610   3.450   7.119   6.142 -0.0738  0.1310 -0.2746
   99MOL   C17537611   3.595   7.106   6.194 -0.6271 -0.4427 -0.0817
   99MOL   O17637612   3.648   7.169   6.286 -0.2282 -0.3972 -0.0605
   99MOL   N17737613   3.660   7.007   6.145 -0.6699  0.4172  0.3355
   99MOL   C17837614   3.800   6.974   6.167  0.6690  0.1996  0.5458
   99MOL   C17937615   3.876   6.975   6.038  0.0019 -0.1653 -0.2299
   99MOL   C18037616   3.812   6.833   6.229  0.0309 -0.0968  0.3152
   99MOL   H18137617   3.348   7.204   5.964  0.1648 -1.8545 -0.0385
   99MOL   H18237618   3.489   7.295   6.015 -0.2412 -0.8497  1.5723
   99MOL   H18337619   3.414   7.018   6.123  0.8567  0.0257 -1.5578
   99MOL   H18437620   3.612   6.939   6.088 -1.5447 -1.3809  3.1197
   99MOL   H18537621   3.848   7.042   6.238  1.8124  0.8283 -0.7938
   99MOL   H18637622   3.976   6.943   6.065 -0.4978 -1.7529 -0.2294
   99MOL   H18737623   3.872   7.070   5.985  2.1022 -0.4874 -1.0079
   99MOL   H18837624   3.837   6.909   5.961 -1.0991  2.8334 -2.3378
   99MOL   H18937625   3.810   6.752   6.156 -0.3690 -0.2174  0.4589
   99MOL   H19037626   3.724   6.820   6.291 -0.3306 -3.1640 -0.7689
   99MOL   H19137627   3.904   6.817   6.285  1.0566 -2.9266 -2.0250
   99MOL   C19237628   3.363   7.179   6.256 -0.3852 -0.4121  0.9034
   99MOL   C19337629   3.334   7.072   6.370 -0.4875  0.5789 -0.0940
   99MOL   C19437630   3.254   6.954   6.312  0.0839 -0.5506  0.3177
   99MOL   O19537631   3.138   6.966   6.282  0.4458 -0.2155 -0.8143
   99MOL   N19637632   3.320   6.837   6.303 -0.2293 -0.3555  0.1906
   99MOL   C19737633   3.274   6.709   6.249 -0.0400  0.6095 -0.4047
   99MOL   C19837634   3.284   6.702   6.097  0.0343  0.2257 -0.2464
   99MOL   C19937635   3.367   6.605   6.314 -0.5102 -0.9362  0.1610
   99MOL   H20037636   3.268   7.211   6.213  0.0551 -0.5396 -0.1837
   99MOL   H20137637   3.407   7.271   6.294  0.7080 -0.7601  0.4974
   99MOL   H20237638   3.426   7.029   6.408 -1.5789 -1.4807  0.2894
   99MOL   H20337639   3.419   6.836   6.327 -1.1100 -2.1841  4.1434
   99MOL   H20437640   3.169   6.694   6.274 -0.1264 -2.6917 -2.4790
   99MOL   H20537641   3.230   6.785   6.051 -1.3215 -1.5375 -1.9336
   99MOL   H20637642   3.271   6.601   6.058 -1.7374  0.4658 -0.3454
   99MOL   H20737643   3.384   6.736   6.074  0.2483  1.1128  1.8795
   99MOL   H20837644   3.359   6.604   6.423 -3.0478 -0.0379 -0.0041
   99MOL   H20937645   3.473   6.629   6.300 -0.2580 -0.9188  1.9144
   99MOL   H21037646   3.351   6.503   6.280 -0.9385 -0.9570  0.4289
   99MOL   C21137647   3.264   7.125   6.502 -0.7019  0.0700 -1.2481
   99MOL   C21237648   3.326   7.055   6.628 -0.0637  0.5941 -0.0973
   99MOL   C21337649   3.264   7.118   6.746  0.6921  0.0400 -0.1316
   99MOL   O21437650   3.142   7.117   6.750  0.2065  0.7004 -0.4616
   99MOL   N21537651   3.338   7.168   6.840  0.6178  0.4543  0.2579
   99MOL   C21637652   3.293   7.229   6.961 -0.3471 -0.0805  0.1549
   99MOL   C21737653   3.306   7.385   6.962  0.2965 -0.3570 -0.1778
   99MOL   C21837654   3.372   7.164   7.067 -0.0557  0.0890 -0.5739
   99MOL   H21937655   3.160   7.092   6.500 -0.5596 -0.3226 -2.4130
   99MOL   H22037656   3.264   7.234   6.499  0.6939  0.1863  1.1863
   99MOL   H22137657   3.429   7.090   6.634  0.5182 -0.9705 -0.6282
   99MOL   H22237658   3.438   7.174   6.823  0.6867 -0.8121  0.1976
   99MOL   H22337659   3.188   7.206   6.983  0.0496 -0.8693  1.2843
   99MOL   H22437660   3.412   7.411   6.957  0.1449  0.4143  0.5920
   99MOL   H22537661   3.259   7.431   6.875 -3.7319 -3.2156  0.3668
   99MOL   H22637662   3.259   7.420   7.054 -0.3625  0.5188 -0.8354
   99MOL   H22737663   3.326   7.180   7.165  0.0085 -1.0916 -0.3447
   99MOL   H22837664   3.478   7.189   7.074 -0.3577  0.8308  1.8342
   99MOL   H22937665   3.375   7.056   7.056  0.5470  0.0362  0.0826
   99MOL   C23037666   3.316   6.897   6.629 -0.0477  0.3306  0.1819
   99MOL   C23137667   3.363   6.825   6.759  1.2292  0.3992 -0.1190
   99MOL   C23237668   3.245   6.788   6.844  0.4270  0.3474 -1.0648
   99MOL   O23337669   3.164   6.706   6.808 -0.6800 -0.2907  0.1980
   99MOL   N23437670   3.227   6.848   6.962  0.1505  0.6791  0.2954
   99MOL   C23537671   3.115   6.820   7.053  0.2045  0.3815  0.5209
   99MOL   C23637672   3.151   6.718   7.164  0.3040 -0.9424  0.1564
   99MOL   C23737673   3.073   6.944   7.126  0.8964  0.1400 -0.1281
   99MOL   H23837674   3.372   6.859   6.543  0.2583 -2.1305  1.4041
   99MOL   H23937675   3.213   6.866   6.613 -0.0350  1.1045 -1.5813
   99MOL   H24037676   3.419   6.894   6.822 -0.6847  1.0196  0.9541
   99MOL   H24137677   3.290   6.925   6.979  2.1790 -0.6200 -1.1610
   99MOL   H24237678   3.030   6.780   6.998  0.4881 -1.4370  1.3648
   99MOL   H24337679   3.164   6.622   7.114  1.3035 -1.1002  0.7044
   99MOL   H24437680   3.252   6.740   7.198  1.2753 -2.3362 -1.7259
   99MOL   H24537681   3.085   6.724   7.250 -0.2358 -1.0038 -0.2472
   99MOL   H24637682   3.141   6.973   7.206 -0.3086  0.0605  0.9389
   99MOL   H24737683   2.975   6.936   7.174  0.6361 -0.7128 -0.8033
   99MOL   H24837684   3.071   7.024   7.052 -0.3170 -0.0033 -0.2547
   99MOL   C24937685   3.450   6.704   6.738  0.0701 -0.4529  0.0900
   99MOL   C25037686   3.531   6.649   6.867  0.0865 -0.6923 -0.4885
   99MOL   C25137687   3.660   6.728   6.891  0.1081 -0.3108  0.5891
   99MOL   O25237688   3.724   6.783   6.800 -0.3195 -0.1093  0.1872
   99MOL   N25337689   3.698   6.748   7.020 -0.3438 -0.7142 -0.1337
   99MOL   C25437690   3.825   6.805   7.055 -0.3186 -0.1899  0.4217
   99MOL   C25537691   3.819   6.959   7.058  0.3648 -0.3896  0.0340
   99MOL   C25637692   3.881   6.737   7.180 -0.5122  0.1043 -0.2145
   99MOL   H25737693   3.525   6.727   6.663 -0.8989 -2.1437 -1.4103
   99MOL   H25837694   3.401   6.617   6.696 -0.2052 -0.9234  1.3696
   99MOL   H25937695   3.470   6.683   6.951 -1.6950  0.8901 -2.3750
   99MOL   H26037696   3.661   6.692   7.095 -1.1652 -0.2896 -0.2194
   99MOL   H26137697   3.896   6.797   6.973  1.1138 -1.0695  1.7309
   99MOL   H26237698   3.749   6.986   7.137 -0.1110 -2.1733  0.2366
   99MOL   H26337699   3.913   7.007   7.085 -0.1077 -0.9967  2.8424
   99MOL   H26437700   3.785   6.988   6.958  1.0859 -0.8618 -0.3470
   99MOL   H26537701   3.887   6.630   7.161 -0.9621  0.3990 -2.1174
   99MOL   H26637702   3.984   6.763   7.204  0.6704 -3.0353 -1.6381
   99MOL   H26737703   3.827   6.744   7.274 -1.7689 -4.0430 -0.5092
   99MOL   C26837704   3.553   6.496   6.863 -0.5751  0.7817  0.0556
   99MOL   C26937705   3.657   6.448   6.755 -0.3334 -0.1021  0.0472
   99MOL   C27037706   3.804   6.426   6.805  0.2036 -0.8447  0.1798
   99MOL   O27137707   3.825   6.345   6.899  0.0599 -0.8031 -0.1612
   99MOL   N27237708   3.899   6.502   6.749  0.9970 -0.1558  0.0345
   99MOL   C27337709   4.037   6.499   6.785  0.6297 -0.0893 -0.3094
   99MOL   C27437710   4.118   6.391   6.700  0.1103 -0.0895 -0.1098
   99MOL   C27537711   4.094   6.637   6.775  0.1351 -0.0793 -0.2436
   99MOL   H27637712   3.595   6.459   6.957 -0.1218  2.0309  0.3582
   99MOL   H27737713   3.461   6.437   6.861  0.0500 -0.1533 -2.4942
   99MOL   H27837714   3.657   6.522   6.676  1.0399 -0.2686 -0.1282
   99MOL   H27937715   3.860   6.586   6.710  1.4956  0.0676  0.0069
   99MOL   H28037716   4.044   6.486   6.893 -3.3348  0.2834  0.0483
   99MOL   H28137717   4.224   6.399   6.721  0.0120 -0.5203  0.5748
   99MOL   H28237718   4.080   6.293   6.733  0.1261 -0.0272  0.0984
   99MOL   H28337719   4.101   6.401   6.593  2.7669  1.5206 -0.3967
   99MOL   H28437720   4.034   6.707   6.834 -2.2662 -0.6899 -1.8892
   99MOL   H28537721   4.202   6.645   6.789  0.1700 -0.3074 -0.3969
   99MOL   H28637722   4.066   6.684   6.681 -2.6806 -0.5199  0.3183
   99MOL   C28737723   3.597   6.317   6.687 -1.0720  0.4236  0.1852
   99MOL   C28837724   3.684   6.250   6.574  0.7790 -0.2015  0.0648
   99MOL   C28937725   3.684   6.331   6.443 -0.0811  0.7038 -0.1645
   99MOL   O29037726   3.596   6.410   6.414 -0.8356  0.5290 -0.1957
   99MOL   N29137727   3.794   6.311   6.368  0.0193 -0.4381  0.1848
   99MOL   C29237728   3.840   6.388   6.254 -0.1313  0.3833 -0.2601
   99MOL   C29337729   3.942   6.494   6.309  0.7475  0.1072 -0.2693
   99MOL   C29437730   3.904   6.295   6.149  0.4310  0.3897  0.0116
   99MOL   H29537731   3.580   6.247   6.768 -2.9940  1.4802  0.7325
   99MOL   H29637732   3.496   6.341   6.653 -1.2042  0.5646  0.6721
   99MOL   H29737733   3.788   6.238   6.605  0.5964  0.4761  0.9649
   99MOL   H29837734   3.867   6.250   6.404  0.8635  0.4638  0.0195
   99MOL   H29937735   3.761   6.447   6.208 -1.2789 -1.4660 -0.6836
   99MOL   H30037736   3.991   6.559   6.236 -0.6538  1.2852 -0.1803
   99MOL   H30137737   3.883   6.563   6.369  0.2483  0.4226 -1.1042
   99MOL   H30237738   4.018   6.447   6.371  0.2740 -1.9331 -1.1983
   99MOL   H30337739   3.973   6.215   6.178  0.4870 -0.3858 -2.1270
   99MOL   H30437740   3.823   6.247   6.094  0.5043  0.4154 -0.1194
   99MOL   H30537741   3.961   6.351   6.075  0.6225 -2.2720 -1.9811
   99MOL   C30637742   3.616   6.117   6.557 -0.4834 -0.2036 -0.5541
   99MOL   C30737743   3.677   6.010   6.457  0.3845  0.0358  0.0132
   99MOL   C30837744   3.570   5.915   6.403  0.3844  1.1971  0.0424
   99MOL   O30937745   3.474   5.873   6.465 -0.1358 -0.3294  0.1163
   99MOL   N31037746   3.588   5.895   6.267  0.1985  0.3759 -0.7281
   99MOL   C31137747   3.491   5.819   6.191 -0.7228  0.4526  0.1026
   99MOL   C31237748   3.449   5.905   6.073  1.0199  0.6065 -0.4294
   99MOL   C31337749   3.562   5.682   6.143 -0.0780  0.1161  0.2537
   99MOL   H31437750   3.609   6.065   6.653  1.4268 -0.2426 -0.4071
   99MOL   H31537751   3.513   6.136   6.526 -0.1705  4.2592  0.8120
   99MOL   H31637752   3.724   6.068   6.377 -0.9178 -0.0025 -0.8019
   99MOL   H31737753   3.659   5.953   6.223 -1.4460  1.0538 -2.5451
   99MOL   H31837754   3.399   5.784   6.238  0.5148 -2.1016  0.6956
   99MOL   H31937755   3.415   5.998   6.119 -0.2258  0.5322 -1.1993
   99MOL   H32037756   3.359   5.872   6.022 -0.1904  2.9388  0.0906
   99MOL   H32137757   3.532   5.951   6.019  0.4210  1.3878 -0.6813
   99MOL   H32237758   3.605   5.638   6.233  2.5122  2.4911  0.2729
   99MOL   H32337759   3.650   5.699   6.081 -2.1839  0.3645 -2.7453
   99MOL   H32437760   3.492   5.615   6.094 -0.0661  0.5346 -0.3374
   99MOL   C32537761   3.781   5.929   6.540  0.4003 -0.2760 -0.4299
   99MOL   C32637762   3.885   5.839   6.462 -0.5351 -0.2334  0.3309
   99MOL   C32737763   3.951   5.922   6.349  1.0891 -0.1812  0.1365
   99MOL   O32837764   3.970   6.043   6.365  0.3596  0.2256 -0.0305
   99MOL   N32937765   3.989   5.860   6.239 -0.2432  0.4109 -0.7538
   99MOL   C33037766   4.054   5.909   6.121  0.0912  0.3201 -0.8083
   99MOL   C33137767   3.951   5.925   6.014  0.2657 -0.7924 -0.3125
   99MOL   C33237768   4.157   5.808   6.088 -0.7947 -0.2916 -0.5305
   99MOL   H33337769   3.727   5.862   6.607  1.1737 -1.0976 -0.6172
   99MOL   H33437770   3.832   5.982   6.621  1.2832  1.3280 -1.9866
   99MOL   H33537771   3.827   5.760   6.414 -1.1362 -0.1262  0.8816
   99MOL   H33637772   3.947   5.770   6.221  0.5817  0.1645 -1.4492
   99MOL   H33737773   4.100   6.006   6.138 -1.7343  0.9444  0.7109
   99MOL   H33837774   3.901   5.829   6.003 -0.0804 -0.7345  0.7661
   99MOL   H33937775   3.878   5.994   6.057  0.1461 -1.5194  0.6645
   99MOL   H34037776   4.005   5.957   5.925 -0.4432  1.4725  0.0278
   99MOL   H34137777   4.124   5.707   6.062  0.0418 -0.3487 -1.4295
   99MOL   H34237778   4.210   5.797   6.182 -1.5091 -2.0963 -0.3217
   99MOL   H34337779   4.216   5.847   6.005 -1.8177  1.4146 -0.4784
   99MOL   C34437780   4.004   5.766   6.549  0.0737 -0.4209  0.2925
   99MOL   C34537781   3.953   5.671   6.659 -0.4379  0.3826 -0.1089
   99MOL   C34637782   3.854   5.561   6.610  0.6951  0.4773 -0.7862
   99MOL   O34737783   3.881   5.473   6.527  0.6316 -0.2252 -0.0092
   99MOL   N34837784   3.738   5.559   6.666 -0.2698 -0.1584  0.0097
   99MOL   C34937785   3.631   5.470   6.632 -0.4484  0.2514 -1.1347
   99MOL   C35037786   3.552   5.451   6.759 -0.7271  0.0187 -0.5647
   99MOL   C35137787   3.539   5.543   6.524  0.5505  0.5917  0.0117
   99MOL   H35237788   4.055   5.849   6.596  3.0798 -2.8875  1.5793
   99MOL   H35337789   4.065   5.717   6.474  0.9910  0.0592  0.7259
   99MOL   H35437790   3.907   5.732   6.737  0.5155 -0.6590  1.3003
   99MOL   H35537791   3.716   5.629   6.736  1.0829  1.5670 -1.2525
   99MOL   H35637792   3.668   5.373   6.598  0.8880 -0.3573  1.9285
   99MOL   H35737793   3.457   5.413   6.723  0.0930 -1.5539 -1.1473
   99MOL   H35837794   3.600   5.382   6.829 -3.1765 -2.7571 -1.4881
   99MOL   H35937795   3.532   5.547   6.807 -1.2811 -0.8346  0.9583
   99MOL   H36037796   3.509   5.646   6.544  1.1943  0.4333  1.8235
   99MOL   H36137797   3.592   5.564   6.431  2.2961  0.0198  0.8654
   99MOL   H36237798   3.452   5.491   6.483  1.0689  0.9169 -1.5199
   99MOL   C36337799   4.082   5.612   6.723 -0.2756  0.5404 -0.3581
   99MOL   C36437800   4.072   5.561   6.866 -0.8138 -0.3097 -0.3933
   99MOL   C36537801   4.187   5.475   6.917 -0.1684 -0.9799  0.3793
   99MOL   O36637802   4.297   5.472   6.863 -0.1423  0.3785 -0.4458
   99MOL   N36737803   4.153   5.405   7.027  0.6521 -0.2668 -0.5029
   99MOL   C36837804   4.223   5.309   7.108 -0.4678 -0.1532 -0.0823
   99MOL   C36937805   4.212   5.350   7.255  0.2898  0.2366 -0.1289
   99MOL   C37037806   4.169   5.173   7.081 -0.4278 -0.1065 -0.7616
   99MOL   H37137807   4.167   5.678   6.702 -0.4154  1.3325  1.4326
   99MOL   H37237808   4.112   5.530   6.658  1.0292  1.9669 -1.6040
   99MOL   H37337809   3.978   5.507   6.874 -0.5975 -0.2396  3.7079
   99MOL   H37437810   4.066   5.439   7.067  1.1412 -0.0367  0.3673
   99MOL   H37537811   4.327   5.302   7.076  0.0554 -0.0128  1.5128
   99MOL   H37637812   4.256   5.271   7.316  1.5540  2.6489  2.1488
   99MOL   H37737813   4.269   5.442   7.267 -0.1041  0.4178  0.3451
   99MOL   H37837814   4.108   5.367   7.283  0.6222  1.2124  0.5175
   99MOL   H37937815   4.202   5.144   6.981 -1.9906 -2.2116 -0.6894
   99MOL   H38037816   4.203   5.106   7.160 -3.4049 -1.0107 -0.1889
   99MOL   H38137817   4.061   5.172   7.094 -0.5046 -0.5685 -1.3951
   99MOL   H38237818   4.063   5.649   6.930  0.1676  0.6648 -1.5509
  100MOL     C137819   3.842   6.255   2.675 -0.0090 -0.3019  0.2525
  100MOL     C237820   3.915   6.390   2.660  0.0637 -0.1214  0.6418
  100MOL     C337821   4.037   6.405   2.751 -0.0138 -0.3392 -0.5488
  100MOL     O437822   4.147   6.352   2.725 -0.5164 -0.0972 -0.0334
  100MOL     N537823   4.015   6.475   2.866 -0.0878 -0.1040  0.1455
  100MOL     C637824   4.117   6.495   2.968 -0.3025  0.1718 -0.1924
  100MOL     C737825   4.091   6.632   3.029 -0.3003  0.4379  0.4810
  100MOL     C837826   4.112   6.381   3.073  0.1117 -0.7009  0.2965
  100MOL     H937827   3.759   6.250   2.604  0.1151 -1.6099  0.1925
  100MOL    H1037828   3.810   6.243   2.778  0.4459 -2.3090  0.1791
  100MOL    H1137829   3.840   6.464   2.685 -1.5508 -1.8366  1.0217
  100MOL    H1237830   3.932   6.531   2.876  0.8235  1.0619  1.3940
  100MOL    H1337831   4.211   6.500   2.913 -0.2146 -6.1041 -1.0281
  100MOL    H1437832   4.114   6.651   3.134 -1.1270  0.1677  0.7148
  100MOL    H1537833   3.985   6.651   3.011 -0.8617 -1.3103  1.8424
  100MOL    H1637834   4.135   6.708   2.965 -0.8781 -0.9832 -1.6737
  100MOL    H1737835   4.078   6.290   3.023 -0.2359  0.5089 -1.7224
  100MOL    H1837836   4.210   6.368   3.120  0.7159 -2.4791 -1.3822
  100MOL    H1937837   4.050   6.399   3.161  3.4310 -0.9432  2.8032
  100MOL    H2037838   3.910   6.175   2.645 -0.2070 -0.6336  0.6931
  100MOL    C2137839   3.966   6.418   2.514  0.6845 -0.1877  0.4704
  100MOL    C2237840   3.868   6.430   2.397 -0.2817 -0.1770 -0.4925
  100MOL    C2337841   3.952   6.474   2.271  0.2344  0.1749 -0.0104
  100MOL    O2437842   3.952   6.596   2.250  0.7910  0.0303 -0.3070
  100MOL    N2537843   4.041   6.392   2.218 -0.1016  0.7234  0.6028
  100MOL    C2637844   4.125   6.414   2.100  0.0576 -0.3748  0.0960
  100MOL    C2737845   4.227   6.529   2.134 -0.1860 -0.0251  0.5033
  100MOL    C2837846   4.049   6.458   1.973  0.1029  0.1342 -0.0484
  100MOL    H2937847   4.057   6.363   2.489  0.9942  0.3130  0.4735
  100MOL    H3037848   4.026   6.510   2.517  2.3647 -1.2066 -0.7839
  100MOL    H3137849   3.826   6.330   2.382  0.0477 -0.6071  1.2599
  100MOL    H3237850   4.045   6.306   2.272  0.4208 -0.7360 -1.7131
  100MOL    H3337851   4.183   6.323   2.085  1.8197  0.9472 -1.4014
  100MOL    H3437852   4.213   6.614   2.067 -2.0359 -0.5187  0.2383
  100MOL    H3537853   4.323   6.480   2.118 -0.8433 -2.0609  2.4469
  100MOL    H3637854   4.231   6.555   2.239  1.9331  0.1057  0.4003
  100MOL    H3737855   4.043   6.566   1.955  3.3420  0.2299 -0.8999
  100MOL    H3837856   4.104   6.407   1.894 -2.0183 -0.9582 -0.8282
  100MOL    H3937857   3.946   6.423   1.971  0.4299 -0.8806  0.7099
  100MOL    C4037858   3.739   6.507   2.421 -0.6380 -0.7595  0.4154
  100MOL    C4137859   3.636   6.507   2.313 -0.4445  0.2929  0.1796
  100MOL    C4237860   3.541   6.629   2.326  0.8263  0.3833  0.4788
  100MOL    O4337861   3.441   6.621   2.394  0.3154  0.5088 -0.0589
  100MOL    N4437862   3.567   6.728   2.243  0.1196 -0.1867  0.3539
  100MOL    C4537863   3.497   6.855   2.221  0.1032  0.4712  0.7072
  100MOL    C4637864   3.502   6.949   2.348  0.3413 -0.1790 -0.3724
  100MOL    C4737865   3.569   6.913   2.096  0.1488  0.1399  1.2169
  100MOL    H4837866   3.765   6.606   2.458  2.0925 -0.6453 -1.6497
  100MOL    H4937867   3.694   6.456   2.507 -2.6380 -0.1858 -0.2511
  100MOL    H5037868   3.694   6.531   2.224 -0.8392  2.0789  0.3785
  100MOL    H5137869   3.643   6.702   2.181  2.2754  0.4950  2.6768
  100MOL    H5237870   3.394   6.833   2.196 -0.1226  2.8908 -0.5482
  100MOL    H5337871   3.605   6.968   2.376  0.5336 -2.5119  0.6875
  100MOL    H5437872   3.457   6.905   2.438 -0.0123 -0.9169 -0.8986
  100MOL    H5537873   3.454   7.044   2.326 -0.4520 -0.5115 -0.1359
  100MOL    H5637874   3.537   7.016   2.088 -0.6922 -0.1963  0.1817
  100MOL    H5737875   3.537   6.859   2.007  0.9526 -0.0434  1.0410
  100MOL    H5837876   3.678   6.912   2.098  0.1756 -0.2899 -0.3691
  100MOL    C5937877   3.561   6.373   2.280  0.1921  0.6705 -0.9548
  100MOL    C6037878   3.634   6.291   2.178  1.0895 -0.0441  0.5486
  100MOL    C6137879   3.597   6.348   2.041  0.5432 -0.0699  0.0478
  100MOL    O6237880   3.486   6.324   1.992 -0.6291 -0.1158 -0.0721
  100MOL    N6337881   3.685   6.426   1.977 -0.2486  0.3089 -0.2391
  100MOL    C6437882   3.651   6.492   1.848  0.8595  0.3453  0.0521
  100MOL    C6537883   3.598   6.630   1.873 -0.1770  0.1964 -0.4276
  100MOL    C6637884   3.774   6.488   1.754 -0.5195  0.1845 -0.4253
  100MOL    H6737885   3.567   6.316   2.373 -0.9814  0.6609 -0.8824
  100MOL    H6837886   3.456   6.393   2.259 -0.2386 -0.8356 -0.3014
  100MOL    H6937887   3.741   6.311   2.190  0.8707  0.4367  1.8781
  100MOL    H7037888   3.773   6.444   2.022  1.1174 -0.0201 -2.6809
  100MOL    H7137889   3.568   6.445   1.796  0.1910  1.7063 -0.1382
  100MOL    H7237890   3.656   6.680   1.951  0.1158  0.4751 -0.8216
  100MOL    H7337891   3.601   6.699   1.789 -1.7499  3.1074  1.8073
  100MOL    H7437892   3.494   6.628   1.907  0.3604  1.5409  1.3644
  100MOL    H7537893   3.851   6.561   1.780 -0.5281  0.3898 -0.9786
  100MOL    H7637894   3.813   6.387   1.754 -2.4941 -0.7458  4.1179
  100MOL    H7737895   3.739   6.515   1.654  2.0092  1.1563 -1.0820
  100MOL    C7837896   3.604   6.136   2.193 -0.4460 -0.0435  0.1459
  100MOL    C7937897   3.687   6.039   2.089 -0.1256  0.3605  0.4338
  100MOL    C8037898   3.841   6.059   2.098  0.4784  0.4136 -0.7328
  100MOL    O8137899   3.895   6.108   2.200 -0.2479 -0.3640  0.0160
  100MOL    N8237900   3.910   6.015   1.989 -0.1404  0.3986  0.2623
  100MOL    C8337901   4.049   6.048   1.957  0.1461  0.4757  0.4412
  100MOL    C8437902   4.139   5.929   1.984 -0.4913  0.4730 -0.4109
  100MOL    C8537903   4.065   6.105   1.816  0.2701  0.2038  0.0881
  100MOL    H8637904   3.498   6.112   2.187 -0.7747  0.8677  1.8774
  100MOL    H8737905   3.616   6.098   2.294  0.8354  0.3738  0.1562
  100MOL    H8837906   3.659   6.071   1.989  0.0812  3.0201  1.1937
  100MOL    H8937907   3.857   5.975   1.912  0.8763  1.7702 -1.1925
  100MOL    H9037908   4.078   6.128   2.026 -0.6671  0.8734  0.3266
  100MOL    H9137909   4.135   5.859   1.901 -1.0645  0.3100 -0.2480
  100MOL    H9237910   4.240   5.968   1.977 -0.5273  1.1262  2.0714
  100MOL    H9337911   4.116   5.893   2.084  1.1270  0.5313 -0.0029
  100MOL    H9437912   4.008   6.197   1.806  0.6692  0.1011 -3.8597
  100MOL    H9537913   4.027   6.040   1.737 -2.8887  1.6207  0.3590
  100MOL    H9637914   4.168   6.126   1.786  1.0736 -2.2366  1.0055
  100MOL    C9737915   3.643   5.889   2.085 -0.6632 -0.2044 -0.0459
  100MOL    C9837916   3.694   5.806   2.203  0.1560 -0.2241  0.3032
  100MOL    C9937917   3.831   5.740   2.173  0.0931  0.5301 -0.5227
  100MOL   O10037918   3.881   5.726   2.060 -0.1361 -1.2190  0.5221
  100MOL   N10137919   3.886   5.682   2.276  0.9828  0.4391  0.1783
  100MOL   C10237920   3.995   5.595   2.297 -0.3613  0.2589  0.0002
  100MOL   C10337921   4.120   5.668   2.334 -0.5172  0.3705  0.5992
  100MOL   C10437922   3.957   5.488   2.399  0.5437 -0.2800 -0.2951
  100MOL   H10537923   3.680   5.845   1.992  0.6190  1.0491 -0.1487
  100MOL   H10637924   3.536   5.881   2.066 -0.9088 -0.0135  1.2023
  100MOL   H10737925   3.702   5.867   2.294  0.8434 -0.6724  0.5434
  100MOL   H10837926   3.824   5.701   2.353  1.5892  2.8257  0.1121
  100MOL   H10937927   4.014   5.541   2.204 -0.8725  0.3077 -0.1363
  100MOL   H11037928   4.109   5.728   2.425  2.0130 -1.6566  2.2910
  100MOL   H11137929   4.202   5.603   2.363 -0.0303  1.0450  0.7431
  100MOL   H11237930   4.156   5.729   2.251 -0.7949 -0.2254  0.0401
  100MOL   H11337931   3.853   5.456   2.388  0.0625  1.3291 -0.5743
  100MOL   H11437932   3.961   5.540   2.495  1.2602 -0.7620 -0.0646
  100MOL   H11537933   4.016   5.397   2.399 -0.5775 -1.0248 -0.0104
  100MOL   C11637934   3.583   5.706   2.252  0.2668  0.2453  0.0544
  100MOL   C11737935   3.503   5.733   2.375  0.0660 -0.7676  0.6891
  100MOL   C11837936   3.586   5.744   2.502  0.1807  0.1400  0.8863
  100MOL   O11937937   3.692   5.685   2.510  0.0380  0.0446  0.2363
  100MOL   N12037938   3.541   5.822   2.600  0.0968  0.1687 -0.0725
  100MOL   C12137939   3.591   5.829   2.736  0.0235  0.0167  0.1847
  100MOL   C12237940   3.557   5.957   2.811 -0.0914 -0.0761  0.1897
  100MOL   C12337941   3.539   5.710   2.820  0.1628  0.0336  0.8491
  100MOL   H12437942   3.631   5.609   2.264  0.2923  0.3030  0.4010
  100MOL   H12537943   3.514   5.685   2.170  0.3172  0.9992 -0.1816
  100MOL   H12637944   3.463   5.834   2.366 -1.1420 -1.1261  1.8033
  100MOL   H12737945   3.461   5.878   2.572  0.3411  0.7815  0.4228
  100MOL   H12837946   3.700   5.822   2.737 -0.0452 -1.4081  2.6910
  100MOL   H12937947   3.450   5.976   2.826 -0.0190  0.4337  0.0938
  100MOL   H13037948   3.609   6.043   2.768 -0.3600  0.6406  1.2654
  100MOL   H13137949   3.598   5.959   2.912 -1.6835 -0.7471  0.8703
  100MOL   H13237950   3.549   5.712   2.929 -1.4817  0.9187  1.0064
  100MOL   H13337951   3.432   5.702   2.806  0.4226 -1.2265 -0.4605
  100MOL   H13437952   3.575   5.614   2.785  0.1638  0.8226 -1.3785
  100MOL   C13537953   3.373   5.659   2.388  0.3011  0.2318  0.1743
  100MOL   C13637954   3.377   5.506   2.395  0.3794  0.0423 -0.8475
  100MOL   C13737955   3.386   5.453   2.545  0.7068 -0.5258  0.1679
  100MOL   O13837956   3.296   5.491   2.621 -0.5089  0.2650  0.1416
  100MOL   N13937957   3.470   5.359   2.570  1.0222  0.9279  0.2178
  100MOL   C14037958   3.479   5.260   2.680 -0.1497 -0.2227  0.8542
  100MOL   C14137959   3.351   5.179   2.705  0.7441 -0.4170 -0.0013
  100MOL   C14237960   3.525   5.329   2.809 -0.5351  0.5789 -0.1783
  100MOL   H14337961   3.328   5.686   2.292  0.1332 -0.5655  0.0207
  100MOL   H14437962   3.316   5.697   2.473  0.9651  1.4707  0.0659
  100MOL   H14537963   3.462   5.479   2.334 -0.3480 -0.9577 -1.4280
  100MOL   H14637964   3.526   5.338   2.488  0.2191  1.6777 -0.5375
  100MOL   H14737965   3.554   5.188   2.647 -0.5068 -0.9747  1.6649
  100MOL   H14837966   3.263   5.240   2.726  0.6232 -0.0002 -1.6713
  100MOL   H14937967   3.311   5.118   2.624  0.4135  2.3899 -2.0125
  100MOL   H15037968   3.375   5.114   2.789  1.2805  0.0557  0.2154
  100MOL   H15137969   3.535   5.254   2.888  2.8676  2.4506  1.2846
  100MOL   H15237970   3.450   5.401   2.840 -0.4286  0.5802  0.0741
  100MOL   H15337971   3.619   5.383   2.801 -2.3433  3.7178 -1.1155
  100MOL   C15437972   3.252   5.425   2.323  0.9246  0.0251  0.4139
  100MOL   C15537973   3.287   5.309   2.227 -0.2702 -0.1433  0.4047
  100MOL   C15637974   3.381   5.204   2.297 -0.0624  0.5371  0.4120
  100MOL   O15737975   3.501   5.216   2.311  0.5454 -0.2290  0.6031
  100MOL   N15837976   3.315   5.094   2.325 -0.2491 -0.1702  0.4374
  100MOL   C15937977   3.381   4.968   2.363  0.7139  0.4061  0.6046
  100MOL   C16037978   3.457   4.911   2.248 -0.1732 -0.5902  0.4941
  100MOL   C16137979   3.289   4.858   2.414  0.1873  0.1599 -0.6605
  100MOL   H16237980   3.182   5.495   2.278  1.1457 -0.8560 -1.3475
  100MOL   H16337981   3.196   5.386   2.408 -3.4031  3.1344 -0.8402
  100MOL   H16437982   3.198   5.257   2.192 -0.6165  2.1342 -2.3001
  100MOL   H16537983   3.215   5.095   2.307 -0.0109 -1.2102 -0.9732
  100MOL   H16637984   3.453   4.989   2.443  1.8708 -1.8573  0.1956
  100MOL   H16737985   3.395   4.858   2.176 -0.4835 -0.3663  0.5963
  100MOL   H16837986   3.518   4.980   2.190  1.6203 -1.6566  1.0504
  100MOL   H16937987   3.526   4.840   2.294  0.3267 -1.5069 -1.6531
  100MOL   H17037988   3.356   4.777   2.441  2.3207  1.7443 -1.1080
  100MOL   H17137989   3.222   4.830   2.332 -0.0218  0.3214 -0.5467
  100MOL   H17237990   3.234   4.901   2.498 -0.7763  1.3416 -1.8618
  100MOL   C17337991   3.352   5.361   2.097  0.0866 -0.3280 -0.5019
  100MOL   C17437992   3.261   5.416   1.983 -0.1533 -0.4244  0.4934
  100MOL   C17537993   3.347   5.507   1.890 -0.1698 -0.0757 -0.0291
  100MOL   O17637994   3.444   5.458   1.819 -0.2286  0.0730  0.1405
  100MOL   N17737995   3.289   5.629   1.877  1.0150 -0.0600 -0.0998
  100MOL   C17837996   3.323   5.719   1.766  0.1250 -0.5665 -0.2528
  100MOL   C17937997   3.338   5.872   1.808 -0.2376  0.3966  0.3772
  100MOL   C18037998   3.205   5.695   1.672  0.1571 -0.2620 -0.1310
  100MOL   H18137999   3.407   5.281   2.049  2.3568 -0.5849  2.4373
  100MOL   H18238000   3.416   5.444   2.129 -2.8954  1.3688  1.3573
  100MOL   H18338001   3.182   5.479   2.024 -0.9990 -0.5888 -0.8407
  100MOL   H18438002   3.218   5.650   1.946 -0.0701 -0.7456 -0.9884
  100MOL   H18538003   3.415   5.694   1.714 -0.2113 -1.7329 -0.2937
  100MOL   H18638004   3.420   5.887   1.878  0.5992 -1.8734 -0.0478
  100MOL   H18738005   3.254   5.918   1.858 -0.3832  1.3293 -0.7051
  100MOL   H18838006   3.355   5.931   1.717  0.5217 -0.4961 -0.0789
  100MOL   H18938007   3.202   5.590   1.643  1.3871 -0.3490  0.0201
  100MOL   H19038008   3.225   5.759   1.586  2.7617  0.5121  1.0105
  100MOL   H19138009   3.106   5.721   1.711  0.5538 -1.2122  1.5407
  100MOL   C19238010   3.219   5.291   1.909 -0.2431 -0.5028 -0.5249
  100MOL   C19338011   3.107   5.299   1.796  0.0248 -0.3450 -0.2363
  100MOL   C19438012   2.972   5.368   1.849  0.0475 -0.0210  0.1414
  100MOL   O19538013   2.964   5.402   1.967  0.2969 -0.2537 -0.4660
  100MOL   N19638014   2.883   5.386   1.754 -0.1916  0.0604 -0.3708
  100MOL   C19738015   2.748   5.449   1.774 -0.1450 -0.0046 -0.0901
  100MOL   C19838016   2.780   5.599   1.779  0.5286 -0.3827 -0.2012
  100MOL   C19938017   2.656   5.406   1.664  0.5954 -0.2756 -0.5765
  100MOL   H20038018   3.186   5.228   1.991  1.3019  2.0654  2.1605
  100MOL   H20138019   3.310   5.255   1.859 -0.2268  1.0844 -1.6870
  100MOL   H20238020   3.142   5.375   1.726 -1.3138  1.9397  1.4993
  100MOL   H20338021   2.902   5.347   1.663 -2.5241 -0.1588 -0.7867
  100MOL   H20438022   2.702   5.429   1.870  0.8509  2.0282  0.8322
  100MOL   H20538023   2.836   5.622   1.870 -0.8438 -0.1022  0.5854
  100MOL   H20638024   2.683   5.649   1.777  0.8879  0.4232  1.5127
  100MOL   H20738025   2.841   5.634   1.696  1.3593 -1.0909  0.1077
  100MOL   H20838026   2.550   5.405   1.690  0.4304  0.7783 -1.2068
  100MOL   H20938027   2.689   5.314   1.614  1.9169 -0.8894  1.3535
  100MOL   H21038028   2.652   5.478   1.583 -1.1984  1.4951  1.0431
  100MOL   C21138029   3.087   5.168   1.728  0.5031  0.7547  0.0648
  100MOL   C21238030   3.130   5.152   1.581  0.3081  0.4899 -0.1202
  100MOL   C21338031   3.009   5.168   1.491 -0.6423  0.1193 -0.7305
  100MOL   O21438032   2.940   5.268   1.508 -0.0177  0.1147  0.4472
  100MOL   N21538033   2.983   5.070   1.402  0.9717 -0.7538  0.9108
  100MOL   C21638034   2.868   5.061   1.311 -0.3315  0.2749  0.6376
  100MOL   C21738035   2.771   4.953   1.352  0.3595 -0.1251 -0.8428
  100MOL   C21838036   2.911   5.039   1.161 -0.1042 -0.1688 -0.9925
  100MOL   H21938037   2.980   5.146   1.739  0.6685 -0.0139  0.2245
  100MOL   H22038038   3.136   5.094   1.792 -1.3306 -1.3042 -0.8494
  100MOL   H22138039   3.168   5.052   1.561  1.5647  0.6193  1.5807
  100MOL   H22238040   3.052   4.996   1.392 -0.2376 -1.7045 -0.6493
  100MOL   H22338041   2.819   5.158   1.312  0.1980  0.5490 -0.0066
  100MOL   H22438042   2.767   4.940   1.460 -0.9840 -1.4046 -1.0238
  100MOL   H22538043   2.673   4.975   1.310  0.5115  2.1847 -0.0155
  100MOL   H22638044   2.815   4.861   1.314 -0.2085 -1.4727  1.6513
  100MOL   H22738045   2.832   5.018   1.089 -2.2972  0.9772  1.0090
  100MOL   H22838046   2.969   4.947   1.157 -2.8943 -2.0413  0.4531
  100MOL   H22938047   2.990   5.105   1.125  1.8919 -2.6995 -1.4698
  100MOL   C23038048   3.245   5.240   1.536  0.5199 -0.0042 -0.5410
  100MOL   C23138049   3.351   5.181   1.446 -0.2188  0.5457 -0.6034
  100MOL   C23238050   3.301   5.127   1.313 -0.1511  0.7906 -0.1331
  100MOL   O23338051   3.278   5.205   1.217  0.0601  0.0777  0.4605
  100MOL   N23438052   3.274   4.995   1.302  0.3114 -0.2377 -0.3162
  100MOL   C23538053   3.250   4.925   1.180 -0.1070 -0.2362 -0.1131
  100MOL   C23638054   3.374   4.914   1.086 -0.0732  0.3226 -0.4489
  100MOL   C23738055   3.181   4.789   1.203 -0.1278  0.2667 -0.8432
  100MOL   H23838056   3.292   5.288   1.622  0.3188 -2.0892  0.7879
  100MOL   H23938057   3.200   5.320   1.477 -1.6951 -0.0639  1.0222
  100MOL   H24038058   3.385   5.099   1.509  1.5184  2.3291  0.8519
  100MOL   H24138059   3.305   4.944   1.383  0.7655  0.9351  0.2691
  100MOL   H24238060   3.175   4.979   1.123 -0.9068 -0.6254  0.5565
  100MOL   H24338061   3.336   4.904   0.984 -0.9981  1.5227 -0.2341
  100MOL   H24438062   3.431   5.007   1.092  0.2944  0.0170  0.9210
  100MOL   H24538063   3.433   4.826   1.112 -2.7826 -1.5917 -0.4937
  100MOL   H24638064   3.252   4.719   1.246  0.0887 -0.2445 -2.0044
  100MOL   H24738065   3.160   4.756   1.101  0.3452  1.6287 -1.3927
  100MOL   H24838066   3.088   4.802   1.258 -0.2518 -0.9277 -0.7701
  100MOL   C24938067   3.462   5.288   1.418 -0.1983 -0.1129 -0.3629
  100MOL   C25038068   3.571   5.310   1.530  0.3562  0.2969  0.2485
  100MOL   C25138069   3.646   5.444   1.502 -0.2023  0.4206  0.5415
  100MOL   O25238070   3.701   5.463   1.395  0.4213  0.0431 -0.1287
  100MOL   N25338071   3.646   5.538   1.599 -0.7565 -0.3999 -0.0068
  100MOL   C25438072   3.717   5.666   1.589  0.2348  0.2264  0.2212
  100MOL   C25538073   3.640   5.763   1.508 -0.1465 -0.5830  0.2729
  100MOL   C25638074   3.755   5.712   1.732  0.2821  0.3343  0.2771
  100MOL   H25738075   3.413   5.384   1.405 -0.4601 -0.1875  0.0434
  100MOL   H25838076   3.517   5.265   1.327  2.0106  2.5372  0.2474
  100MOL   H25938077   3.514   5.307   1.623  0.7152 -1.3188  0.4372
  100MOL   H26038078   3.613   5.513   1.691  0.1740  0.2756  0.5315
  100MOL   H26138079   3.812   5.652   1.538 -0.3512  2.7057 -1.6206
  100MOL   H26238080   3.537   5.769   1.543 -0.8848 -1.2256 -1.7306
  100MOL   H26338081   3.681   5.864   1.512  0.2753 -0.7605  0.4323
  100MOL   H26438082   3.654   5.745   1.402  0.9640  1.0694  0.1175
  100MOL   H26538083   3.667   5.754   1.780  0.5240 -0.4534  1.4473
  100MOL   H26638084   3.777   5.625   1.795 -1.1901  1.1006  1.8978
  100MOL   H26738085   3.842   5.778   1.727  1.7282 -1.4857  0.6925
  100MOL   C26838086   3.677   5.197   1.520  0.5389 -0.1086  0.2571
  100MOL   C26938087   3.799   5.196   1.616  0.2587 -0.1423 -0.1674
  100MOL   C27038088   3.755   5.168   1.760 -0.0922 -0.1375 -0.3061
  100MOL   O27138089   3.734   5.052   1.802  0.0559 -0.6564 -0.0952
  100MOL   N27238090   3.768   5.274   1.842  0.2896  0.3583  0.4954
  100MOL   C27338091   3.773   5.271   1.986 -0.0428 -0.4747 -0.4828
  100MOL   C27438092   3.918   5.238   2.033 -0.0728  0.8898  0.4353
  100MOL   C27538093   3.721   5.403   2.046 -0.3932 -0.0597 -0.3034
  100MOL   H27638094   3.624   5.104   1.539 -0.7907  0.2290 -1.7444
  100MOL   H27738095   3.715   5.186   1.419 -1.2233  0.3645 -0.4644
  100MOL   H27838096   3.845   5.295   1.613  0.1283 -0.0998 -0.9440
  100MOL   H27938097   3.786   5.364   1.800 -0.1011  0.2121  0.0037
  100MOL   H28038098   3.710   5.194   2.031 -1.6054  1.0518 -0.0341
  100MOL   H28138099   3.940   5.136   2.000  0.6800  0.9131  0.8616
  100MOL   H28238100   3.985   5.318   2.003  0.6252  0.7348  1.5456
  100MOL   H28338101   3.914   5.246   2.142  0.3082  1.2893  0.4217
  100MOL   H28438102   3.788   5.486   2.026 -1.1610  0.6033 -0.1618
  100MOL   H28538103   3.623   5.412   1.998 -0.3589 -0.2851 -0.4178
  100MOL   H28638104   3.706   5.396   2.153  0.8489  0.5153 -0.0906
  100MOL   C28738105   3.920   5.108   1.568  0.1922 -0.2808  0.2265
  100MOL   C28838106   4.053   5.108   1.651  0.1955 -0.3228  1.0710
  100MOL   C28938107   4.117   5.244   1.646 -0.1886  0.4501 -1.2548
  100MOL   O29038108   4.160   5.289   1.537 -0.4307 -0.1452 -0.3895
  100MOL   N29138109   4.120   5.311   1.763  0.4904 -0.6368  0.3887
  100MOL   C29238110   4.175   5.447   1.773  0.4169  0.4185  0.1908
  100MOL   C29338111   4.063   5.547   1.790 -0.2517  0.0763  0.3568
  100MOL   C29438112   4.275   5.455   1.887  0.0276 -0.9465  0.2447
  100MOL   H29538113   3.891   5.003   1.568 -1.9261  0.2723  1.4716
  100MOL   H29638114   3.949   5.137   1.467  0.0946 -1.0866 -0.0379
  100MOL   H29738115   4.028   5.089   1.755  0.1985  0.9843  1.3241
  100MOL   H29838116   4.067   5.272   1.840  1.1905 -0.5499  0.9146
  100MOL   H29938117   4.228   5.483   1.684 -0.5134 -2.3690 -1.5634
  100MOL   H30038118   4.014   5.530   1.886 -1.6915 -2.0859 -0.7206
  100MOL   H30138119   4.099   5.650   1.783 -0.5866  0.0493 -2.1929
  100MOL   H30238120   3.989   5.529   1.712  0.0333 -0.3553  0.1850
  100MOL   H30338121   4.316   5.555   1.901  0.5925 -1.0853 -0.4059
  100MOL   H30438122   4.227   5.416   1.977 -2.0447  1.1457  0.0982
  100MOL   H30538123   4.367   5.399   1.872  0.2600 -1.0884  2.0574
  100MOL   C30638124   4.160   4.997   1.607 -0.4008  0.9669 -0.3877
  100MOL   C30738125   4.279   4.967   1.696  0.3784 -0.1227  0.0220
  100MOL   C30838126   4.229   4.941   1.838  1.0601 -0.4072 -1.3783
  100MOL   O30938127   4.194   5.035   1.916 -0.3133  0.0196  0.0209
  100MOL   N31038128   4.246   4.813   1.874  0.0305 -0.5714  0.2766
  100MOL   C31138129   4.240   4.764   2.011  0.6843 -0.4547 -0.2196
  100MOL   C31238130   4.091   4.740   2.048  0.5471 -0.4708 -0.0490
  100MOL   C31338131   4.318   4.639   2.024 -0.1768 -0.1507  0.6531
  100MOL   H31438132   4.115   4.899   1.593  1.3318 -0.1025  1.3154
  100MOL   H31538133   4.200   5.012   1.507  1.9913 -1.8256  0.0815
  100MOL   H31638134   4.324   4.879   1.651 -0.4648 -0.7394  0.3830
  100MOL   H31738135   4.288   4.753   1.805 -1.4621  0.7377 -1.8351
  100MOL   H31838136   4.287   4.837   2.077 -0.9849  0.2910  0.1597
  100MOL   H31938137   4.023   4.817   2.013 -0.4674  0.3076  3.4653
  100MOL   H32038138   4.074   4.741   2.156 -2.3650  1.3523 -0.4699
  100MOL   H32138139   4.054   4.648   2.003  1.0729 -0.5762 -0.2659
  100MOL   H32238140   4.310   4.593   2.122 -1.3929 -0.3314  0.4763
  100MOL   H32338141   4.425   4.650   2.004 -0.2769  0.8338  0.6620
  100MOL   H32438142   4.285   4.560   1.956 -0.4248  1.1873 -0.8029
  100MOL   C32538143   4.382   5.081   1.691 -0.0878 -0.4237 -0.6920
  100MOL   C32638144   4.529   5.030   1.680  0.4380  0.0612  0.1205
  100MOL   C32738145   4.624   5.143   1.642 -0.1317  0.3585 -0.5072
  100MOL   O32838146   4.667   5.224   1.726  0.1468 -0.4486  0.4485
  100MOL   N32938147   4.645   5.160   1.510  0.5895 -0.1062 -0.3049
  100MOL   C33038148   4.711   5.284   1.459 -0.2049  0.0305 -0.1787
  100MOL   C33138149   4.601   5.389   1.457 -0.3489  0.0509  0.6240
  100MOL   C33238150   4.762   5.255   1.318 -0.1707  0.4163  0.4082
  100MOL   H33338151   4.376   5.145   1.779  1.7075 -2.1893  0.7776
  100MOL   H33438152   4.365   5.146   1.605 -0.8095 -1.2879 -1.2149
  100MOL   H33538153   4.550   4.952   1.608 -2.5288 -0.1091 -0.6461
  100MOL   H33638154   4.596   5.096   1.449 -0.8261  0.3257  0.3597
  100MOL   H33738155   4.796   5.320   1.517  1.3607 -2.0685 -1.0834
  100MOL   H33838156   4.576   5.403   1.562 -0.9233 -0.7869  0.6066
  100MOL   H33938157   4.629   5.487   1.418  2.1075 -1.2075 -0.9112
  100MOL   H34038158   4.515   5.354   1.401  0.3683  0.0961 -0.5096
  100MOL   H34138159   4.770   5.355   1.276  1.9814  1.3184  2.8238
  100MOL   H34238160   4.695   5.191   1.261 -2.5206  0.4272  3.0373
  100MOL   H34338161   4.859   5.208   1.335 -0.4224 -0.1061  0.4232
  100MOL   C34438162   4.561   4.967   1.822 -0.9249 -0.1638 -0.7876
  100MOL   C34538163   4.704   4.908   1.837 -0.0276 -0.1819 -0.9073
  100MOL   C34638164   4.721   4.883   1.986  0.0389 -0.0288  0.3915
  100MOL   O34738165   4.634   4.817   2.046  0.6368 -0.3681 -0.2171
  100MOL   N34838166   4.831   4.937   2.042 -0.3623  0.1859  0.2185
  100MOL   C34938167   4.870   4.949   2.182  0.1167  0.1603 -0.0595
  100MOL   C35038168   5.003   5.002   2.202 -0.3393  0.1771 -0.8617
  100MOL   C35138169   4.775   5.044   2.258 -0.1569 -0.4145 -0.2791
  100MOL   H35238170   4.496   4.887   1.859 -2.2892  0.7808 -1.1261
  100MOL   H35338171   4.549   5.047   1.895  1.2698  0.4465 -1.0740
  100MOL   H35438172   4.775   4.987   1.816 -1.1040  1.0082 -0.1025
  100MOL   H35538173   4.880   4.992   1.973 -0.0143 -0.8923 -0.4015
  100MOL   H35638174   4.855   4.848   2.220  1.9727 -0.2351 -0.3634
  100MOL   H35738175   5.020   5.099   2.157  0.0978  1.4106  1.8478
  100MOL   H35838176   5.021   5.013   2.309  1.1393  2.0324 -1.2662
  100MOL   H35938177   5.066   4.917   2.177 -0.6725 -0.6840  1.1228
  100MOL   H36038178   4.691   4.991   2.303  0.1676 -0.9824 -0.3375
  100MOL   H36138179   4.825   5.105   2.333  0.4722  0.0058 -1.0235
  100MOL   H36238180   4.732   5.109   2.181  0.0113 -0.2960 -0.2744
  100MOL   C36338181   4.727   4.783   1.753 -0.0967 -0.2636  0.6098
  100MOL   C36438182   4.861   4.714   1.774  1.1011  0.5434  0.1864
  100MOL   C36538183   4.872   4.576   1.690  0.1158 -0.6167 -0.0137
  100MOL   O36638184   4.782   4.542   1.616  0.3418  0.3244  0.6442
  100MOL   N36738185   4.988   4.509   1.707  0.2337  0.1785  1.0041
  100MOL   C36838186   5.002   4.369   1.668 -0.8885 -0.2138 -0.9335
  100MOL   C36938187   5.046   4.359   1.519  0.3503  0.0897  0.3365
  100MOL   C37038188   5.094   4.297   1.766 -0.4290 -0.2047 -0.7703
  100MOL   H37138189   4.722   4.819   1.650  0.0329  0.7525  0.9599
  100MOL   H37238190   4.642   4.717   1.774 -1.2295  1.1187  0.4504
  100MOL   H37338191   4.878   4.693   1.880 -0.8749  0.4203  0.5001
  100MOL   H37438192   5.055   4.549   1.770  1.1082  1.1892 -0.5401
  100MOL   H37538193   4.904   4.322   1.668 -0.8889 -0.2253 -2.5232
  100MOL   H37638194   4.975   4.421   1.464  1.5940  0.9927 -0.2532
  100MOL   H37738195   5.150   4.390   1.511  0.5149  0.0680  2.2722
  100MOL   H37838196   5.027   4.266   1.464 -4.2581  1.6073 -0.8667
  100MOL   H37938197   5.190   4.348   1.775 -1.8682  2.5591 -0.6096
  100MOL   H38038198   5.050   4.315   1.864 -0.6864 -0.3884 -0.8528
  100MOL   H38138199   5.094   4.191   1.741  2.8521 -0.2064 -0.9812
  100MOL   H38238200   4.937   4.784   1.739  1.6490 -0.5893 -0.9152
  101MOL     C138201   1.531   5.222   1.454  0.1668 -0.6605 -0.0041
  101MOL     C238202   1.547   5.115   1.562 -0.1927  0.5117 -0.5438
  101MOL     C338203   1.507   5.159   1.706 -0.5807  0.0991  0.4547
  101MOL     O438204   1.387   5.165   1.726  0.4799 -0.0856  0.8354
  101MOL     N538205   1.601   5.179   1.795  0.1795 -0.0936  0.1285
  101MOL     C638206   1.576   5.196   1.939 -0.5218 -0.5529 -0.9658
  101MOL     C738207   1.560   5.061   2.011 -0.6028 -0.6004 -0.2045
  101MOL     C838208   1.681   5.286   2.007 -0.3862  0.1958  0.5755
  101MOL     H938209   1.583   5.314   1.483 -1.1872  0.3447 -0.6564
  101MOL    H1038210   1.427   5.247   1.434  0.1966  0.7420  1.4235
  101MOL    H1138211   1.651   5.083   1.575 -0.8277 -0.5531  2.4213
  101MOL    H1238212   1.694   5.201   1.763  0.5764 -0.3385  1.0777
  101MOL    H1338213   1.487   5.258   1.948  1.2511  1.8800  0.3325
  101MOL    H1438214   1.505   4.990   1.948  2.1534 -1.9532 -1.1642
  101MOL    H1538215   1.514   5.064   2.110  1.4214  0.6897  0.7255
  101MOL    H1638216   1.657   5.020   2.040 -0.2221 -0.2185 -0.9227
  101MOL    H1738217   1.639   5.335   2.095  0.2925 -1.8346  2.0766
  101MOL    H1838218   1.758   5.226   2.056 -0.2493 -0.9721 -1.0491
  101MOL    H1938219   1.736   5.358   1.947  0.7618 -1.9328 -0.9687
  101MOL    H2038220   1.578   5.192   1.360  1.8335  1.4755  0.1001
  101MOL    C2138221   1.474   4.984   1.522 -0.1497 -0.3632  0.1213
  101MOL    C2238222   1.538   4.852   1.555  0.3703 -0.2256 -0.6243
  101MOL    C2338223   1.574   4.826   1.703 -0.0730 -1.0628  0.1503
  101MOL    O2438224   1.665   4.888   1.762  0.1900  0.1189  0.0878
  101MOL    N2538225   1.494   4.738   1.762 -1.0707  0.5903  0.2121
  101MOL    C2638226   1.513   4.701   1.905 -0.1219  0.5661  0.0006
  101MOL    C2738227   1.576   4.553   1.909 -0.2051  0.9529 -0.4283
  101MOL    C2838228   1.376   4.705   1.973  0.8554 -0.3754  0.3129
  101MOL    H2938229   1.448   4.990   1.416 -0.7657 -0.5937  0.2535
  101MOL    H3038230   1.377   4.990   1.572  0.5942  0.0088  1.5501
  101MOL    H3138231   1.463   4.780   1.523  1.2335 -1.7386  0.6622
  101MOL    H3238232   1.436   4.674   1.710 -1.5093 -1.1963  2.7725
  101MOL    H3338233   1.580   4.769   1.959 -1.3339  2.1270 -0.4487
  101MOL    H3438234   1.505   4.482   1.867  0.2314  1.1292 -1.4867
  101MOL    H3538235   1.605   4.517   2.007  1.0792  2.2111 -0.3389
  101MOL    H3638236   1.655   4.537   1.835 -1.0566  1.0435 -1.3697
  101MOL    H3738237   1.309   4.648   1.908  0.8357  0.1069 -0.0874
  101MOL    H3838238   1.381   4.663   2.074 -0.2011  1.0242  0.9537
  101MOL    H3938239   1.343   4.807   1.992  1.6138  0.0644 -0.6858
  101MOL    C4038240   1.663   4.835   1.467 -0.9867 -0.0697  0.0515
  101MOL    C4138241   1.716   4.682   1.459  0.0398  0.7909 -0.3536
  101MOL    C4238242   1.852   4.675   1.384 -0.2441  0.0536 -0.4115
  101MOL    O4338243   1.912   4.775   1.344  0.2577 -0.3735  0.0641
  101MOL    N4438244   1.897   4.558   1.351 -0.0475  0.8416 -0.1952
  101MOL    C4538245   2.010   4.521   1.268 -0.2902 -0.5895 -0.1152
  101MOL    C4638246   2.050   4.373   1.297 -0.2542 -0.1776 -0.2050
  101MOL    C4738247   1.974   4.547   1.124  0.1368 -0.4455 -0.4927
  101MOL    H4838248   1.741   4.899   1.508  0.1654 -1.1710 -0.3690
  101MOL    H4938249   1.639   4.857   1.363 -0.9363 -1.0929 -0.1799
  101MOL    H5038250   1.732   4.666   1.566  1.9971  2.0580 -0.4246
  101MOL    H5138251   1.837   4.478   1.365  0.2003  0.3033 -2.0422
  101MOL    H5238252   2.099   4.580   1.289  0.1394 -2.2674  3.1491
  101MOL    H5338253   2.136   4.344   1.237  0.6494  1.1989  0.4119
  101MOL    H5438254   1.970   4.300   1.284 -0.4941  0.0829 -0.1783
  101MOL    H5538255   2.075   4.355   1.401  1.2543 -1.2049 -0.7272
  101MOL    H5638256   1.891   4.485   1.089  1.1454 -2.0608 -0.0398
  101MOL    H5738257   2.057   4.522   1.059 -0.4138 -3.6077 -0.0292
  101MOL    H5838258   1.917   4.640   1.118  0.5506  0.0527  2.4707
  101MOL    C5938259   1.609   4.595   1.381 -0.1302 -0.0872  0.0795
  101MOL    C6038260   1.535   4.497   1.476  0.1515 -0.4414 -0.1325
  101MOL    C6138261   1.622   4.381   1.538  0.7689 -0.3267 -0.9407
  101MOL    O6238262   1.721   4.341   1.473  0.0975  0.4716 -0.0307
  101MOL    N6338263   1.590   4.336   1.660 -0.0137 -0.3341  0.0956
  101MOL    C6438264   1.645   4.214   1.725  0.1130  0.2597 -0.1845
  101MOL    C6538265   1.801   4.226   1.752 -0.1130 -0.7624 -0.7584
  101MOL    C6638266   1.570   4.193   1.865 -0.4983 -0.7878 -0.5450
  101MOL    H6738267   1.535   4.656   1.328  0.6277 -2.7426 -4.3401
  101MOL    H6838268   1.659   4.527   1.312 -1.3516 -1.3697  0.4163
  101MOL    H6938269   1.490   4.557   1.555 -1.3001  0.4008 -1.5499
  101MOL    H7038270   1.532   4.398   1.714  0.1739 -2.3858  2.7689
  101MOL    H7138271   1.610   4.133   1.661  1.4142  0.6982 -1.4597
  101MOL    H7238272   1.857   4.242   1.660  1.4699 -2.4140 -0.1200
  101MOL    H7338273   1.820   4.295   1.835  3.2721 -0.7837 -1.4524
  101MOL    H7438274   1.839   4.128   1.781  2.0090  0.9334  2.4532
  101MOL    H7538275   1.595   4.270   1.938 -2.6585  1.0051 -1.6554
  101MOL    H7638276   1.463   4.176   1.863 -1.0424  2.3989 -0.6885
  101MOL    H7738277   1.606   4.104   1.918 -1.1706 -0.7746 -0.0642
  101MOL    C7838278   1.424   4.428   1.394  0.5167  0.7247 -0.6271
  101MOL    C7938279   1.325   4.330   1.472 -0.1254 -0.6937 -0.4941
  101MOL    C8038280   1.252   4.401   1.592 -0.6102  0.7828  0.0312
  101MOL    O8138281   1.237   4.528   1.588  0.0021  0.3251 -0.4317
  101MOL    N8238282   1.206   4.316   1.686 -0.1878  0.8437 -0.4378
  101MOL    C8338283   1.117   4.370   1.784 -0.2787  0.8581 -0.4524
  101MOL    C8438284   0.975   4.404   1.740 -0.5795 -0.1779 -0.3934
  101MOL    C8538285   1.106   4.268   1.900 -0.3812  0.0490 -0.0044
  101MOL    H8638286   1.464   4.366   1.314  0.5034 -2.7481  1.9749
  101MOL    H8738287   1.370   4.498   1.331  0.3684  1.6853  0.5523
  101MOL    H8838288   1.385   4.246   1.505  0.1445 -0.8934 -1.4748
  101MOL    H8938289   1.225   4.217   1.681 -0.4819  0.6324  1.9280
  101MOL    H9038290   1.166   4.457   1.828  0.4939 -0.0974  0.6026
  101MOL    H9138291   0.920   4.330   1.681 -0.2218 -0.8559  0.1231
  101MOL    H9238292   0.918   4.446   1.823  2.8620  2.0479  0.9311
  101MOL    H9338293   0.986   4.496   1.682 -2.2359  0.1760 -0.1962
  101MOL    H9438294   1.203   4.258   1.948  0.6618  1.7958 -1.7065
  101MOL    H9538295   1.076   4.172   1.856  0.2728  0.0869 -0.5285
  101MOL    H9638296   1.043   4.284   1.988  0.8401 -1.5585  1.1858
  101MOL    C9738297   1.207   4.282   1.386  0.3426 -0.1169  0.3422
  101MOL    C9838298   1.244   4.159   1.304 -0.1889  0.3427  0.3083
  101MOL    C9938299   1.345   4.187   1.189  0.5644  0.1848  0.2692
  101MOL   O10038300   1.339   4.288   1.118  0.0855 -0.0670  0.2430
  101MOL   N10138301   1.453   4.103   1.183 -0.0489  0.4461 -0.4094
  101MOL   C10238302   1.562   4.113   1.091  0.1985 -0.2583  0.4420
  101MOL   C10338303   1.680   4.047   1.157  0.6508  0.1039  0.8499
  101MOL   C10438304   1.526   4.050   0.965  0.1545 -0.1949 -0.0932
  101MOL   H10538305   1.176   4.364   1.320  0.0972  0.1592  0.7988
  101MOL   H10638306   1.119   4.261   1.446  0.2219  2.4003  1.0882
  101MOL   H10738307   1.290   4.074   1.354 -1.4776 -0.2735  0.4863
  101MOL   H10838308   1.459   4.018   1.239  1.2063  1.0278  0.3636
  101MOL   H10938309   1.596   4.214   1.066  1.6721 -0.7603  0.3880
  101MOL   H11038310   1.741   4.116   1.216  2.4563 -1.5296  0.9350
  101MOL   H11138311   1.651   3.960   1.216 -0.9695  0.0985  0.0922
  101MOL   H11238312   1.739   4.002   1.077 -0.3382  1.1921 -0.5135
  101MOL   H11338313   1.440   4.094   0.915  0.0134 -0.6496 -0.2583
  101MOL   H11438314   1.493   3.948   0.984  1.9406 -0.5419  1.3393
  101MOL   H11538315   1.604   4.036   0.889  0.2805 -1.2326  0.2196
  101MOL   C11638316   1.114   4.100   1.246  0.1668  0.4158 -0.0601
  101MOL   C11738317   1.118   3.962   1.168  0.2356  0.5490  0.1109
  101MOL   C11838318   0.996   3.958   1.069  0.4404 -0.4680  0.6067
  101MOL   O11938319   0.880   3.979   1.112 -0.0634 -0.4587  0.0654
  101MOL   N12038320   1.023   3.932   0.941  0.1931 -0.2358  0.3634
  101MOL   C12138321   0.920   3.886   0.846  0.2709 -0.1655  0.0479
  101MOL   C12238322   0.847   4.005   0.781  0.3657  0.1437  0.2843
  101MOL   C12338323   0.975   3.798   0.737 -0.5250 -0.8782  0.1293
  101MOL   H12438324   1.063   4.164   1.174 -0.2599  1.6979  1.3596
  101MOL   H12538325   1.036   4.105   1.322  1.5971 -1.6804  1.5776
  101MOL   H12638326   1.205   3.959   1.103 -0.5022 -1.7583 -0.8000
  101MOL   H12738327   1.121   3.915   0.927  0.4761  4.2917 -4.6565
  101MOL   H12838328   0.842   3.827   0.893  2.4583 -1.7568  1.7724
  101MOL   H12938329   0.908   4.079   0.728  0.2222 -1.0491 -1.6022
  101MOL   H13038330   0.794   4.070   0.850  0.8010  1.5026 -0.6473
  101MOL   H13138331   0.776   3.966   0.707 -0.3185  0.3269  0.8466
  101MOL   H13238332   1.063   3.838   0.687  0.5276 -2.5931  0.5643
  101MOL   H13338333   1.005   3.708   0.790  1.9442  0.4276  1.0335
  101MOL   H13438334   0.898   3.765   0.668 -1.6478  0.2686  0.8136
  101MOL   C13538335   1.130   3.841   1.260  0.6786 -0.0385 -0.1271
  101MOL   C13638336   1.128   3.704   1.181  0.2291  0.2617  0.0833
  101MOL   C13738337   1.246   3.688   1.084 -0.2911  0.4174 -0.0185
  101MOL   O13838338   1.362   3.730   1.114  0.4324  0.7989  0.3871
  101MOL   N13938339   1.227   3.632   0.965  0.1416  0.4688 -0.4127
  101MOL   C14038340   1.329   3.596   0.866  0.2196 -0.7813  0.0784
  101MOL   C14138341   1.367   3.708   0.770 -0.7695  0.3106 -0.3887
  101MOL   C14238342   1.299   3.464   0.799  0.8029 -0.1420 -0.3443
  101MOL   H14338343   1.052   3.848   1.336  1.2575  2.7040  0.2600
  101MOL   H14438344   1.219   3.832   1.322  0.7647  1.3470 -0.0361
  101MOL   H14538345   1.038   3.705   1.119  0.9399  0.0570 -0.9709
  101MOL   H14638346   1.141   3.587   0.938 -0.4593  1.1286  0.3749
  101MOL   H14738347   1.422   3.584   0.921 -0.3645  1.0938  1.5037
  101MOL   H14838348   1.286   3.734   0.701  0.8550  1.7537 -1.7879
  101MOL   H14938349   1.402   3.795   0.824  0.7437 -0.0200 -0.8088
  101MOL   H15038350   1.449   3.686   0.702 -0.3382  0.3663  0.1138
  101MOL   H15138351   1.208   3.474   0.740  0.1207 -0.4830  0.6481
  101MOL   H15238352   1.280   3.390   0.877 -0.1990  3.7930  3.3596
  101MOL   H15338353   1.376   3.420   0.736  1.4667  1.2516 -0.5487
  101MOL   C15438354   1.117   3.589   1.274 -0.4337  0.3450  0.1039
  101MOL   C15538355   1.095   3.444   1.221  1.2007  0.1038 -0.1459
  101MOL   C15638356   0.969   3.429   1.133 -0.2742 -0.4833  0.5429
  101MOL   O15738357   0.867   3.474   1.178 -0.3454  0.0096 -0.2856
  101MOL   N15838358   0.981   3.361   1.014  0.2943  1.3111  0.1521
  101MOL   C15938359   0.871   3.333   0.925  0.8124 -0.2378  0.0051
  101MOL   C16038360   0.893   3.202   0.847  0.5276 -0.5901  0.8231
  101MOL   C16138361   0.860   3.448   0.824  0.4273  0.0945 -0.1812
  101MOL   H16238362   1.034   3.609   1.341 -1.5063  1.2045 -1.4431
  101MOL   H16338363   1.203   3.581   1.341 -0.0336 -2.0873 -0.6429
  101MOL   H16438364   1.174   3.421   1.150 -1.2552 -1.1888 -2.5524
  101MOL   H16538365   1.066   3.316   0.984 -0.7923 -0.5781 -0.1474
  101MOL   H16638366   0.786   3.319   0.991  2.0545  2.0790  2.1963
  101MOL   H16738367   0.951   3.131   0.907 -0.3389 -1.4369  0.6591
  101MOL   H16838368   0.793   3.171   0.819 -0.1084  1.0472  1.2135
  101MOL   H16938369   0.964   3.215   0.765  1.4192 -0.3525  1.6125
  101MOL   H17038370   0.779   3.426   0.754 -1.0113  1.1158  1.1372
  101MOL   H17138371   0.955   3.487   0.785  0.5768  1.7393  1.7449
  101MOL   H17238372   0.823   3.536   0.877 -0.1776 -0.7109  0.7171
  101MOL   C17338373   1.093   3.339   1.336 -0.0864  0.5362 -0.6685
  101MOL   C17438374   1.223   3.260   1.357 -0.5282  0.4384  0.4117
  101MOL   C17538375   1.260   3.165   1.243  0.3040  0.0940  0.2322
  101MOL   O17638376   1.213   3.178   1.130 -0.4968  0.3092  0.2401
  101MOL   N17738377   1.355   3.076   1.267 -0.4727 -0.1755  1.1020
  101MOL   C17838378   1.409   2.973   1.189 -0.0826  0.6298  0.0111
  101MOL   C17938379   1.449   2.861   1.287  0.4653 -0.1930  0.5283
  101MOL   C18038380   1.523   3.015   1.103 -0.2705  1.2402  0.4036
  101MOL   H18138381   1.027   3.258   1.307 -1.2138  1.0166  0.5314
  101MOL   H18238382   1.070   3.382   1.433 -0.5200 -0.8198 -0.1716
  101MOL   H18338383   1.190   3.181   1.424 -0.9724  0.5229  0.2939
  101MOL   H18438384   1.401   3.080   1.357  1.7399  0.4965 -0.0135
  101MOL   H18538385   1.330   2.935   1.124  0.4640 -0.5184 -0.0099
  101MOL   H18638386   1.506   2.777   1.247  2.7632  1.7385 -0.3691
  101MOL   H18738387   1.356   2.830   1.335 -1.2643 -1.2975 -3.3727
  101MOL   H18838388   1.519   2.892   1.365  2.2151 -3.9479  0.5646
  101MOL   H18938389   1.489   3.100   1.044  0.3838  0.5772 -0.9673
  101MOL   H19038390   1.551   2.938   1.031  0.7847  1.4954  0.5369
  101MOL   H19138391   1.605   3.052   1.164 -2.1731  1.1115  3.1625
  101MOL   C19238392   1.339   3.352   1.414 -0.5637  0.4476 -0.5469
  101MOL   C19338393   1.463   3.279   1.484 -0.2639 -0.5873  0.0341
  101MOL   C19438394   1.413   3.173   1.583 -0.0263  0.2038 -0.0030
  101MOL   O19538395   1.399   3.058   1.541  0.1465 -0.2585 -0.4109
  101MOL   N19638396   1.390   3.216   1.710  0.6146 -0.4907 -0.5411
  101MOL   C19738397   1.339   3.129   1.816 -0.8205 -0.1257  0.0285
  101MOL   C19838398   1.438   3.140   1.926 -0.4766 -0.3172 -0.5482
  101MOL   C19938399   1.196   3.167   1.860 -0.7794 -0.3458  0.4355
  101MOL   H20038400   1.289   3.407   1.494 -0.9327  1.4818 -1.4771
  101MOL   H20138401   1.373   3.414   1.332 -1.5451  1.1016 -0.4702
  101MOL   H20238402   1.521   3.233   1.404  0.6346  3.3724 -1.7517
  101MOL   H20338403   1.420   3.308   1.739 -1.2908  0.6567 -2.0972
  101MOL   H20438404   1.342   3.030   1.770  1.7189  0.0216 -0.1860
  101MOL   H20538405   1.543   3.123   1.902 -0.5543  0.4397 -1.4329
  101MOL   H20638406   1.416   3.065   2.002 -0.6269 -0.8103 -1.0853
  101MOL   H20738407   1.437   3.236   1.979 -2.1843 -1.5029  1.6536
  101MOL   H20838408   1.156   3.103   1.939  2.0407 -2.8226 -0.0825
  101MOL   H20938409   1.126   3.153   1.777 -1.0385  0.8305  0.4444
  101MOL   H21038410   1.170   3.269   1.891  0.0948  0.1146 -0.3328
  101MOL   C21138411   1.549   3.388   1.549  0.5315  0.2176 -0.2048
  101MOL   C21238412   1.692   3.347   1.589  0.2843  0.6329  0.7974
  101MOL   C21338413   1.774   3.292   1.469 -0.5520  0.0828  0.1982
  101MOL   O21438414   1.789   3.351   1.362 -0.3531  0.0301  0.1758
  101MOL   N21538415   1.820   3.166   1.484 -0.1333 -0.6582 -0.0894
  101MOL   C21638416   1.869   3.077   1.381 -0.0021 -1.4257 -0.0829
  101MOL   C21738417   1.812   2.937   1.404 -0.1434  0.3396  0.1859
  101MOL   C21838418   2.024   3.077   1.382  0.2374 -0.1229 -0.5949
  101MOL   H21938419   1.500   3.417   1.642 -2.2882 -0.2653 -1.5199
  101MOL   H22038420   1.542   3.476   1.486  1.4677  1.0379  0.8087
  101MOL   H22138421   1.665   3.271   1.662  0.1277  0.0030  0.0966
  101MOL   H22238422   1.806   3.123   1.574  0.8175 -0.2644  0.2528
  101MOL   H22338423   1.850   3.111   1.280 -0.6797 -1.0514  0.1670
  101MOL   H22438424   1.789   2.900   1.304  0.2735  0.5484  0.0126
  101MOL   H22538425   1.879   2.870   1.457  0.6292  1.2472  0.3571
  101MOL   H22638426   1.717   2.950   1.457  0.4011 -1.4788  1.6565
  101MOL   H22738427   2.066   3.019   1.300 -0.1184 -1.1075 -0.1011
  101MOL   H22838428   2.070   3.026   1.467  0.1386  1.0469  0.1747
  101MOL   H22938429   2.064   3.178   1.370 -0.5082  0.2716  0.1686
  101MOL   C23038430   1.770   3.460   1.667  0.4389  0.3940  0.6520
  101MOL   C23138431   1.914   3.516   1.628  0.3619 -0.6662  0.0887
  101MOL   C23238432   1.922   3.658   1.686 -0.8831  0.0078 -0.6009
  101MOL   O23338433   1.924   3.681   1.806 -0.7902  0.5492  0.5682
  101MOL   N23438434   1.933   3.752   1.588  0.5333 -0.0019 -0.5372
  101MOL   C23538435   1.956   3.898   1.597 -0.2970 -0.9421  0.1103
  101MOL   C23638436   2.106   3.940   1.607 -0.3102 -0.5231  0.0798
  101MOL   C23738437   1.886   3.984   1.485  0.3467  0.4258  0.6237
  101MOL   H23838438   1.775   3.417   1.767 -0.9179 -0.6704  0.2793
  101MOL   H23938439   1.701   3.543   1.682 -0.9117 -0.6650  0.4695
  101MOL   H24038440   1.910   3.521   1.519 -1.7133 -1.8445  0.1053
  101MOL   H24138441   1.935   3.717   1.493 -1.0861  0.0555 -0.6060
  101MOL   H24238442   1.912   3.929   1.691  0.4751  2.6485 -0.6617
  101MOL   H24338443   2.150   3.935   1.508  4.2527 -0.8589  2.0109
  101MOL   H24438444   2.125   4.044   1.634  2.5807 -0.5034 -1.8898
  101MOL   H24538445   2.169   3.878   1.669 -0.6038 -0.2027  0.7085
  101MOL   H24638446   1.914   4.089   1.491 -1.4333  1.0475 -1.3520
  101MOL   H24738447   1.777   3.977   1.488  0.4265 -0.9736  1.0209
  101MOL   H24838448   1.914   3.958   1.383  0.2264  0.6842  0.5256
  101MOL   C24938449   2.025   3.420   1.677  0.0554 -0.4854 -0.3755
  101MOL   C25038450   2.175   3.472   1.667  0.5992  0.1006  0.0188
  101MOL   C25138451   2.199   3.519   1.523 -0.0863  0.7698 -0.9074
  101MOL   O25238452   2.245   3.632   1.509 -0.2962  0.3065  0.0082
  101MOL   N25338453   2.184   3.432   1.427 -0.0241  0.5345  0.3846
  101MOL   C25438454   2.235   3.450   1.289  0.2700  0.8421  1.0639
  101MOL   C25538455   2.381   3.410   1.271  0.3700 -0.3827 -0.2352
  101MOL   C25638456   2.148   3.377   1.187 -0.1528 -0.3058  0.0523
  101MOL   H25738457   2.023   3.325   1.624  0.4094 -1.6129  1.5704
  101MOL   H25838458   2.008   3.398   1.782 -0.1079  1.6679  0.0738
  101MOL   H25938459   2.176   3.559   1.732  0.1854 -1.3612  2.0188
  101MOL   H26038460   2.126   3.351   1.444 -0.4906  0.6008 -0.8533
  101MOL   H26138461   2.227   3.557   1.269  0.5676  0.7680  0.5437
  101MOL   H26238462   2.401   3.316   1.324  2.0688  0.1428  0.0809
  101MOL   H26338463   2.404   3.411   1.165 -4.4845 -0.3532 -1.4208
  101MOL   H26438464   2.448   3.477   1.323 -1.1003 -0.0306  1.2600
  101MOL   H26538465   2.043   3.408   1.187 -0.5437 -1.6016 -0.9501
  101MOL   H26638466   2.190   3.406   1.090  0.2846  3.0141  1.1599
  101MOL   H26738467   2.155   3.269   1.198 -2.5234 -0.6328 -1.2879
  101MOL   C26838468   2.281   3.361   1.715  0.0099 -0.5054  0.2175
  101MOL   C26938469   2.433   3.401   1.714 -0.5542 -1.3980 -0.4752
  101MOL   C27038470   2.466   3.488   1.836 -0.6175  0.3041 -0.0318
  101MOL   O27138471   2.447   3.449   1.950  0.3288 -0.2734 -0.3396
  101MOL   N27238472   2.514   3.609   1.801  0.7293  0.2022  0.0740
  101MOL   C27338473   2.541   3.721   1.891  0.0908 -0.1480  0.2565
  101MOL   C27438474   2.678   3.705   1.953  0.0002  0.3967 -0.8505
  101MOL   C27538475   2.532   3.856   1.822  0.2027  0.2603 -0.5529
  101MOL   H27638476   2.252   3.315   1.810  0.2914 -0.8285  0.1470
  101MOL   H27738477   2.266   3.273   1.652 -0.7119 -1.1269  1.2407
  101MOL   H27838478   2.440   3.453   1.618 -2.0598  0.3973  0.3451
  101MOL   H27938479   2.536   3.626   1.704 -1.3851  1.8415 -0.1730
  101MOL   H28038480   2.459   3.732   1.962  0.0442  0.5380  0.0959
  101MOL   H28138481   2.748   3.703   1.869  0.8221 -0.2706 -0.1613
  101MOL   H28238482   2.706   3.778   2.029 -0.4104  1.0816 -1.3585
  101MOL   H28338483   2.672   3.613   2.011 -1.4202  0.0287 -1.5740
  101MOL   H28438484   2.540   3.942   1.888 -1.4225 -0.8427  1.1329
  101MOL   H28538485   2.615   3.880   1.757  0.9095 -0.5762  0.0314
  101MOL   H28638486   2.443   3.870   1.761  1.2027  0.9456 -1.8526
  101MOL   C28738487   2.517   3.268   1.699  0.0158  0.1039 -0.2721
  101MOL   C28838488   2.674   3.294   1.701  0.4030  0.3545 -0.1188
  101MOL   C28938489   2.720   3.386   1.592  0.2432  0.0636  0.3587
  101MOL   O29038490   2.658   3.386   1.485 -0.3653  0.6947 -0.0597
  101MOL   N29138491   2.820   3.472   1.622 -0.2738  0.1339  0.2245
  101MOL   C29238492   2.884   3.585   1.550 -0.2345 -0.5936 -0.5624
  101MOL   C29338493   2.798   3.708   1.560  0.3077  0.5040  0.6232
  101MOL   C29438494   3.025   3.603   1.614 -0.6844 -0.6975 -0.6002
  101MOL   H29538495   2.477   3.205   1.778 -1.4478 -0.5798 -1.5275
  101MOL   H29638496   2.491   3.216   1.607  1.4263  1.4800 -1.4887
  101MOL   H29738497   2.700   3.338   1.798  0.0190 -0.9427  0.5828
  101MOL   H29838498   2.847   3.458   1.718  0.3532  0.1537  0.0539
  101MOL   H29938499   2.890   3.548   1.448  1.0868 -1.0268 -0.3308
  101MOL   H30038500   2.697   3.678   1.532 -0.0418  1.5030  0.7952
  101MOL   H30138501   2.805   3.751   1.660  0.4319 -0.5830  1.0832
  101MOL   H30238502   2.833   3.776   1.482  0.3003 -0.1245  0.0685
  101MOL   H30338503   3.079   3.685   1.566  0.6905  0.5304  2.8936
  101MOL   H30438504   3.041   3.613   1.721  0.4770  1.9851 -1.0002
  101MOL   H30538505   3.073   3.510   1.583  1.3770  0.5618 -1.2938
  101MOL   C30638506   2.766   3.162   1.704 -0.8154 -0.7183  0.1583
  101MOL   C30738507   2.901   3.164   1.783  0.2121  0.2715 -0.4760
  101MOL   C30838508   3.008   3.059   1.741 -0.3501 -0.3431 -0.1271
  101MOL   O30938509   3.123   3.056   1.790  0.2535  0.0400 -0.8613
  101MOL   N31038510   2.959   2.951   1.669 -0.2542 -0.1277  0.3587
  101MOL   C31138511   3.038   2.842   1.624 -0.2140  0.4622 -0.6792
  101MOL   C31238512   2.940   2.724   1.623  0.7531  0.3848 -0.0121
  101MOL   C31338513   3.100   2.880   1.484 -0.0411 -0.2677  0.0742
  101MOL   H31438514   2.703   3.089   1.756 -0.9466 -0.4045  0.4392
  101MOL   H31538515   2.784   3.127   1.602 -1.5801 -1.3390  0.2355
  101MOL   H31638516   2.946   3.258   1.749 -1.0335  0.2132 -2.3328
  101MOL   H31738517   2.870   2.970   1.626 -0.2535  0.3279  0.5617
  101MOL   H31838518   3.120   2.819   1.692  0.4897  3.6156 -0.3835
  101MOL   H31938519   2.887   2.714   1.718  1.7140 -2.7192  0.2737
  101MOL   H32038520   2.985   2.627   1.601  0.1787  0.1362 -0.0952
  101MOL   H32138521   2.855   2.739   1.556  0.7190 -0.7884 -0.2513
  101MOL   H32238522   3.019   2.882   1.411  1.2379  1.8321 -1.3372
  101MOL   H32338523   3.166   2.800   1.449 -1.3845 -1.3483 -0.0543
  101MOL   H32438524   3.162   2.969   1.482 -1.0851  0.4540 -1.0618
  101MOL   C32538525   2.868   3.158   1.941  0.2077  0.2298 -0.2493
  101MOL   C32638526   2.973   3.231   2.037  0.1769 -0.5036  0.4960
  101MOL   C32738527   2.979   3.382   2.006  0.2007 -0.2494 -0.5874
  101MOL   O32838528   2.897   3.441   1.935 -0.3495 -0.2174  0.1876
  101MOL   N32938529   3.083   3.455   2.055 -0.2159 -0.1697  0.1858
  101MOL   C33038530   3.086   3.602   2.066  0.2406 -0.2280  0.1269
  101MOL   C33138531   3.223   3.667   2.079 -0.0332  0.2527 -0.4895
  101MOL   C33238532   2.992   3.640   2.176  0.6221 -0.3634 -0.1732
  101MOL   H33338533   2.883   3.057   1.977  0.6675  0.1979 -0.5286
  101MOL   H33438534   2.768   3.193   1.967  0.2882 -0.1801  0.6104
  101MOL   H33538535   3.076   3.197   2.023  0.8691  0.2852  3.3576
  101MOL   H33638536   3.152   3.407   2.111  1.3464 -0.9817 -2.3432
  101MOL   H33738537   3.040   3.638   1.974  1.9135 -1.5906 -1.2982
  101MOL   H33838538   3.270   3.605   2.156  0.1744  0.7223 -0.2404
  101MOL   H33938539   3.272   3.663   1.982 -0.8545 -0.7411 -0.8817
  101MOL   H34038540   3.222   3.771   2.110  0.8562 -0.8948  3.7233
  101MOL   H34138541   3.030   3.605   2.272 -0.2271  0.5977  0.5199
  101MOL   H34238542   2.888   3.608   2.164 -0.1048  2.4054 -1.6246
  101MOL   H34338543   2.985   3.748   2.184 -0.9917 -0.4747  0.0371
  101MOL   C34438544   2.928   3.209   2.181 -0.1114  0.1513 -0.3544
  101MOL   C34538545   3.021   3.240   2.295 -0.2530  0.4165 -0.0954
  101MOL   C34638546   2.946   3.223   2.425  0.2134 -0.3518  0.2409
  101MOL   O34738547   2.890   3.118   2.442 -0.4808 -0.0797  0.4091
  101MOL   N34838548   2.937   3.318   2.517  0.0131  0.0177 -0.1087
  101MOL   C34938549   2.854   3.311   2.643  0.4538  0.6914 -0.3657
  101MOL   C35038550   2.926   3.217   2.747  0.5467  0.2453  1.2226
  101MOL   C35138551   2.843   3.453   2.690  0.2587 -0.4651  0.4180
  101MOL   H35238552   2.894   3.106   2.192  1.1434 -0.3651 -1.1028
  101MOL   H35338553   2.835   3.262   2.199 -0.0587  0.3465 -0.6437
  101MOL   H35438554   3.048   3.342   2.268 -0.9463  0.8014  0.6469
  101MOL   H35538555   2.979   3.407   2.494  0.9579 -0.5460 -0.5884
  101MOL   H35638556   2.753   3.272   2.629  0.8228 -0.1869 -0.6279
  101MOL   H35738557   2.882   3.238   2.844 -2.6817 -2.2956  0.3797
  101MOL   H35838558   2.914   3.111   2.724  2.9073  0.1052  0.4488
  101MOL   H35938559   3.034   3.233   2.750  0.6862 -0.5664  0.6574
  101MOL   H36038560   2.807   3.520   2.612  1.2376 -1.5550 -0.9836
  101MOL   H36138561   2.767   3.463   2.768 -0.8053  2.4594 -0.9121
  101MOL   H36238562   2.937   3.493   2.728 -0.1034  0.0848  0.7530
  101MOL   C36338563   3.141   3.139   2.290  0.5337 -0.1718 -0.3427
  101MOL   C36438564   3.270   3.176   2.373  0.5387 -0.2075 -0.3011
  101MOL   C36538565   3.343   3.297   2.309  0.5803  0.1047 -0.8293
  101MOL   O36638566   3.310   3.349   2.205  0.0446 -0.4891  0.2239
  101MOL   N36738567   3.447   3.342   2.380 -0.9645  0.1427  0.4485
  101MOL   C36838568   3.517   3.466   2.354  0.0669  0.6532 -0.2149
  101MOL   C36938569   3.563   3.522   2.492  0.3379  0.3457 -0.7184
  101MOL   C37038570   3.641   3.451   2.268  0.5436  0.0595 -0.1311
  101MOL   H37138571   3.157   3.108   2.187  0.7446  0.4596 -0.5016
  101MOL   H37238572   3.116   3.043   2.334  2.5531  0.1118  1.5549
  101MOL   H37338573   3.336   3.090   2.377 -1.2915 -1.6429  0.0273
  101MOL   H37438574   3.475   3.283   2.458  0.6488  0.0698 -0.1625
  101MOL   H37538575   3.464   3.549   2.307  0.7348  1.9581  1.2825
  101MOL   H37638576   3.487   3.507   2.569  1.0990 -3.7608 -0.6746
  101MOL   H37738577   3.648   3.461   2.521 -0.1166 -0.3307 -0.7990
  101MOL   H37838578   3.581   3.630   2.491  1.3281  0.1887 -0.6455
  101MOL   H37938579   3.719   3.526   2.283  0.2364  0.2654  0.4367
  101MOL   H38038580   3.700   3.365   2.302  1.6037  0.8418  0.0451
  101MOL   H38138581   3.615   3.447   2.162 -1.0992 -1.2586  0.3010
  101MOL   H38238582   3.248   3.204   2.476 -0.3580 -0.0351 -0.5304
  102MOL     C138583   3.144   3.487   3.043  0.4281  0.2847  0.0695
  102MOL     C238584   3.291   3.514   3.081 -0.6203 -0.1390  0.0696
  102MOL     C338585   3.329   3.409   3.189 -0.8661 -0.5113  0.9761
  102MOL     O438586   3.397   3.310   3.167 -0.0191 -0.6144  0.5304
  102MOL     N538587   3.282   3.438   3.307 -0.5408 -0.2592 -0.1949
  102MOL     C638588   3.286   3.335   3.417 -0.3656 -0.1165 -0.0655
  102MOL     C738589   3.332   3.399   3.551  0.1029  0.3019 -0.3076
  102MOL     C838590   3.155   3.271   3.444  0.1762 -0.1977 -0.1888
  102MOL     H938591   3.076   3.566   3.076 -0.4062 -0.3627 -0.0700
  102MOL    H1038592   3.096   3.406   3.099 -1.8648  1.1677 -0.5596
  102MOL    H1138593   3.284   3.614   3.124 -0.2694 -0.8074  1.7091
  102MOL    H1238594   3.259   3.534   3.328  0.9390  0.7491 -2.8856
  102MOL    H1338595   3.354   3.254   3.392 -1.4725 -1.0895  0.0746
  102MOL    H1438596   3.340   3.320   3.626  0.1704 -2.1610 -2.8286
  102MOL    H1538597   3.266   3.476   3.589 -0.8566 -0.6836  0.0395
  102MOL    H1638598   3.435   3.436   3.548  0.3096 -0.2439 -0.0494
  102MOL    H1738599   3.124   3.263   3.548 -0.6021  1.3365 -0.2813
  102MOL    H1838600   3.083   3.326   3.382  2.0970 -0.2070 -2.5138
  102MOL    H1938601   3.155   3.169   3.406  0.6442  0.1699 -1.1958
  102MOL    H2038602   3.126   3.461   2.939 -1.1349  0.1833  0.3503
  102MOL    C2138603   3.378   3.511   2.951  0.3733  0.5261  1.0866
  102MOL    C2238604   3.519   3.580   2.971 -0.0968  0.2881  0.0440
  102MOL    C2338605   3.511   3.731   2.978 -0.9636  0.3728  0.3184
  102MOL    O2438606   3.414   3.789   2.917  0.3893  0.2689 -0.4389
  102MOL    N2538607   3.609   3.793   3.044 -0.7838 -0.0132  0.2905
  102MOL    C2638608   3.620   3.932   3.076 -0.5969 -0.8823 -0.3488
  102MOL    C2738609   3.647   4.008   2.952  0.1812  0.0121  0.9324
  102MOL    C2838610   3.725   3.963   3.191  0.3661 -0.4114 -0.3208
  102MOL    H2938611   3.321   3.545   2.865 -0.7396  0.1176  1.6532
  102MOL    H3038612   3.400   3.407   2.927 -0.6187  0.7951 -1.0474
  102MOL    H3138613   3.557   3.557   3.070 -0.5664  0.4208  0.2561
  102MOL    H3238614   3.680   3.729   3.078 -1.8123 -0.3722  1.8104
  102MOL    H3338615   3.525   3.969   3.116 -0.6276 -1.0595 -0.2597
  102MOL    H3438616   3.754   4.005   2.929  0.2038 -1.6981  1.1871
  102MOL    H3538617   3.617   4.112   2.963  0.7978  0.1898  0.9275
  102MOL    H3638618   3.587   3.978   2.867  0.0255 -0.1528  1.1000
  102MOL    H3738619   3.829   3.974   3.158  0.4189 -0.1640 -0.0768
  102MOL    H3838620   3.701   4.053   3.249  1.4519 -1.8384  2.4647
  102MOL    H3938621   3.728   3.887   3.269 -0.5913 -1.0053 -0.8577
  102MOL    C4038622   3.618   3.537   2.859  0.0464 -0.1958  0.1428
  102MOL    C4138623   3.772   3.562   2.859 -0.3594 -0.0020 -0.1873
  102MOL    C4238624   3.848   3.547   2.994  0.5012 -0.3400  0.3292
  102MOL    O4338625   3.817   3.616   3.089 -0.3730  0.0360  0.3790
  102MOL    N4438626   3.948   3.457   3.006  0.2976  0.0134 -0.0668
  102MOL    C4538627   4.032   3.427   3.124  0.3915 -0.3108 -0.2165
  102MOL    C4638628   3.975   3.305   3.183  0.3433  0.1148 -0.5517
  102MOL    C4738629   4.171   3.398   3.087  0.1817  0.8902 -0.4863
  102MOL    H4838630   3.585   3.574   2.761 -2.2121  3.1196  2.0404
  102MOL    H4938631   3.608   3.429   2.846 -0.0219 -0.2654  0.7775
  102MOL    H5038632   3.824   3.483   2.805 -2.2174 -2.4457  1.5212
  102MOL    H5138633   3.976   3.412   2.920 -2.6795 -1.6552 -0.2220
  102MOL    H5238634   4.039   3.517   3.185  0.4479 -1.4292  1.4571
  102MOL    H5338635   3.872   3.328   3.210  0.0420 -0.0421 -1.5508
  102MOL    H5438636   4.039   3.274   3.266  0.4455  1.7769 -0.0028
  102MOL    H5538637   3.972   3.217   3.119  1.4680  0.1165 -0.6287
  102MOL    H5638638   4.219   3.483   3.038 -0.7650  1.5843 -0.2170
  102MOL    H5738639   4.173   3.314   3.017 -1.2589  0.8081 -0.4439
  102MOL    H5838640   4.229   3.378   3.177 -0.7685  1.3034  0.2269
  102MOL    C5938641   3.818   3.694   2.782  0.3041  0.5995 -0.3170
  102MOL    C6038642   3.956   3.682   2.722  0.2351 -0.1012  0.6385
  102MOL    C6138643   4.013   3.823   2.671  0.0947  0.5723  0.7130
  102MOL    O6238644   3.933   3.913   2.648  0.0023  0.3239  0.3846
  102MOL    N6338645   4.147   3.830   2.657 -0.0344 -0.3811 -0.2316
  102MOL    C6438646   4.221   3.947   2.601 -0.1344  0.2859 -0.1444
  102MOL    C6538647   4.353   3.954   2.680 -0.2006  0.0533 -0.4657
  102MOL    C6638648   4.230   3.918   2.446  0.4107 -1.1534  0.0779
  102MOL    H6738649   3.745   3.713   2.703 -1.1078 -1.1984  0.5234
  102MOL    H6838650   3.811   3.778   2.851 -3.6863  1.7570 -1.9945
  102MOL    H6938651   4.023   3.652   2.803  0.9522  2.8500  1.2159
  102MOL    H7038652   4.210   3.755   2.680 -0.5093 -0.3990  1.0651
  102MOL    H7138653   4.158   4.035   2.610 -1.5490 -0.5452 -1.5418
  102MOL    H7238654   4.412   3.862   2.684 -0.0096  0.1770 -0.3920
  102MOL    H7338655   4.420   4.034   2.647  0.8094 -0.7116 -0.2837
  102MOL    H7438656   4.327   3.965   2.785  0.4312 -2.7062  0.0154
  102MOL    H7538657   4.278   4.000   2.394 -1.0057 -0.9585 -0.9478
  102MOL    H7638658   4.294   3.831   2.433  2.8326  0.1954  2.4032
  102MOL    H7738659   4.137   3.892   2.396 -1.4335  1.4103  1.9899
  102MOL    C7838660   3.955   3.579   2.598  0.4497  0.3821 -0.1467
  102MOL    C7938661   4.077   3.506   2.544 -0.5569  0.0233 -0.0399
  102MOL    C8038662   4.194   3.484   2.645 -0.4294 -0.4850 -0.2101
  102MOL    O8138663   4.169   3.413   2.747  0.1948 -0.2241  0.0491
  102MOL    N8238664   4.314   3.539   2.627 -0.2025 -0.2717  0.2154
  102MOL    C8338665   4.432   3.499   2.706  0.3624 -0.8908  0.3317
  102MOL    C8438666   4.539   3.434   2.619  0.8855  0.4324 -0.5402
  102MOL    C8538667   4.501   3.618   2.775 -0.3373  0.5393  0.6893
  102MOL    H8638668   3.914   3.641   2.519 -0.9266  0.3176  0.5005
  102MOL    H8738669   3.869   3.514   2.614  1.6673 -1.5684 -1.3114
  102MOL    H8838670   4.120   3.570   2.466  0.7150  0.3859  0.9434
  102MOL    H8938671   4.331   3.581   2.536 -0.5630 -1.9975 -0.6671
  102MOL    H9038672   4.403   3.419   2.774  0.6269  0.5819  2.2303
  102MOL    H9138673   4.502   3.344   2.571  0.5561 -0.0495  0.6148
  102MOL    H9238674   4.583   3.512   2.556  1.0025  0.1822 -0.7649
  102MOL    H9338675   4.614   3.400   2.690 -0.6959  0.4396  1.1857
  102MOL    H9438676   4.422   3.676   2.824 -2.6131 -2.0336  0.1985
  102MOL    H9538677   4.543   3.697   2.713  0.1417 -1.1952 -1.2465
  102MOL    H9638678   4.583   3.587   2.840 -0.4515 -2.4527 -0.5207
  102MOL    C9738679   4.028   3.379   2.480 -0.1846 -1.0555 -0.7985
  102MOL    C9838680   3.982   3.267   2.580  0.1701 -0.5607  0.0049
  102MOL    C9938681   4.080   3.154   2.593 -0.0987 -0.4191  0.2121
  102MOL   O10038682   4.089   3.070   2.509  0.6568 -0.5467  0.0765
  102MOL   N10138683   4.147   3.143   2.709 -0.0024  0.4685  0.0548
  102MOL   C10238684   4.257   3.051   2.753 -0.1162  0.2105 -0.5069
  102MOL   C10338685   4.362   3.110   2.857  0.3373  0.1296 -0.1254
  102MOL   C10438686   4.193   2.918   2.802 -0.0037 -0.4102 -0.2091
  102MOL   H10538687   4.106   3.334   2.419  0.9799 -1.8123  1.2180
  102MOL   H10638688   3.949   3.401   2.408  0.9093 -0.0361 -1.7115
  102MOL   H10738689   3.969   3.309   2.679 -2.0227  0.8175 -0.8318
  102MOL   H10838690   4.131   3.221   2.772  1.6968  2.0526 -1.4178
  102MOL   H10938691   4.314   3.031   2.662  0.8660 -0.2004  0.1923
  102MOL   H11038692   4.443   3.037   2.868 -0.4226 -0.9567 -1.5215
  102MOL   H11138693   4.416   3.197   2.820  1.5516 -0.6499 -0.2061
  102MOL   H11238694   4.319   3.134   2.954  0.2301 -0.2182 -0.0844
  102MOL   H11338695   4.134   2.933   2.893 -3.4246 -0.0941 -2.3968
  102MOL   H11438696   4.275   2.850   2.821  1.0328  0.9852  0.3996
  102MOL   H11538697   4.128   2.874   2.726 -0.8118 -1.0144  0.8178
  102MOL   C11638698   3.836   3.215   2.539 -0.2212 -0.8940 -0.6148
  102MOL   C11738699   3.772   3.104   2.625  0.6680 -0.0982  0.1451
  102MOL   C11838700   3.649   3.044   2.562  0.0596 -0.2816 -0.0029
  102MOL   O11938701   3.552   3.120   2.548 -0.1735  0.0070 -0.2789
  102MOL   N12038702   3.643   2.914   2.534  0.3402 -0.6604 -0.0720
  102MOL   C12138703   3.521   2.847   2.481  0.0938 -0.4424  0.7084
  102MOL   C12238704   3.561   2.722   2.393 -0.5254  0.5348 -0.7446
  102MOL   C12338705   3.430   2.813   2.597  0.1874  1.0988  0.3822
  102MOL   H12438706   3.829   3.189   2.433 -0.5044 -0.1140 -0.7861
  102MOL   H12538707   3.771   3.301   2.551  2.4500  1.0697  0.0303
  102MOL   H12638708   3.844   3.022   2.628 -0.3433 -1.0943 -2.1839
  102MOL   H12738709   3.729   2.866   2.559  1.2510  0.1849 -1.4926
  102MOL   H12838710   3.469   2.906   2.406 -0.7812 -1.0247  0.8415
  102MOL   H12938711   3.462   2.678   2.383 -0.9011  1.0551  0.5980
  102MOL   H13038712   3.623   2.653   2.449  0.6108  1.7345 -0.5049
  102MOL   H13138713   3.602   2.738   2.293  0.1509  0.2694 -0.5097
  102MOL   H13238714   3.412   2.906   2.650  2.5938  1.0077  1.3935
  102MOL   H13338715   3.331   2.787   2.559  0.6461  2.3008 -1.7029
  102MOL   H13438716   3.459   2.734   2.666 -0.6184  0.7493  0.3320
  102MOL   C13538717   3.734   3.157   2.772 -0.1538  0.0774 -0.7316
  102MOL   C13638718   3.681   3.048   2.871  0.8574 -0.5224 -0.3725
  102MOL   C13738719   3.769   2.923   2.863  0.1512  0.7282  0.6148
  102MOL   O13838720   3.890   2.939   2.880  0.5606 -0.0302  0.3327
  102MOL   N13938721   3.707   2.808   2.840 -0.5231 -0.0448  0.3590
  102MOL   C14038722   3.779   2.684   2.835 -0.3633  0.4320 -0.1192
  102MOL   C14138723   3.854   2.661   2.700  0.3238 -0.0462  0.4204
  102MOL   C14238724   3.687   2.565   2.870  0.0878 -0.3980  0.0521
  102MOL   H14338725   3.665   3.240   2.760 -0.1938  0.0845 -0.4542
  102MOL   H14438726   3.820   3.204   2.819 -0.7025  1.4631 -1.1022
  102MOL   H14538727   3.580   3.035   2.832 -0.1270  1.7728  1.2994
  102MOL   H14638728   3.609   2.809   2.814 -0.3796  2.1906 -0.1617
  102MOL   H14738729   3.847   2.689   2.920 -0.6174 -0.3311  0.1305
  102MOL   H14838730   3.920   2.745   2.681 -0.5161  0.3505 -0.7718
  102MOL   H14938731   3.908   2.566   2.703 -1.4499 -1.1111 -0.7224
  102MOL   H15038732   3.780   2.656   2.620  1.2541  0.3524 -0.4815
  102MOL   H15138733   3.587   2.574   2.826 -1.1739 -3.7997  2.0368
  102MOL   H15238734   3.671   2.559   2.977 -0.2248  1.3758  0.1142
  102MOL   H15338735   3.738   2.470   2.854  0.8947  0.1949 -0.9712
  102MOL   C15438736   3.686   3.093   3.022 -0.4044  0.2809  0.3509
  102MOL   C15538737   3.625   3.009   3.117 -0.0230 -0.4532  0.0401
  102MOL   C15638738   3.483   2.957   3.075 -0.3777 -0.3269  0.3851
  102MOL   O15738739   3.476   2.839   3.044  0.3149  0.6334  0.1050
  102MOL   N15838740   3.376   3.036   3.086  0.0109 -0.1589  0.4788
  102MOL   C15938741   3.241   2.999   3.044  0.4826 -0.7815 -0.2023
  102MOL   C16038742   3.222   3.035   2.895 -0.2919 -0.6117 -0.0819
  102MOL   C16138743   3.130   3.063   3.134  0.1712  0.2229 -0.7560
  102MOL   H16238744   3.622   3.182   3.025 -1.6875 -0.6432  0.9887
  102MOL   H16338745   3.786   3.124   3.054 -0.4825  0.4476  0.4340
  102MOL   H16438746   3.693   2.924   3.117  2.1884  1.2687 -1.0622
  102MOL   H16538747   3.399   3.129   3.118  0.8599  0.3581 -1.4939
  102MOL   H16638748   3.226   2.891   3.049 -2.4044 -0.3819  1.0357
  102MOL   H16738749   3.297   2.983   2.836  0.8451 -2.5046  2.9237
  102MOL   H16838750   3.122   3.018   2.856  0.2452  0.4483 -2.0301
  102MOL   H16938751   3.237   3.143   2.906  0.3679 -0.5936 -1.0742
  102MOL   H17038752   3.119   3.035   3.238 -1.7034  4.6400  0.3527
  102MOL   H17138753   3.035   3.035   3.087 -0.0353 -1.1969  0.4731
  102MOL   H17238754   3.142   3.171   3.127  2.5122 -0.0612 -1.5466
  102MOL   C17338755   3.626   3.066   3.262  0.2554  0.5737  0.1025
  102MOL   C17438756   3.576   2.971   3.383  0.4219  0.1856  0.2724
  102MOL   C17538757   3.656   2.839   3.396 -0.4791  0.7144  0.4460
  102MOL   O17638758   3.746   2.824   3.480 -0.6858  0.3545  0.0394
  102MOL   N17738759   3.621   2.745   3.311 -0.0053  0.3130 -0.0369
  102MOL   C17838760   3.672   2.606   3.293  0.6199 -1.2821 -0.7945
  102MOL   C17938761   3.638   2.518   3.411  0.1260  0.4628  0.3668
  102MOL   C18038762   3.819   2.608   3.247  0.1728  0.1481  0.1973
  102MOL   H18138763   3.578   3.163   3.262 -0.8805  0.0200 -1.0800
  102MOL   H18238764   3.729   3.090   3.291 -0.6368  2.6110  1.6783
  102MOL   H18338765   3.472   2.944   3.362  0.6282  1.0439 -1.8997
  102MOL   H18438766   3.549   2.771   3.245  0.2660  1.8447  0.2533
  102MOL   H18538767   3.618   2.569   3.206  1.1689 -0.4381 -1.5007
  102MOL   H18638768   3.532   2.515   3.433 -0.1472  0.2187 -0.9338
  102MOL   H18738769   3.688   2.548   3.503 -0.7921 -0.1694  1.0776
  102MOL   H18838770   3.667   2.414   3.396 -0.1713  0.4953 -0.4372
  102MOL   H18938771   3.824   2.679   3.165  1.2553 -0.9411 -0.6923
  102MOL   H19038772   3.842   2.517   3.192  0.8567 -0.0747  0.8418
  102MOL   H19138773   3.896   2.626   3.322 -0.2327 -0.2374  0.7156
  102MOL   C19238774   3.591   3.044   3.513  0.6371  0.6479  0.0996
  102MOL   C19338775   3.540   2.980   3.647  0.7124  0.6963 -0.0787
  102MOL   C19438776   3.389   2.975   3.650  0.2354 -0.1583 -0.2319
  102MOL   O19538777   3.323   3.076   3.668  0.2985  0.1090  0.4607
  102MOL   N19638778   3.328   2.856   3.641 -0.4225  0.0333  0.3248
  102MOL   C19738779   3.184   2.826   3.672  0.6025 -0.7219 -0.4300
  102MOL   C19838780   3.081   2.899   3.588 -1.2807  0.1199  0.2579
  102MOL   C19938781   3.160   2.682   3.686 -0.2828  0.2108 -0.0881
  102MOL   H20038782   3.557   3.147   3.507 -2.4031 -0.3728 -1.4356
  102MOL   H20138783   3.698   3.061   3.528  0.1758  1.6511  2.3314
  102MOL   H20238784   3.575   2.877   3.640  0.0406  0.3708  1.2211
  102MOL   H20338785   3.384   2.771   3.640 -0.3224  0.0889  0.7780
  102MOL   H20438786   3.166   2.870   3.770  1.2460  1.6024 -1.3355
  102MOL   H20538787   3.108   2.874   3.485 -0.1426 -0.6672  0.7333
  102MOL   H20638788   3.094   3.004   3.613  0.9319 -0.4815  1.8399
  102MOL   H20738789   2.977   2.875   3.607 -1.1101 -0.1826  0.8179
  102MOL   H20838790   3.060   2.667   3.727  0.5237  1.2146  2.2630
  102MOL   H20938791   3.211   2.639   3.772 -0.6973  0.6097  0.3565
  102MOL   H21038792   3.167   2.619   3.597 -0.9481 -0.2965  0.2156
  102MOL   C21138793   3.606   3.030   3.780 -0.1906 -0.1090 -0.0331
  102MOL   C21238794   3.569   3.164   3.849  0.7131  0.5159  0.3169
  102MOL   C21338795   3.623   3.180   3.989  0.1592  0.8976 -0.1544
  102MOL   O21438796   3.733   3.133   4.013  0.3735 -0.2689  0.3473
  102MOL   N21538797   3.550   3.243   4.079  0.0379 -0.7161  0.3922
  102MOL   C21638798   3.580   3.249   4.219 -0.2365  0.5504  0.9440
  102MOL   C21738799   3.557   3.113   4.276 -0.3731  0.5791 -0.0102
  102MOL   C21838800   3.482   3.351   4.286  0.0937  0.5453 -0.2055
  102MOL   H21938801   3.715   3.024   3.771 -0.1803  1.2459 -0.9095
  102MOL   H22038802   3.580   2.952   3.852 -0.4665  2.0546  2.2706
  102MOL   H22138803   3.461   3.167   3.858  0.5503 -1.3324 -0.7454
  102MOL   H22238804   3.462   3.279   4.043  1.7688  2.0164 -1.2680
  102MOL   H22338805   3.684   3.278   4.231  0.1566 -1.0050  1.4177
  102MOL   H22438806   3.588   3.115   4.381 -0.4191  2.8659 -0.0254
  102MOL   H22538807   3.451   3.087   4.273 -0.5883  1.5917 -1.1955
  102MOL   H22638808   3.620   3.039   4.227 -0.8283  0.5162 -0.4952
  102MOL   H22738809   3.464   3.325   4.390  0.0683 -0.2075 -0.3924
  102MOL   H22838810   3.384   3.360   4.238  0.2619  1.5279 -0.3696
  102MOL   H22938811   3.525   3.450   4.279 -1.8574  1.3851 -0.5707
  102MOL   C23038812   3.607   3.290   3.769 -0.2531 -0.6409  0.3262
  102MOL   C23138813   3.763   3.310   3.743  0.1562  0.2337 -0.3912
  102MOL   C23238814   3.782   3.358   3.598 -0.0493  0.2706 -0.0436
  102MOL   O23338815   3.849   3.300   3.516  0.7572  0.4427 -0.3608
  102MOL   N23438816   3.725   3.473   3.566  0.0892  0.2918  0.0870
  102MOL   C23538817   3.752   3.555   3.447  0.0142 -0.2347  0.1015
  102MOL   C23638818   3.627   3.587   3.366  0.3044  0.2386  0.5691
  102MOL   C23738819   3.830   3.674   3.501 -0.0441 -0.4233  0.5539
  102MOL   H23838820   3.563   3.376   3.821  0.7829 -0.9399  1.7404
  102MOL   H23938821   3.552   3.287   3.675 -0.5720  0.9852  0.4431
  102MOL   H24038822   3.807   3.212   3.720  0.4689  0.0938  0.7907
  102MOL   H24138823   3.672   3.514   3.641  1.4725  0.7837  0.8072
  102MOL   H24238824   3.822   3.497   3.387 -0.0088 -2.3362  2.0012
  102MOL   H24338825   3.646   3.654   3.282 -0.6527 -0.2768 -0.0664
  102MOL   H24438826   3.576   3.502   3.322  0.5271  0.5009 -0.2087
  102MOL   H24538827   3.552   3.631   3.432 -0.6932  0.7367 -0.8711
  102MOL   H24638828   3.854   3.746   3.422 -1.0770 -1.2552 -0.5279
  102MOL   H24738829   3.919   3.643   3.555  0.4202  2.0781  1.2861
  102MOL   H24838830   3.761   3.730   3.564 -1.3771 -0.8584 -0.5068
  102MOL   C24938831   3.846   3.397   3.839  0.2181  0.4727  0.4261
  102MOL   C25038832   3.999   3.399   3.812 -0.0830 -0.8544 -0.0153
  102MOL   C25138833   4.072   3.259   3.822 -0.1704 -0.3452  1.0462
  102MOL   O25238834   4.137   3.222   3.921 -0.5138  0.3764 -0.0335
  102MOL   N25338835   4.071   3.187   3.707 -0.4461 -0.3912 -0.6331
  102MOL   C25438836   4.122   3.051   3.695 -0.2269  0.2471  0.1348
  102MOL   C25538837   4.021   2.966   3.618  0.3266  0.8894  0.3119
  102MOL   C25638838   4.259   3.056   3.623 -0.8046 -0.4171 -0.0542
  102MOL   H25738839   3.815   3.366   3.938  0.1621  0.7322  0.4897
  102MOL   H25838840   3.801   3.496   3.833  0.8063  0.7236 -0.0124
  102MOL   H25938841   4.023   3.428   3.709 -0.2648  2.1527  0.7493
  102MOL   H26038842   4.032   3.224   3.622 -0.3981 -0.4934 -0.6997
  102MOL   H26138843   4.140   3.000   3.790 -1.3660 -3.1429 -1.3961
  102MOL   H26238844   3.937   2.934   3.679  2.6981 -0.9695  2.6860
  102MOL   H26338845   3.968   3.028   3.546 -3.8965  0.4202  2.8464
  102MOL   H26438846   4.067   2.878   3.573 -1.0987 -0.8510  2.1899
  102MOL   H26538847   4.250   3.098   3.523  0.0473  0.8220  0.3862
  102MOL   H26638848   4.326   3.125   3.673 -0.7587  0.2003 -0.9655
  102MOL   H26738849   4.291   2.952   3.620 -0.5653 -0.3550  0.3369
  102MOL   C26838850   4.065   3.503   3.911 -0.8724  0.5814 -0.3692
  102MOL   C26938851   4.219   3.534   3.907  0.1582 -0.1738 -0.0932
  102MOL   C27038852   4.257   3.581   3.768  1.2124 -0.1113  1.0493
  102MOL   O27138853   4.224   3.692   3.723  0.4250 -0.1941 -0.1354
  102MOL   N27238854   4.316   3.487   3.690  0.6167 -0.3943 -0.0691
  102MOL   C27338855   4.361   3.511   3.554  0.5214 -0.2989 -0.3971
  102MOL   C27438856   4.504   3.467   3.552 -0.3214  0.4338 -0.4561
  102MOL   C27538857   4.270   3.423   3.458 -0.2548  0.3708  0.2106
  102MOL   H27638858   4.019   3.602   3.904  1.2865  1.8174  1.9718
  102MOL   H27738859   4.038   3.475   4.013 -0.7645  2.0509  0.0867
  102MOL   H27838860   4.275   3.444   3.930  0.2936 -0.0362  0.1188
  102MOL   H27938861   4.327   3.394   3.728  0.0806 -0.3236  0.2701
  102MOL   H28038862   4.369   3.611   3.513  0.6811 -0.2079 -0.1433
  102MOL   H28138863   4.542   3.491   3.453  0.5122 -0.2426 -0.3063
  102MOL   H28238864   4.552   3.514   3.638  2.2194 -1.5845 -0.7104
  102MOL   H28338865   4.523   3.364   3.583  0.5026  0.6675 -0.1788
  102MOL   H28438866   4.289   3.443   3.353 -1.4328  0.0050 -0.0798
  102MOL   H28538867   4.291   3.319   3.484  0.7170  0.5667  0.2338
  102MOL   H28638868   4.165   3.445   3.473 -1.1006 -2.1079 -1.6623
  102MOL   C28738869   4.265   3.642   4.011 -0.3225 -0.0204  0.1265
  102MOL   C28838870   4.268   3.596   4.161 -0.0362  0.9834  0.5755
  102MOL   C28938871   4.146   3.646   4.243 -0.1143  0.3428 -0.0050
  102MOL   O29038872   4.085   3.745   4.212  0.2047 -0.5880 -0.4186
  102MOL   N29138873   4.126   3.578   4.357  0.3336  0.0820  0.2590
  102MOL   C29238874   4.037   3.619   4.463 -0.5433  0.0681 -0.7832
  102MOL   C29338875   3.940   3.508   4.504 -0.2658  1.0183 -0.0879
  102MOL   C29438876   4.127   3.660   4.579 -0.2692 -0.3806 -0.4187
  102MOL   H29538877   4.360   3.693   3.996 -0.7957  1.5250  2.1748
  102MOL   H29638878   4.194   3.724   4.003  1.0500  1.2205  0.4310
  102MOL   H29738879   4.278   3.487   4.155  0.1836  0.9498  1.4940
  102MOL   H29838880   4.182   3.498   4.381 -0.0197 -0.1698  0.2480
  102MOL   H29938881   3.977   3.706   4.436 -1.4308 -0.3365 -0.1454
  102MOL   H30038882   3.859   3.557   4.558 -2.1452 -1.2128 -0.8323
  102MOL   H30138883   3.895   3.473   4.411 -0.8547  2.0966 -0.2281
  102MOL   H30238884   3.987   3.424   4.555  2.0039  1.2991 -1.6449
  102MOL   H30338885   4.190   3.747   4.557 -0.7107 -0.1819 -0.8989
  102MOL   H30438886   4.055   3.688   4.655  0.1373  1.1986 -0.6000
  102MOL   H30538887   4.196   3.586   4.620  0.0478  1.0949  1.7906
  102MOL   C30638888   4.399   3.639   4.229 -0.1931  0.0746 -0.0767
  102MOL   C30738889   4.437   3.796   4.227 -0.3805  0.7923 -0.0447
  102MOL   C30838890   4.586   3.800   4.224  0.6531  0.2724 -0.8449
  102MOL   O30938891   4.659   3.767   4.320  0.4696 -0.0254  0.0792
  102MOL   N31038892   4.641   3.834   4.104  0.4788 -0.4181  0.1380
  102MOL   C31138893   4.785   3.822   4.086  0.4672 -0.5219  0.6611
  102MOL   C31238894   4.817   3.687   4.027  0.1962 -0.3289 -0.3168
  102MOL   C31338895   4.838   3.936   3.995 -0.6240  0.2650  0.1326
  102MOL   H31438896   4.410   3.605   4.332 -0.8058  2.4643  0.8107
  102MOL   H31538897   4.474   3.579   4.178  0.1176  0.5804 -0.2172
  102MOL   H31638898   4.405   3.839   4.133  1.5594 -1.5578 -1.8680
  102MOL   H31738899   4.577   3.838   4.026  0.1600  0.5793  0.4441
  102MOL   H31838900   4.846   3.830   4.175  0.5065  1.7255  0.4567
  102MOL   H31938901   4.772   3.657   3.933 -1.8390  1.2456  0.1325
  102MOL   H32038902   4.792   3.601   4.090 -0.5156  0.5612  0.6325
  102MOL   H32138903   4.925   3.675   4.017  0.2179 -1.0489  0.6651
  102MOL   H32238904   4.792   3.918   3.897 -0.5486  0.4505  0.0618
  102MOL   H32338905   4.945   3.953   3.989 -0.8537  2.4822  1.5474
  102MOL   H32438906   4.822   4.036   4.036  1.0034  0.3772  0.5225
  102MOL   C32538907   4.394   3.885   4.346  0.6054 -0.4481 -0.0842
  102MOL   C32638908   4.443   4.034   4.335  0.0753  0.7019  0.6742
  102MOL   C32738909   4.415   4.112   4.211 -0.3800  0.0067 -0.2928
  102MOL   O32838910   4.491   4.203   4.180 -0.0763  0.3980  0.4707
  102MOL   N32938911   4.307   4.088   4.140  0.5161  0.0643 -0.3125
  102MOL   C33038912   4.264   4.135   4.007  0.0618  0.0436  0.0024
  102MOL   C33138913   4.118   4.109   3.980  0.2371  0.2692  0.0221
  102MOL   C33238914   4.348   4.075   3.900  0.4582 -0.0170  0.0601
  102MOL   H33338915   4.430   3.834   4.436 -0.9328 -0.5368  0.5039
  102MOL   H33438916   4.288   3.887   4.372  0.6982  2.8347  0.2044
  102MOL   H33538917   4.552   4.044   4.334  0.2028 -0.4474 -1.2343
  102MOL   H33638918   4.261   4.005   4.174  1.1158 -1.6354 -3.4173
  102MOL   H33738919   4.273   4.244   4.013 -0.4153  0.0066  1.4445
  102MOL   H33838920   4.077   4.186   3.916  0.5518  1.1240  0.8347
  102MOL   H33938921   4.108   4.011   3.933 -0.8423  0.7794 -0.8171
  102MOL   H34038922   4.059   4.131   4.069 -1.1712  1.5653 -1.2103
  102MOL   H34138923   4.342   4.124   3.803  1.2058  0.4940  0.2637
  102MOL   H34238924   4.328   3.968   3.887 -0.3704  0.3072 -1.4525
  102MOL   H34338925   4.452   4.074   3.933 -0.0877 -0.3777  1.8345
  102MOL   C34438926   4.418   4.100   4.474 -0.1366  0.1589 -0.7889
  102MOL   C34538927   4.288   4.183   4.502 -0.5436  0.8603  0.1952
  102MOL   C34638928   4.168   4.097   4.490 -0.1814  0.2075 -0.1675
  102MOL   O34738929   4.153   3.992   4.558 -0.5170  0.0270 -0.1756
  102MOL   N34838930   4.080   4.135   4.392  0.0703 -0.3619 -0.9834
  102MOL   C34938931   3.956   4.085   4.346 -0.1254  0.3206 -0.2298
  102MOL   C35038932   3.873   4.002   4.444  0.3714 -0.0389  0.7183
  102MOL   C35138933   3.872   4.208   4.289 -0.5382 -0.2982 -0.9157
  102MOL   H35238934   4.493   4.177   4.494 -1.4623  1.7358 -1.7652
  102MOL   H35338935   4.427   4.021   4.549  0.5189  2.0630  1.1929
  102MOL   H35438936   4.276   4.261   4.427 -0.6241  0.4980 -0.1680
  102MOL   H35538937   4.097   4.231   4.363  1.3190 -0.6567 -1.2649
  102MOL   H35638938   3.974   4.018   4.262  0.5220  0.8090 -0.4806
  102MOL   H35738939   3.928   3.909   4.458  1.1296  0.4274  0.8420
  102MOL   H35838940   3.853   4.047   4.542  1.3733  2.1235 -0.0500
  102MOL   H35938941   3.774   3.982   4.403  1.1652  0.6633 -1.5621
  102MOL   H36038942   3.856   4.287   4.362  0.4164 -0.8983 -0.0344
  102MOL   H36138943   3.926   4.248   4.204  2.9774  0.2718  1.4415
  102MOL   H36238944   3.775   4.180   4.248 -0.0686  0.2704 -2.4226
  102MOL   C36338945   4.284   4.257   4.646  0.4759  0.2641  0.5423
  102MOL   C36438946   4.325   4.177   4.770 -0.6671 -0.1641  0.3622
  102MOL   C36538947   4.337   4.270   4.891 -0.3402  0.4994 -0.1185
  102MOL   O36638948   4.310   4.390   4.876  0.0402  0.3118  0.2400
  102MOL   N36738949   4.384   4.220   5.004  0.6973  0.1778 -0.0951
  102MOL   C36838950   4.420   4.297   5.124  0.0248 -0.3891  0.4851
  102MOL   C36938951   4.427   4.196   5.240 -0.1848 -0.3532 -0.0661
  102MOL   C37038952   4.547   4.384   5.107  0.1438  0.5073 -0.1942
  102MOL   H37138953   4.179   4.286   4.652 -0.4745 -1.8889 -3.7681
  102MOL   H37238954   4.353   4.341   4.638  1.6328 -0.8757 -1.6983
  102MOL   H37338955   4.421   4.126   4.757  0.6908  2.3913  0.0341
  102MOL   H37438956   4.413   4.123   5.006 -2.0440 -0.6874  0.4868
  102MOL   H37538957   4.335   4.358   5.153  1.8374  2.1852  0.6175
  102MOL   H37638958   4.336   4.137   5.238 -1.0662  1.0277 -1.3671
  102MOL   H37738959   4.512   4.128   5.246  0.3156  0.2158 -0.4999
  102MOL   H37838960   4.438   4.253   5.332  2.4016  0.0058 -0.5576
  102MOL   H37938961   4.553   4.458   5.187  0.1958  0.9811 -0.6384
  102MOL   H38038962   4.636   4.324   5.122 -0.3552 -0.2915 -0.4036
  102MOL   H38138963   4.549   4.439   5.013 -0.3429  0.3796 -0.2794
  102MOL   H38238964   4.250   4.099   4.784 -0.3272 -0.8033 -1.1999
  103MOL     C138965   2.982   0.597   2.408  0.3287  0.2297  0.8152
  103MOL     C238966   3.054   0.469   2.440  0.2515 -0.0185 -0.2124
  103MOL     C338967   3.176   0.456   2.350 -0.3648  0.3036  0.3138
  103MOL     O438968   3.290   0.495   2.383 -0.0012 -0.7284 -0.2534
  103MOL     N538969   3.157   0.391   2.236  0.4086 -0.0556  0.7382
  103MOL     C638970   3.241   0.377   2.116 -1.1931  0.0683  0.4182
  103MOL     C738971   3.205   0.258   2.029 -0.3351 -0.4300 -0.5442
  103MOL     C838972   3.249   0.508   2.041 -0.7563  0.1496  0.1860
  103MOL     H938973   2.909   0.618   2.487  0.4734 -0.6106  1.1835
  103MOL    H1038974   2.931   0.604   2.312 -0.5477  0.5823  1.3004
  103MOL    H1138975   2.976   0.400   2.411 -0.4596  0.5838  0.2640
  103MOL    H1238976   3.070   0.341   2.234 -0.0904  0.7801  1.5730
  103MOL    H1338977   3.345   0.349   2.133 -1.0343  0.6941  0.4829
  103MOL    H1438978   3.250   0.261   1.930  2.6409  1.5524  0.7853
  103MOL    H1538979   3.099   0.256   2.002 -0.3622  0.4698 -0.5283
  103MOL    H1638980   3.242   0.170   2.081  0.5815  0.0475 -0.3671
  103MOL    H1738981   3.294   0.498   1.942 -1.5275 -1.5604 -0.0016
  103MOL    H1838982   3.153   0.556   2.027 -2.7632 -3.1582  2.0871
  103MOL    H1938983   3.304   0.574   2.108  0.2340  0.2812 -0.7398
  103MOL    H2038984   3.052   0.680   2.411  1.3171 -0.5524  0.0414
  103MOL    C2138985   3.085   0.444   2.594 -0.1174  0.7776 -0.4243
  103MOL    C2238986   3.136   0.303   2.635 -0.2643  0.5781  0.1013
  103MOL    C2338987   3.047   0.191   2.575 -0.4735 -0.6553 -0.1459
  103MOL    O2438988   2.930   0.188   2.601  1.0538  0.1094  0.0195
  103MOL    N2538989   3.099   0.109   2.486  0.8611 -0.8696 -0.2829
  103MOL    C2638990   3.027   0.001   2.415  0.0844 -0.4843 -0.2227
  103MOL    C2738991   3.077   7.706   2.468  0.0621 -0.0724 -0.5946
  103MOL    C2838992   3.043   0.007   2.262 -0.7413 -0.5750  1.0374
  103MOL    H2938993   2.994   0.462   2.650 -0.7981  0.0868 -1.2887
  103MOL    H3038994   3.153   0.518   2.636 -1.0720  0.6388  1.3845
  103MOL    H3138995   3.230   0.285   2.583 -0.1960  2.5231 -0.4997
  103MOL    H3238996   3.190   0.131   2.447  1.7717 -0.9568  1.7345
  103MOL    H3338997   2.920   0.003   2.435 -0.1767 -0.5265 -1.5255
  103MOL    H3438998   3.027   7.618   2.428  0.3640 -0.0878 -0.9459
  103MOL    H3538999   3.066   7.697   2.576 -0.5039 -3.3935 -0.8597
  103MOL    H3639000   3.184   7.708   2.444  0.6009  0.8644  1.7249
  103MOL    H3739001   3.146   7.814   2.242 -0.7363  1.6082 -2.4278
  103MOL    H3839002   2.969   7.789   2.203  1.0731 -1.5334 -0.4162
  103MOL    H3939003   3.036   0.113   2.238  1.0390 -0.6879 -0.1031
  103MOL    C4039004   3.165   0.282   2.780  0.6744  0.6385  0.3668
  103MOL    C4139005   3.043   0.319   2.866  0.1808  0.6642 -0.3882
  103MOL    C4239006   3.037   0.468   2.909 -0.3829  0.3673  0.7697
  103MOL    O4339007   3.137   0.526   2.953  0.2385 -0.5661 -0.8560
  103MOL    N4439008   2.927   0.534   2.882 -0.3491 -1.0874  0.4093
  103MOL    C4539009   2.891   0.671   2.907  0.7394 -0.1617  0.3875
  103MOL    C4639010   2.845   0.737   2.774 -0.2176 -0.1059  0.6253
  103MOL    C4739011   2.782   0.676   3.016  0.0986 -0.1224  0.7373
  103MOL    H4839012   3.257   0.333   2.811 -1.1984  2.9543  2.2590
  103MOL    H4939013   3.197   0.177   2.782 -2.2950 -0.2954  0.4701
  103MOL    H5039014   2.948   0.302   2.815  1.0616 -0.5235 -1.6482
  103MOL    H5139015   2.856   0.476   2.840  0.8924 -0.7766 -2.1924
  103MOL    H5239016   2.982   0.724   2.934  0.4721  0.6073 -0.1835
  103MOL    H5339017   2.927   0.742   2.703 -2.2284  0.9248 -1.7061
  103MOL    H5439018   2.821   0.844   2.780  2.8106  0.6499  0.3095
  103MOL    H5539019   2.752   0.691   2.743 -0.0943 -0.5530  0.9203
  103MOL    H5639020   2.790   0.597   3.091 -1.4213 -1.1596 -0.1599
  103MOL    H5739021   2.686   0.661   2.965  0.0745 -1.5230  1.1599
  103MOL    H5839022   2.772   0.771   3.067 -0.0490  0.4609 -0.3716
  103MOL    C5939023   3.012   0.232   2.993  0.1894 -0.3532  0.0975
  103MOL    C6039024   2.914   0.109   2.960 -0.3069 -0.0913 -0.1876
  103MOL    C6139025   2.762   0.136   2.949 -0.0727 -0.3623 -0.2382
  103MOL    O6239026   2.691   0.149   3.048 -0.3949 -0.0589  0.2091
  103MOL    N6339027   2.722   0.151   2.826  0.2630 -0.4533  0.0062
  103MOL    C6439028   2.599   0.220   2.783 -0.0210 -0.4667 -0.1370
  103MOL    C6539029   2.619   0.363   2.814  0.1359 -0.4542  0.3656
  103MOL    C6639030   2.559   0.187   2.633  0.4738 -0.4208 -0.5372
  103MOL    H6739031   3.111   0.204   3.028  0.5292  1.4441  0.6363
  103MOL    H6839032   2.948   0.291   3.059 -0.3381 -0.7288 -0.0704
  103MOL    H6939033   2.946   0.074   2.862 -2.4423  1.0605 -1.3328
  103MOL    H7039034   2.786   0.110   2.760  1.7208 -1.4947  2.0149
  103MOL    H7139035   2.516   0.179   2.841  1.2922  0.7290  2.7146
  103MOL    H7239036   2.722   0.388   2.786  0.2456 -0.4266  0.7952
  103MOL    H7339037   2.557   0.430   2.755  0.8640 -1.4618 -1.5925
  103MOL    H7439038   2.613   0.381   2.921  1.7990 -2.8920  0.9165
  103MOL    H7539039   2.651   0.188   2.574  0.8146  1.7376 -0.0085
  103MOL    H7639040   2.522   0.085   2.623  0.2113 -0.6583  2.4807
  103MOL    H7739041   2.490   0.260   2.590 -0.1725 -0.8651 -0.2716
  103MOL    C7839042   2.941   7.828   3.058  0.0213 -0.7409 -0.4040
  103MOL    C7939043   2.876   7.684   3.030 -0.4232  0.0004 -0.8536
  103MOL    C8039044   2.886   7.654   2.879 -0.2808  0.0290 -0.6747
  103MOL    O8139045   2.992   7.669   2.824  0.2058 -0.6606 -0.0852
  103MOL    N8239046   2.776   7.606   2.819 -0.3014  0.1194  0.0816
  103MOL    C8339047   2.767   7.564   2.683  0.5218 -0.7194 -0.1811
  103MOL    C8439048   2.710   7.424   2.676 -0.1717 -0.1032 -0.6256
  103MOL    C8539049   2.678   7.658   2.600 -0.0433 -0.2185  0.5209
  103MOL    H8639050   2.928   0.026   3.161  0.8276 -0.0574 -0.5226
  103MOL    H8739051   3.050   7.816   3.064  0.2258  0.7077 -0.9205
  103MOL    H8839052   2.771   7.685   3.062  0.1213 -3.0426  1.1739
  103MOL    H8939053   2.687   7.608   2.868  0.1560  2.1817  0.8432
  103MOL    H9039054   2.868   7.570   2.643 -0.1122 -0.4450 -1.8077
  103MOL    H9139055   2.781   7.354   2.719 -0.8179 -0.4607 -0.1170
  103MOL    H9239056   2.621   7.412   2.738 -0.0277 -2.1996 -0.7694
  103MOL    H9339057   2.683   7.395   2.575 -4.2113  0.0493  0.3240
  103MOL    H9439058   2.574   7.648   2.631  0.3062 -0.8725  1.5017
  103MOL    H9539059   2.691   7.633   2.495  0.8358  0.9576  0.3406
  103MOL    H9639060   2.695   7.765   2.610 -0.7741 -0.0016 -0.3970
  103MOL    C9739061   2.935   7.572   3.124  0.1288  0.2345 -0.1535
  103MOL    C9839062   2.900   7.590   3.277  0.3565  0.1602  0.2790
  103MOL    C9939063   3.002   7.511   3.363  0.4890 -0.1378  0.0469
  103MOL   O10039064   3.052   7.411   3.331 -0.1425  0.3285 -0.1679
  103MOL   N10139065   3.020   7.562   3.483  0.3926 -0.1929 -0.2595
  103MOL   C10239066   3.094   7.505   3.594 -0.5549  0.6472 -1.1906
  103MOL   C10339067   3.251   7.548   3.594  0.4397 -0.2238  0.1559
  103MOL   C10439068   3.029   7.528   3.735 -0.3636  0.0103 -0.6184
  103MOL   H10539069   3.041   7.565   3.102  0.9666  1.9665  3.0896
  103MOL   H10639070   2.895   7.475   3.093  0.4083  1.0891 -3.3629
  103MOL   H10739071   2.921   7.693   3.305  0.7612  0.2064 -0.1908
  103MOL   H10839072   2.974   7.650   3.497  2.0637  0.6705 -0.1006
  103MOL   H10939073   3.096   7.398   3.572 -0.4451 -0.1308  2.3073
  103MOL   H11039074   3.265   7.636   3.655  0.2680  1.4256 -2.1063
  103MOL   H11139075   3.305   7.455   3.615  0.1377  0.0540  2.2180
  103MOL   H11239076   3.273   7.573   3.490 -1.5599 -2.4800 -0.8623
  103MOL   H11339077   3.042   7.628   3.777 -1.6775  0.6800 -1.7517
  103MOL   H11439078   3.078   7.477   3.818 -1.5540 -1.0611 -0.5712
  103MOL   H11539079   2.922   7.509   3.747 -0.6549  0.3063 -2.6673
  103MOL   C11639080   2.752   7.545   3.311 -0.6722 -0.1960 -0.5615
  103MOL   C11739081   2.648   7.659   3.326  0.0501  0.6621 -0.7930
  103MOL   C11839082   2.697   7.768   3.423  0.2134 -0.6196  0.1558
  103MOL   O11939083   2.751   7.733   3.528  0.0175  0.4913 -0.1413
  103MOL   N12039084   2.678   0.057   3.389  0.2553  0.6656  0.4910
  103MOL   C12139085   2.704   0.173   3.465  0.2981  0.9719  0.3924
  103MOL   C12239086   2.794   0.277   3.401  0.5939  0.0240  0.2406
  103MOL   C12339087   2.567   0.243   3.497  0.0254 -0.2567  0.2582
  103MOL   H12439088   2.752   7.476   3.395 -0.5541 -0.1368 -0.5123
  103MOL   H12539089   2.721   7.478   3.231  0.6125 -1.5104  0.0246
  103MOL   H12639090   2.630   7.702   3.228 -0.2120  0.7456 -0.7096
  103MOL   H12739091   2.635   0.082   3.301 -0.5037  1.5109  1.0987
  103MOL   H12839092   2.761   0.153   3.555 -0.7064 -0.3408  0.7591
  103MOL   H12939093   2.750   0.315   3.309  0.8039 -3.7183 -1.4992
  103MOL   H13039094   2.897   0.242   3.391  0.2656 -1.5283  2.1087
  103MOL   H13139095   2.799   0.370   3.457 -0.3140 -0.2945  0.8652
  103MOL   H13239096   2.516   0.172   3.562 -0.7304 -1.6100 -1.7626
  103MOL   H13339097   2.569   0.336   3.554  0.2370 -1.6143  2.5139
  103MOL   H13439098   2.507   0.262   3.408  0.3519 -1.3651 -0.2023
  103MOL   C13539099   2.513   7.609   3.366  0.7507 -0.5524 -0.0147
  103MOL   C13639100   2.422   7.591   3.241  0.7884  0.9338 -0.5968
  103MOL   C13739101   2.294   7.518   3.291  0.3296 -0.1223 -1.0214
  103MOL   O13839102   2.195   7.585   3.313 -0.4730 -0.0798  0.3452
  103MOL   N13939103   2.298   7.389   3.299 -0.2416 -0.2179 -0.4606
  103MOL   C14039104   2.191   7.308   3.372  0.2251 -0.0193  0.4262
  103MOL   C14139105   2.197   7.312   3.520 -0.4176  0.2928 -0.4912
  103MOL   C14239106   2.212   7.159   3.331  0.0876 -0.0848 -0.5191
  103MOL   H14339107   2.454   7.668   3.436  0.1892  0.1867 -1.1002
  103MOL   H14439108   2.530   7.520   3.427 -0.8374 -0.3388  0.7705
  103MOL   H14539109   2.485   7.530   3.176 -1.1852 -0.3587 -1.3111
  103MOL   H14639110   2.382   7.339   3.273 -0.0658  0.2778 -0.8639
  103MOL   H14739111   2.097   7.352   3.337  1.5252  1.8175 -0.8986
  103MOL   H14839112   2.272   7.249   3.567  1.0442  0.5989 -2.3791
  103MOL   H14939113   2.197   7.412   3.564 -0.2670 -0.0717  0.3282
  103MOL   H15039114   2.106   7.263   3.555  0.9084 -2.2034 -0.4131
  103MOL   H15139115   2.309   7.133   3.374  1.0884  4.0357  0.0002
  103MOL   H15239116   2.228   7.144   3.225 -2.7036 -0.9368 -0.8678
  103MOL   H15339117   2.135   7.089   3.363  0.4824 -0.3835 -0.2068
  103MOL   C15439118   2.382   7.731   3.178 -0.2810  0.5589  0.3468
  103MOL   C15539119   2.304   7.724   3.039 -0.3077 -0.3111 -0.1685
  103MOL   C15639120   2.362   7.610   2.948  0.9732  0.4044 -0.1157
  103MOL   O15739121   2.472   7.616   2.899 -0.0055 -0.1855 -0.0072
  103MOL   N15839122   2.272   7.509   2.918 -0.2662 -0.0459  0.2201
  103MOL   C15939123   2.304   7.409   2.818 -0.5125  0.0281  0.1059
  103MOL   C16039124   2.300   7.470   2.682 -0.3498 -0.1221  0.1708
  103MOL   C16139125   2.202   7.288   2.832 -0.7649  0.8981 -0.4962
  103MOL   H16239126   2.468   7.782   3.136 -1.2264  0.8771 -1.2443
  103MOL   H16339127   2.336   7.798   3.251 -0.3232  1.1834 -0.2607
  103MOL   H16439128   2.200   7.694   3.052  0.8121 -4.0554  0.5143
  103MOL   H16539129   2.192   7.519   2.979 -0.6131  1.5066 -0.4870
  103MOL   H16639130   2.398   7.367   2.855 -0.1367  1.0397  0.2966
  103MOL   H16739131   2.357   7.563   2.682 -1.6320  0.6745  0.0054
  103MOL   H16839132   2.340   7.411   2.599 -0.8361 -1.3313  0.7872
  103MOL   H16939133   2.199   7.494   2.650 -0.1471  0.8973  0.2974
  103MOL   H17039134   2.195   7.249   2.933  0.2129  3.5793  0.6533
  103MOL   H17139135   2.234   7.207   2.766  0.6034  0.2285  0.9581
  103MOL   H17239136   2.099   7.317   2.812 -2.0629 -2.3981  1.1113
  103MOL   C17339137   2.275   0.022   2.965  0.5906  0.4300 -0.6519
  103MOL   C17439138   2.185   0.009   2.838  0.2983  0.7832  1.2326
  103MOL   C17539139   2.040   7.819   2.869 -0.0336 -0.5119 -0.3925
  103MOL   O17639140   1.986   0.033   2.963 -0.0797  0.6638  0.1307
  103MOL   N17739141   1.972   7.731   2.796  0.0044 -0.3365 -0.3878
  103MOL   C17839142   1.837   7.685   2.817 -0.0539 -0.0793 -0.1724
  103MOL   C17939143   1.836   7.534   2.848 -0.6389 -0.1136 -0.1094
  103MOL   C18039144   1.744   7.720   2.692 -0.0287 -0.3100 -0.2496
  103MOL   H18139145   2.372   0.068   2.947 -0.3070  2.9772  0.7119
  103MOL   H18239146   2.228   0.093   3.034  2.0664  0.0055  0.8103
  103MOL   H18339147   2.227   7.770   2.772  0.3459  1.8613 -0.0041
  103MOL   H18439148   2.023   7.677   2.727 -0.9064  0.6799 -1.8800
  103MOL   H18539149   1.795   7.737   2.903  0.0636  0.3746 -0.3877
  103MOL   H18639150   1.896   7.476   2.776 -0.0307 -1.3777  1.3878
  103MOL   H18739151   1.737   7.493   2.832 -0.4123 -1.6752  2.3332
  103MOL   H18839152   1.878   7.513   2.946 -0.8372 -3.5906 -0.7101
  103MOL   H18939153   1.745   7.825   2.662  0.9652  0.2632  1.7398
  103MOL   H19039154   1.640   7.690   2.704  0.3891 -0.7923  2.2770
  103MOL   H19139155   1.782   7.654   2.614 -0.5623 -0.2228 -0.5880
  103MOL   C19239156   2.186   0.147   2.761  0.4664 -0.7648  0.3412
  103MOL   C19339157   2.120   0.147   2.618 -0.5519  0.3550  0.2164
  103MOL   C19439158   2.188   0.039   2.529 -0.0905  0.4935 -0.1395
  103MOL   O19539159   2.149   7.763   2.536  0.6154  0.1591  0.0532
  103MOL   N19639160   2.276   0.071   2.435 -0.5096  0.2049  0.5341
  103MOL   C19739161   2.313   7.815   2.325 -0.7065 -0.4809  0.4807
  103MOL   C19839162   2.220   7.832   2.204  0.1959 -0.1915 -0.0977
  103MOL   C19939163   2.459   0.005   2.282  0.1215  0.5522 -0.2137
  103MOL   H20039164   2.288   0.185   2.759 -0.1497  0.8902 -0.3308
  103MOL   H20139165   2.127   0.218   2.820  0.0680 -0.2449 -0.6690
  103MOL   H20239166   2.014   0.122   2.629 -0.0420 -0.8451  2.8529
  103MOL   H20339167   2.309   0.166   2.426 -2.9216  1.0234 -0.0726
  103MOL   H20439168   2.303   7.715   2.367 -1.0357 -1.8893 -2.8450
  103MOL   H20539169   2.222   7.746   2.137 -0.8816 -0.3581  0.0565
  103MOL   H20639170   2.232   0.093   2.157  1.4199  1.1266  2.8121
  103MOL   H20739171   2.114   7.827   2.233 -0.0168  0.6285 -0.7179
  103MOL   H20839172   2.492   7.797   2.188 -0.2558 -0.6234  0.2133
  103MOL   H20939173   2.511   7.789   2.361 -0.9462  1.4466  1.1057
  103MOL   H21039174   2.487   0.110   2.273  0.1687  0.4867 -0.8633
  103MOL   C21139175   2.138   0.286   2.565 -0.5200 -0.6502  1.1720
  103MOL   C21239176   2.064   0.329   2.433  0.3039 -0.7046  0.1308
  103MOL   C21339177   1.915   0.311   2.441  0.2824 -0.1625  0.3372
  103MOL   O21439178   1.853   0.357   2.535 -0.0554 -0.2374 -0.0274
  103MOL   N21539179   1.858   0.244   2.338 -0.3947 -0.3418 -0.1397
  103MOL   C21639180   1.716   0.207   2.316  0.1602  0.3900 -0.1705
  103MOL   C21739181   1.690   0.082   2.403 -0.0474  0.1501  0.3753
  103MOL   C21839182   1.692   0.175   2.166 -0.8060  0.1432  0.1756
  103MOL   H21939183   2.241   0.323   2.570 -0.3417 -1.2203  1.6887
  103MOL   H22039184   2.104   0.359   2.639  0.8997  2.4056 -1.0408
  103MOL   H22139185   2.107   0.253   2.367  0.0453 -0.1646 -0.6639
  103MOL   H22239186   1.935   0.207   2.284  0.0688 -0.7576  0.7912
  103MOL   H22339187   1.648   0.287   2.343 -0.3089 -0.7135  2.0037
  103MOL   H22439188   1.605   0.028   2.360 -0.2978 -0.1706  1.2700
  103MOL   H22539189   1.764   0.005   2.381 -1.5018 -1.2980  0.3792
  103MOL   H22639190   1.668   0.106   2.507 -4.4236  3.6437 -1.2069
  103MOL   H22739191   1.724   0.260   2.106  0.2427  1.5959  2.7240
  103MOL   H22839192   1.590   0.140   2.153 -1.0741  0.6086  0.9600
  103MOL   H22939193   1.746   0.084   2.139 -0.8608  0.6814 -1.8126
  103MOL   C23039194   2.109   0.469   2.396 -0.4777 -0.2293  0.4491
  103MOL   C23139195   2.183   0.486   2.258 -0.5281 -0.4158 -0.2052
  103MOL   C23239196   2.323   0.429   2.271  0.5301 -0.1734  0.1772
  103MOL   O23339197   2.338   0.309   2.278 -0.3911  0.0635 -0.7052
  103MOL   N23439198   2.434   0.499   2.269  0.0892  0.1849 -0.4539
  103MOL   C23539199   2.573   0.441   2.287 -0.5396 -0.1625 -0.2642
  103MOL   C23639200   2.654   0.449   2.154  0.9445  0.4561 -0.0594
  103MOL   C23739201   2.646   0.500   2.415  0.4852  0.1769 -0.3375
  103MOL   H23839202   2.165   0.510   2.480 -0.3615 -1.0490  0.7722
  103MOL   H23939203   2.018   0.529   2.386 -1.1459 -1.1322  1.0169
  103MOL   H24039204   2.193   0.593   2.242 -1.8195 -0.2372  0.1366
  103MOL   H24139205   2.436   0.597   2.249  1.9068  0.0896 -0.8395
  103MOL   H24239206   2.581   0.336   2.317 -1.0579  0.0559  0.6625
  103MOL   H24339207   2.616   0.390   2.071  1.6077 -3.0715  2.0310
  103MOL   H24439208   2.688   0.545   2.115  0.9467  0.3895 -0.2186
  103MOL   H24539209   2.741   0.390   2.186  0.7628 -0.3063 -0.9534
  103MOL   H24639210   2.675   0.602   2.387 -1.5278  0.3965 -1.6922
  103MOL   H24739211   2.739   0.444   2.426  0.9548  0.6960 -1.6266
  103MOL   H24839212   2.591   0.500   2.509  0.3003  0.9384 -0.4373
  103MOL   C24939213   2.095   0.435   2.138 -0.2591 -0.1939 -0.8690
  103MOL   C25039214   2.153   0.445   1.995 -0.2625  0.4624 -0.2571
  103MOL   C25139215   2.196   0.585   1.956  0.6712 -0.0520 -0.3516
  103MOL   O25239216   2.108   0.676   1.955  0.2254 -0.1944 -0.4721
  103MOL   N25339217   2.325   0.606   1.934 -0.5745 -0.0853 -0.3503
  103MOL   C25439218   2.376   0.725   1.872 -0.0848  0.1865 -0.4909
  103MOL   C25539219   2.534   0.716   1.873  0.3272  0.0079  1.1684
  103MOL   C25639220   2.327   0.746   1.727 -0.4594 -0.9145  0.4274
  103MOL   H25739221   2.003   0.494   2.129 -0.3062 -0.5911 -3.6217
  103MOL   H25839222   2.074   0.328   2.151  0.8937 -0.4878 -1.3505
  103MOL   H25939223   2.242   0.381   1.992 -0.8722 -0.3504 -1.1771
  103MOL   H26039224   2.394   0.537   1.963  1.3407  1.3211 -1.4394
  103MOL   H26139225   2.355   0.808   1.940 -0.8446  0.8494 -1.5216
  103MOL   H26239226   2.578   0.622   1.839 -2.3610 -0.7243 -0.4118
  103MOL   H26339227   2.580   0.794   1.813 -0.6096  0.5585  1.1562
  103MOL   H26439228   2.571   0.728   1.975 -1.5480  0.5086  1.8204
  103MOL   H26539229   2.368   0.820   1.659  2.8114 -2.4941  0.5486
  103MOL   H26639230   2.346   0.649   1.680  0.0222  0.8077 -3.0515
  103MOL   H26739231   2.220   0.766   1.725 -0.8440 -2.8270  1.0974
  103MOL   C26839232   2.053   0.391   1.890  0.7423  1.0203 -0.5255
  103MOL   C26939233   2.100   0.384   1.745 -0.3252 -0.2716 -0.3868
  103MOL   C27039234   2.212   0.284   1.718 -0.5455  0.4018 -0.2327
  103MOL   O27139235   2.226   0.237   1.609  0.1106 -0.7745 -0.2610
  103MOL   N27239236   2.294   0.240   1.812 -0.2646  0.4195  0.3700
  103MOL   C27339237   2.410   0.148   1.796  0.2465 -0.1453  0.4558
  103MOL   C27439238   2.522   0.231   1.744  0.3010  0.4502  0.0936
  103MOL   C27539239   2.447   0.081   1.928  0.7466 -0.1140  0.0227
  103MOL   H27639240   2.014   0.293   1.918 -0.8245  1.7299 -0.1687
  103MOL   H27739241   1.965   0.448   1.920  1.0627  0.1703  2.1580
  103MOL   H27839242   2.137   0.485   1.728  0.5154 -0.2152  1.6149
  103MOL   H27939243   2.263   0.261   1.906  1.7148  0.8631  0.9541
  103MOL   H28039244   2.388   0.069   1.725  2.1298  0.8559 -1.3209
  103MOL   H28139245   2.517   0.261   1.639 -0.1995 -2.3588 -0.7111
  103MOL   H28239246   2.542   0.323   1.799 -0.5465  1.0762 -0.6337
  103MOL   H28339247   2.610   0.168   1.738 -1.1927 -1.8652  1.7971
  103MOL   H28439248   2.368   0.010   1.950  2.7969 -2.0538  1.2637
  103MOL   H28539249   2.536   0.018   1.924 -0.5288 -1.8756 -0.8320
  103MOL   H28639250   2.454   0.156   2.007 -2.6771 -0.3374  0.5949
  103MOL   C28739251   1.974   0.344   1.660  0.4200  0.1367 -0.2366
  103MOL   C28839252   1.963   0.395   1.512 -0.2268 -0.3703 -0.2667
  103MOL   C28939253   1.995   0.550   1.514  0.1182  0.0501  0.2827
  103MOL   O29039254   1.949   0.629   1.599 -0.1209  1.0956  0.2414
  103MOL   N29139255   2.079   0.595   1.417 -0.3450  0.0818 -0.2980
  103MOL   C29239256   2.128   0.731   1.404 -0.3400  0.1038 -0.4003
  103MOL   C29339257   2.270   0.732   1.342 -0.2857  0.6972  0.2765
  103MOL   C29439258   2.036   0.827   1.331  0.5765 -0.2503  0.2268
  103MOL   H29539259   1.960   0.236   1.661  0.2436  0.1315 -2.0462
  103MOL   H29639260   1.881   0.379   1.705  0.8106  1.4024 -0.4007
  103MOL   H29739261   2.047   0.356   1.454 -0.5228 -1.0742 -0.2266
  103MOL   H29839262   2.111   0.529   1.347 -0.5694  0.2809 -0.5940
  103MOL   H29939263   2.164   0.760   1.503 -2.4991 -2.9331  1.3801
  103MOL   H30039264   2.338   0.674   1.404 -0.5117 -1.5113 -1.4718
  103MOL   H30139265   2.270   0.682   1.245 -0.4779  1.5117 -0.1522
  103MOL   H30239266   2.307   0.834   1.331  1.4196  0.2255  1.4543
  103MOL   H30339267   2.074   0.923   1.295  0.2163 -0.1604  0.0822
  103MOL   H30439268   1.995   0.779   1.242  0.3222  0.9848 -0.3374
  103MOL   H30539269   1.948   0.843   1.394 -0.0441 -0.6515 -0.5270
  103MOL   C30639270   1.830   0.360   1.444  0.7904  0.5421  0.0209
  103MOL   C30739271   1.834   0.389   1.296  0.1507  0.7175 -0.2453
  103MOL   C30839272   1.693   0.403   1.236 -0.0679 -0.4260 -0.0620
  103MOL   O30939273   1.609   0.318   1.254  0.4007 -0.3241 -0.4350
  103MOL   N31039274   1.656   0.522   1.185  0.0460  0.4965 -0.1733
  103MOL   C31139275   1.522   0.553   1.136 -0.9496 -0.2201 -0.2105
  103MOL   C31239276   1.506   0.705   1.143  0.1715  0.4874 -1.2662
  103MOL   C31339277   1.499   0.489   1.006  0.2958 -0.5515 -0.1098
  103MOL   H31439278   1.817   0.252   1.453 -1.5542  0.8006  0.1052
  103MOL   H31539279   1.743   0.400   1.497 -0.7376 -1.9987 -0.5150
  103MOL   H31639280   1.875   0.488   1.277  0.5613  0.2084 -2.1187
  103MOL   H31739281   1.719   0.598   1.204  1.1113 -0.6113  0.8112
  103MOL   H31839282   1.450   0.510   1.206  0.4995 -0.9904  0.8428
  103MOL   H31939283   1.582   0.758   1.085 -0.1716  1.1484 -1.1169
  103MOL   H32039284   1.527   0.732   1.246 -0.9993  1.8274 -1.3620
  103MOL   H32139285   1.409   0.741   1.109 -0.4959  0.9362  1.0469
  103MOL   H32239286   1.402   0.526   0.973  1.1866  0.5209 -1.6232
  103MOL   H32339287   1.496   0.380   1.011  0.8817 -0.5090  1.2154
  103MOL   H32439288   1.561   0.523   0.923  2.0014 -0.7087  1.0789
  103MOL   C32539289   1.915   0.279   1.221  0.2615  0.8236  0.2538
  103MOL   C32639290   1.968   0.302   1.080  0.1062 -0.2973 -0.0318
  103MOL   C32739291   2.031   0.446   1.063 -0.4975 -0.2030 -0.1874
  103MOL   O32839292   2.099   0.490   1.156 -0.3717  0.3406  0.2583
  103MOL   N32939293   2.011   0.508   0.946  0.3814 -0.2525 -0.0975
  103MOL   C33039294   2.034   0.646   0.899  0.4434 -0.1126 -0.2839
  103MOL   C33139295   1.918   0.734   0.950 -0.0186  0.0627 -0.2523
  103MOL   C33239296   2.061   0.649   0.750  0.2916  0.9045 -0.3682
  103MOL   H33339297   1.858   0.186   1.220  1.6877 -0.0760  0.6861
  103MOL   H33439298   2.003   0.252   1.280 -0.6225  1.5398  1.9318
  103MOL   H33539299   1.895   0.309   1.000  2.1870 -0.0660 -1.9548
  103MOL   H33639300   1.967   0.452   0.873 -0.6630  2.4426 -1.6197
  103MOL   H33739301   2.121   0.685   0.951  0.2249 -0.8230  0.6322
  103MOL   H33839302   1.914   0.719   1.058 -3.2402 -0.2502 -0.3755
  103MOL   H33939303   1.941   0.838   0.925 -0.9154 -0.1811 -2.1667
  103MOL   H34039304   1.822   0.703   0.911  0.6762  0.0203 -1.9747
  103MOL   H34139305   1.965   0.640   0.699 -0.2337 -1.1673  0.9031
  103MOL   H34239306   2.122   0.563   0.721 -0.0237  0.6101 -0.1685
  103MOL   H34339307   2.113   0.741   0.724  1.5540  0.9870  2.3123
  103MOL   C34439308   2.054   0.183   1.041  0.0838  0.2640 -0.5668
  103MOL   C34539309   2.079   0.148   0.889 -0.6708 -0.6083  0.2563
  103MOL   C34639310   2.183   0.032   0.879 -0.1560 -0.2283  0.0304
  103MOL   O34739311   2.167   7.766   0.948  0.3067 -0.2028  0.2686
  103MOL   N34839312   2.284   0.041   0.797  0.0349  0.1687 -0.3549
  103MOL   C34939313   2.365   7.770   0.753  0.3888 -0.3415  0.9789
  103MOL   C35039314   2.276   7.679   0.677  0.5475 -0.5742 -0.1595
  103MOL   C35139315   2.484   7.811   0.665 -0.1207 -0.0728 -1.0791
  103MOL   H35239316   2.011   0.095   1.089 -0.4022 -0.5501 -2.4532
  103MOL   H35339317   2.146   0.200   1.096 -0.1215  3.3559 -1.1060
  103MOL   H35439318   2.129   0.240   0.858  0.1077 -0.6189  1.4317
  103MOL   H35539319   2.276   0.122   0.738 -0.9947  0.3412  0.0108
  103MOL   H35639320   2.411   7.713   0.835  1.8160 -0.1779  0.3150
  103MOL   H35739321   2.214   7.617   0.742 -1.5537 -0.5112 -2.0396
  103MOL   H35839322   2.212   7.738   0.611  0.0063  0.0192  0.8844
  103MOL   H35939323   2.326   7.602   0.618  0.0591 -2.0518  1.3250
  103MOL   H36039324   2.551   0.027   0.733 -1.5024  0.0253  0.2455
  103MOL   H36139325   2.535   7.727   0.618  0.8890 -0.0810  0.0166
  103MOL   H36239326   2.448   0.051   0.596  1.8414  1.8483 -0.0224
  103MOL   C36339327   1.953   0.114   0.810 -0.4616 -0.0930  0.1111
  103MOL   C36439328   1.950   0.166   0.662  0.1097  0.1211  0.1224
  103MOL   C36539329   1.922   0.316   0.648 -0.0820  0.5160 -0.3375
  103MOL   O36639330   1.872   0.364   0.750  0.2714 -0.3850 -0.0474
  103MOL   N36739331   1.944   0.379   0.524 -0.3997 -0.1929 -0.4788
  103MOL   C36839332   2.017   0.318   0.412 -0.3638  0.0730 -0.1193
  103MOL   C36939333   1.945   0.202   0.356 -0.3349 -0.0012 -0.3932
  103MOL   C37039334   2.060   0.420   0.305  0.0965  0.4235  0.1883
  103MOL   H37139335   1.862   0.140   0.863 -0.0511  2.2151 -0.2590
  103MOL   H37239336   1.941   0.006   0.816 -1.7151  0.1166  1.5379
  103MOL   H37339337   1.874   0.105   0.612  0.0360  1.3187 -1.2504
  103MOL   H37439338   1.899   0.466   0.501 -1.2117 -0.0830  1.3809
  103MOL   H37539339   2.107   0.275   0.458  0.0055  1.6891  0.7293
  103MOL   H37639340   1.838   0.215   0.344 -0.0529  1.1210 -1.6710
  103MOL   H37739341   1.987   0.169   0.261  0.1208 -0.5660 -0.0058
  103MOL   H37839342   1.960   0.107   0.407 -1.8283  0.9949  1.9886
  103MOL   H37939343   2.064   0.371   0.208  2.0564 -2.1408  1.5133
  103MOL   H38039344   1.985   0.497   0.288  1.9617  1.9233 -1.4440
  103MOL   H38139345   2.157   0.469   0.319  0.4995 -0.1143 -0.7149
  103MOL   H38239346   2.048   0.137   0.623 -1.1630 -0.4214 -2.7940
  104MOL     C139347   7.079   6.102   4.130 -0.6104  0.5155 -0.4869
  104MOL     C239348   7.019   6.179   4.247 -0.2223 -0.0739  0.1540
  104MOL     C339349   7.022   6.124   4.386 -0.1163  0.0751 -0.0189
  104MOL     O439350   7.126   6.096   4.435 -0.3191  0.0473 -0.6011
  104MOL     N539351   6.908   6.098   4.452  0.6843  0.1232  0.3462
  104MOL     C639352   6.897   6.041   4.581 -0.0223 -0.0499 -0.8095
  104MOL     C739353   6.915   6.149   4.688 -0.1727 -0.1783 -0.2255
  104MOL     C839354   6.767   5.962   4.605 -0.7375 -0.4963 -0.7140
  104MOL     H939355   7.188   6.099   4.136 -0.4774  3.9480  0.0958
  104MOL    H1039356   7.066   6.152   4.034 -0.0405  1.6013 -0.0091
  104MOL    H1139357   6.914   6.192   4.218  0.0368  0.5686 -0.4983
  104MOL    H1239358   6.817   6.128   4.420 -0.2320  0.8260  3.4518
  104MOL    H1339359   6.979   5.970   4.596 -0.0288  0.1861  0.3769
  104MOL    H1439360   6.999   6.218   4.675 -0.0006 -0.3265  0.0844
  104MOL    H1539361   6.926   6.117   4.792  1.7128 -0.3316 -0.4568
  104MOL    H1639362   6.833   6.220   4.697  0.1461  0.1078  0.4544
  104MOL    H1739363   6.771   5.873   4.543 -0.4022 -0.7061 -0.3918
  104MOL    H1839364   6.757   5.917   4.703 -2.4062 -0.0193 -0.6503
  104MOL    H1939365   6.677   6.022   4.591 -1.7516 -0.8692  3.6728
  104MOL    H2039366   7.039   6.001   4.129  1.0795 -0.2114  1.1853
  104MOL    C2139367   7.069   6.328   4.241  0.0019  0.3471  0.3318
  104MOL    C2239368   7.030   6.437   4.347 -0.5835  0.4424 -0.5146
  104MOL    C2339369   6.874   6.444   4.354 -0.2282 -0.3157  0.1515
  104MOL    O2439370   6.806   6.471   4.254  0.3210 -0.1663  0.6023
  104MOL    N2539371   6.828   6.443   4.482  0.1510  0.4967 -0.1463
  104MOL    C2639372   6.698   6.489   4.535  0.5361  0.2382 -1.0767
  104MOL    C2739373   6.599   6.378   4.517 -0.0134  0.4299  0.5765
  104MOL    C2839374   6.638   6.618   4.482  0.6278 -0.3792  0.2387
  104MOL    H2939375   7.055   6.367   4.141 -0.3707 -0.8452 -0.0913
  104MOL    H3039376   7.178   6.321   4.247 -0.2115 -1.9691  2.2180
  104MOL    H3139377   7.063   6.411   4.447 -0.0353 -3.7870 -1.7160
  104MOL    H3239378   6.905   6.427   4.545 -0.5642 -1.1891  0.3146
  104MOL    H3339379   6.715   6.499   4.643 -1.0301 -0.7358 -0.7317
  104MOL    H3439380   6.513   6.391   4.582 -0.9114 -1.0616 -0.2672
  104MOL    H3539381   6.639   6.281   4.548 -2.2139  0.1418  2.6524
  104MOL    H3639382   6.570   6.370   4.412  0.0604 -0.2858  0.6036
  104MOL    H3739383   6.636   6.619   4.373  2.7622  0.1606  0.1674
  104MOL    H3839384   6.544   6.653   4.525  0.7576  1.7951 -1.1446
  104MOL    H3939385   6.712   6.693   4.509 -1.9050  1.7981  1.3098
  104MOL    C4039386   7.079   6.578   4.308  0.0508  0.1501  0.3766
  104MOL    C4139387   7.234   6.597   4.306 -0.5047  0.3697  0.1428
  104MOL    C4239388   7.311   6.520   4.421  0.0280  0.9100 -0.0490
  104MOL    O4339389   7.301   6.560   4.536  0.0747 -0.1180 -0.2710
  104MOL    N4439390   7.382   6.408   4.387  0.2828 -0.0318 -0.7423
  104MOL    C4539391   7.435   6.315   4.487 -0.1876  0.9755  0.2892
  104MOL    C4639392   7.470   6.178   4.427 -0.6084 -0.6220  0.2290
  104MOL    C4739393   7.564   6.380   4.535  0.0825 -0.1207  0.4456
  104MOL    H4839394   7.048   6.654   4.380 -0.3650  0.5419 -0.2106
  104MOL    H4939395   7.027   6.623   4.223  0.0292 -0.3898  0.1023
  104MOL    H5039396   7.271   6.553   4.213  1.5663  1.2601  0.5113
  104MOL    H5139397   7.373   6.366   4.295  1.2068 -2.4658  0.2229
  104MOL    H5239398   7.359   6.301   4.564 -0.8284 -0.9056 -0.6314
  104MOL    H5339399   7.561   6.171   4.368 -0.5107  2.0422  0.0205
  104MOL    H5439400   7.395   6.146   4.354 -0.0351  0.5414 -0.8740
  104MOL    H5539401   7.482   6.115   4.515 -0.0087  0.1981  0.7314
  104MOL    H5639402   7.543   6.472   4.592  1.2350 -0.4313  1.3896
  104MOL    H5739403   7.611   6.411   4.442 -1.9049  0.0671 -0.5331
  104MOL    H5839404   7.624   6.311   4.594  0.3101 -0.4188 -0.1328
  104MOL    C5939405   7.289   6.748   4.321 -0.2054  0.1744  0.3010
  104MOL    C6039406   7.238   6.849   4.210 -0.2403  0.3000  0.9272
  104MOL    C6139407   7.320   6.838   4.078  0.2329  0.0710 -0.5831
  104MOL    O6239408   7.438   6.813   4.093 -0.4973 -0.2834 -0.1044
  104MOL    N6339409   7.251   6.843   3.954 -0.1934 -0.7091  0.2649
  104MOL    C6439410   7.310   6.826   3.826  0.2252 -0.2899 -0.0107
  104MOL    C6539411   7.370   6.692   3.794 -0.2745  0.3606 -0.1928
  104MOL    C6639412   7.192   6.865   3.732  0.2973  0.6488 -0.8279
  104MOL    H6739413   7.251   6.787   4.415 -1.8788  1.5019 -0.9068
  104MOL    H6839414   7.398   6.755   4.326 -0.1583  1.0299 -1.5498
  104MOL    H6939415   7.135   6.825   4.184 -0.7900  1.5768  1.8286
  104MOL    H7039416   7.151   6.853   3.957 -0.1728 -0.5205  0.3881
  104MOL    H7139417   7.389   6.899   3.815  1.9350 -1.6407  2.8139
  104MOL    H7239418   7.399   6.690   3.689 -0.7515  0.3882 -0.3236
  104MOL    H7339419   7.466   6.693   3.848 -0.5720  0.5484  0.3364
  104MOL    H7439420   7.320   6.599   3.822  0.1261 -0.3338 -1.7588
  104MOL    H7539421   7.232   6.874   3.631  0.9554  1.5787 -0.4997
  104MOL    H7639422   7.125   6.780   3.731  0.4262  0.5108  1.0199
  104MOL    H7739423   7.140   6.957   3.758 -1.2262 -0.4095 -0.0832
  104MOL    C7839424   7.222   6.990   4.264 -1.2542  1.0971  0.3464
  104MOL    C7939425   7.347   7.056   4.318  0.3027 -0.5726 -0.1287
  104MOL    C8039426   7.410   7.157   4.220  0.0247  0.1156  0.3820
  104MOL    O8139427   7.367   7.274   4.214 -0.1638  0.4345  0.6078
  104MOL    N8239428   7.515   7.114   4.150 -0.2613  0.6914  0.6513
  104MOL    C8339429   7.603   7.208   4.084 -0.3654 -0.4087  0.2992
  104MOL    C8439430   7.745   7.158   4.068  0.3151 -0.2035 -0.5722
  104MOL    C8539431   7.551   7.248   3.947 -1.2585  0.1324 -0.0295
  104MOL    H8639432   7.147   6.976   4.342 -1.1975  3.6918  0.9164
  104MOL    H8739433   7.180   7.054   4.186 -2.0995  1.2547  0.9315
  104MOL    H8839434   7.429   6.988   4.342  0.8884  1.2523  3.3640
  104MOL    H8939435   7.528   7.014   4.155  0.2514  0.8425  2.8045
  104MOL    H9039436   7.613   7.290   4.155  1.0040  0.1750 -0.5528
  104MOL    H9139437   7.799   7.250   4.047 -0.5481 -0.2684 -3.2106
  104MOL    H9239438   7.774   7.108   4.161  1.4842  4.1078  1.5055
  104MOL    H9339439   7.753   7.104   3.974 -1.8071 -0.0796 -0.8322
  104MOL    H9439440   7.638   7.287   3.894 -0.7504  2.1642  2.1805
  104MOL    H9539441   7.470   7.321   3.954 -0.0536  1.6382 -1.4224
  104MOL    H9639442   7.502   7.171   3.888  0.9886  1.4502 -3.8146
  104MOL    C9739443   7.324   7.116   4.465 -0.5325 -0.1852  0.1548
  104MOL    C9839444   7.459   7.151   4.538 -0.4737 -0.7216 -0.0847
  104MOL    C9939445   7.522   7.029   4.596  0.2775  0.5228  0.7447
  104MOL   O10039446   7.609   6.969   4.539 -0.4116 -0.0624  0.1474
  104MOL   N10139447   7.474   6.988   4.712  0.2401  0.0475 -0.9086
  104MOL   C10239448   7.528   6.877   4.785 -0.9254 -0.2431 -0.8112
  104MOL   C10339449   7.543   6.919   4.931  0.5201  0.3805  0.0707
  104MOL   C10439450   7.453   6.754   4.765 -0.0917  0.8361 -0.0856
  104MOL   H10539451   7.274   7.035   4.519 -0.7539 -0.3257 -0.2588
  104MOL   H10639452   7.246   7.192   4.464 -1.1780 -0.8267  0.3497
  104MOL   H10739453   7.531   7.188   4.465 -0.3628 -0.0709  0.3559
  104MOL   H10839454   7.398   7.031   4.762 -0.3387 -0.1710 -1.5891
  104MOL   H10939455   7.631   6.864   4.752 -1.1842 -2.7656 -0.7115
  104MOL   H11039456   7.613   6.862   4.992 -1.2337  1.0959  2.8580
  104MOL   H11139457   7.570   7.025   4.927  1.9749 -0.0376 -1.7246
  104MOL   H11239458   7.447   6.927   4.982  0.4681 -1.4405  0.2708
  104MOL   H11339459   7.439   6.736   4.658  3.3358 -2.3625 -0.1028
  104MOL   H11439460   7.352   6.760   4.807 -0.2703 -1.8776 -0.0567
  104MOL   H11539461   7.498   6.662   4.802  1.5366  1.6225 -0.0790
  104MOL   C11639462   7.447   7.269   4.639 -0.3406  0.0370 -0.3612
  104MOL   C11739463   7.576   7.304   4.711 -0.2137  0.0957  0.7387
  104MOL   C11839464   7.554   7.342   4.859  0.1355 -0.3913  0.8231
  104MOL   O11939465   7.636   7.309   4.944 -0.4358 -0.0350 -0.4467
  104MOL   N12039466   7.446   7.411   4.888 -0.0658  0.4800 -0.8605
  104MOL   C12139467   7.389   7.428   5.019 -0.0351 -0.0266  0.2485
  104MOL   C12239468   7.432   7.556   5.087  0.6644 -0.4598 -0.5510
  104MOL   C12339469   7.236   7.421   5.005 -0.2291 -0.6541 -0.5097
  104MOL   H12439470   7.367   7.242   4.707  0.0013  1.7215  0.7561
  104MOL   H12539471   7.404   7.350   4.579 -2.9050  0.1237  1.5198
  104MOL   H12639472   7.642   7.218   4.719 -0.2607  0.2937  3.6277
  104MOL   H12739473   7.392   7.428   4.805 -1.9728  0.0258  0.2600
  104MOL   H12839474   7.425   7.348   5.083  0.8216 -0.0781 -0.2879
  104MOL   H12939475   7.412   7.651   5.038  3.0066  0.9861  1.1760
  104MOL   H13039476   7.532   7.550   5.130 -0.6585 -0.4397  2.6656
  104MOL   H13139477   7.373   7.563   5.178  2.4764  0.2734  0.5924
  104MOL   H13239478   7.186   7.438   5.101  0.5898 -3.2486  0.4470
  104MOL   H13339479   7.189   7.485   4.930 -1.1141 -0.0583  0.5300
  104MOL   H13439480   7.213   7.316   4.986 -1.8069  0.1246 -3.1223
  104MOL   C13539481   7.652   7.418   4.643  0.7038 -0.2257 -0.3215
  104MOL   C13639482   7.784   7.463   4.709  1.0083 -0.3790 -0.7410
  104MOL   C13739483   0.050   7.349   4.714 -0.5104  0.4044 -0.2597
  104MOL   O13839484   0.122   7.332   4.612  0.2776 -0.0163  0.6535
  104MOL   N13939485   0.052   7.282   4.832 -0.2240  0.2728  0.7593
  104MOL   C14039486   0.150   7.180   4.873  0.5395 -0.2869  0.6721
  104MOL   C14139487   0.074   7.052   4.896  0.3222  0.3794  0.6515
  104MOL   C14239488   0.220   7.231   5.004  0.0440  0.4899 -0.2114
  104MOL   H14339489   7.579   7.499   4.648  1.0547  0.0688  0.0197
  104MOL   H14439490   7.657   7.394   4.536  0.4996  1.3739 -0.6998
  104MOL   H14539491   7.746   7.492   4.807  0.4194  0.5469 -1.2318
  104MOL   H14639492   7.815   7.292   4.901  0.2594 -0.2404  1.3661
  104MOL   H14739493   0.218   7.167   4.789 -0.5736 -0.4989 -0.2165
  104MOL   H14839494   0.022   7.025   4.804 -1.7678  0.0097  1.9164
  104MOL   H14939495   0.142   6.975   4.932  2.5169  1.6785 -0.6271
  104MOL   H15039496   0.003   7.082   4.973 -0.6935  0.8828 -0.4636
  104MOL   H15139497   0.162   7.229   5.096  2.2105 -0.9870  1.1527
  104MOL   H15239498   0.257   7.332   4.988  3.1155 -0.5587  0.0078
  104MOL   H15339499   0.308   7.168   5.005  1.0470  1.8789  2.2870
  104MOL   C15439500   0.008   7.596   4.642 -0.5601 -0.6636  0.2005
  104MOL   C15539501   0.139   7.654   4.696 -0.3980  0.1457 -0.2450
  104MOL   C15639502   0.123   7.683   4.845  0.4137 -0.8102 -0.2374
  104MOL   O15739503   0.043   7.771   4.873  0.0574 -0.2815  0.4761
  104MOL   N15839504   0.195   7.618   4.934 -0.4911 -0.1310 -0.2830
  104MOL   C15939505   0.201   7.638   5.077 -0.0311 -0.3362 -0.0503
  104MOL   C16039506   0.344   7.631   5.139  0.3227 -0.2359  1.0417
  104MOL   C16139507   0.103   7.546   5.148  0.1564 -0.2124  0.0760
  104MOL   H16239508   7.771   7.677   4.644  0.1612 -0.0157  0.6189
  104MOL   H16339509   0.021   7.574   4.536  1.6991  0.8477  0.1317
  104MOL   H16439510   0.217   7.580   4.678 -0.6719 -0.0496 -0.6253
  104MOL   H16539511   0.239   7.534   4.900  2.1981  1.0853 -0.0106
  104MOL   H16639512   0.173   7.742   5.096  1.2545 -0.2548  1.5328
  104MOL   H16739513   0.412   7.711   5.110  3.0820 -3.1612 -0.8647
  104MOL   H16839514   0.342   7.624   5.247 -1.3719 -1.7574  0.9281
  104MOL   H16939515   0.397   7.549   5.091  1.5433  1.1457 -0.0433
  104MOL   H17039516   7.834   7.570   5.133  0.8739  3.2130 -0.0488
  104MOL   H17139517   0.124   7.566   5.253  0.4651  4.1711 -0.7313
  104MOL   H17239518   0.136   7.444   5.129  1.2949 -0.1658  1.6829
  104MOL   C17339519   0.180   7.780   4.612  0.2791  0.1596 -0.3941
  104MOL   C17439520   0.268   7.767   4.481  0.0366  0.0694 -0.1904
  104MOL   C17539521   0.195   7.680   4.375  0.2621 -0.7950 -0.2082
  104MOL   O17639522   0.085   7.724   4.329 -0.0745  0.0579 -0.0585
  104MOL   N17739523   0.246   7.556   4.347 -0.5705 -0.3705 -0.8637
  104MOL   C17839524   0.204   7.464   4.237 -0.2176 -0.4524 -0.5967
  104MOL   C17939525   0.276   7.327   4.264 -0.0238 -1.0699  0.2508
  104MOL   C18039526   0.243   7.518   4.103  0.6716 -1.0483 -0.4611
  104MOL   H18139527   0.223   0.014   4.683  2.2125 -0.0582 -1.3101
  104MOL   H18239528   0.088   7.827   4.578  1.3585  1.7842 -1.1306
  104MOL   H18339529   0.360   7.717   4.509  0.1693 -0.0411 -0.8114
  104MOL   H18439530   0.313   7.525   4.416 -0.2138 -1.3110 -1.6288
  104MOL   H18539531   0.101   7.430   4.241 -0.1444 -0.4960  2.4107
  104MOL   H18639532   0.276   7.268   4.172 -1.8202  1.8863 -1.7415
  104MOL   H18739533   0.241   7.269   4.349  0.3790 -0.3145  0.9389
  104MOL   H18839534   0.383   7.338   4.284  0.6284  0.4493 -3.5928
  104MOL   H18939535   0.350   7.533   4.091  0.5243  0.2818 -0.2390
  104MOL   H19039536   0.201   7.618   4.095 -1.9974 -2.0015  0.9668
  104MOL   H19139537   0.215   7.454   4.019 -2.5998  0.7621 -0.8312
  104MOL   C19239538   0.319   0.067   4.424  0.3455  0.1072  0.8464
  104MOL   C19339539   0.405   0.066   4.295  0.4687  0.6904  0.6375
  104MOL   C19439540   0.535   7.819   4.321  0.4348 -0.1497  0.3528
  104MOL   O19539541   0.630   0.031   4.379  0.0934  0.1387  0.3093
  104MOL   N19639542   0.530   7.702   4.258 -0.1826  0.5354 -0.0157
  104MOL   C19739543   0.633   7.601   4.268  0.2360  0.5482 -0.4353
  104MOL   C19839544   0.630   7.523   4.401 -0.1238 -0.5402 -0.2485
  104MOL   C19939545   0.639   7.502   4.154  0.0069 -0.1506 -0.2314
  104MOL   H20039546   0.377   0.131   4.490 -0.0829  0.8250  0.5360
  104MOL   H20139547   0.228   0.126   4.414  0.3998  0.0150 -0.2332
  104MOL   H20239548   0.354   0.013   4.215  3.5520  1.6873 -2.0926
  104MOL   H20339549   0.439   7.685   4.219 -0.3523  0.8573  0.2351
  104MOL   H20439550   0.726   7.656   4.255  0.8004 -0.1053  0.8266
  104MOL   H20539551   0.710   7.449   4.400  0.1992 -0.1910 -0.0576
  104MOL   H20639552   0.536   7.478   4.434  0.6182 -1.3795  0.7392
  104MOL   H20739553   0.651   7.593   4.482 -1.5246  1.5318 -1.6273
  104MOL   H20839554   0.540   7.458   4.140  0.7333 -1.3645 -1.8064
  104MOL   H20939555   0.716   7.425   4.163 -1.4280 -1.8778 -2.2759
  104MOL   H21039556   0.666   7.549   4.059  1.1444  0.8101  0.5550
  104MOL   C21139557   0.451   0.198   4.231  0.1794 -0.0150  0.4056
  104MOL   C21239558   0.333   0.272   4.156 -0.1887  0.1234  0.6415
  104MOL   C21339559   0.374   0.420   4.150 -0.1476  1.0606 -0.7565
  104MOL   O21439560   0.462   0.455   4.074  0.2471  0.0763 -0.7379
  104MOL   N21539561   0.302   0.502   4.229 -0.2053  0.3007  0.8560
  104MOL   C21639562   0.334   0.640   4.260  0.4322  0.5145  0.2152
  104MOL   C21739563   0.403   0.647   4.396  0.4393 -0.1964  0.5426
  104MOL   C21839564   0.207   0.727   4.265 -0.4403  0.2737 -0.3711
  104MOL   H21939565   0.528   0.184   4.155 -0.8711  2.0795 -1.0902
  104MOL   H22039566   0.488   0.261   4.312 -0.9921  1.8251 -0.4368
  104MOL   H22139567   0.245   0.273   4.220  0.1331  0.2494  1.0828
  104MOL   H22239568   0.229   0.460   4.285  0.5162 -1.3922  0.5737
  104MOL   H22339569   0.399   0.662   4.175 -1.0796  4.4089 -0.0152
  104MOL   H22439570   0.479   0.725   4.391  1.0959 -0.8796 -0.3527
  104MOL   H22539571   0.345   0.674   4.484 -3.6239 -4.2559 -0.6698
  104MOL   H22639572   0.457   0.553   4.411  1.2098  0.0312 -0.7459
  104MOL   H22739573   0.138   0.689   4.340 -1.3577 -0.8913 -1.7736
  104MOL   H22839574   0.162   0.731   4.166  0.7535 -0.3682 -0.9518
  104MOL   H22939575   0.224   0.831   4.292 -3.8323  0.6980  0.4094
  104MOL   C23039576   0.304   0.208   4.019 -0.0760 -0.2516  0.0920
  104MOL   C23139577   0.160   0.210   3.967 -0.4248 -0.8155  0.1580
  104MOL   C23239578   0.172   0.174   3.812  0.1875  0.3459 -0.3187
  104MOL   O23339579   0.224   0.066   3.770 -0.2742 -0.1684  0.1153
  104MOL   N23439580   0.101   0.253   3.729  0.7349 -0.2999  0.0777
  104MOL   C23539581   0.087   0.217   3.588  0.5877  0.2082 -0.1869
  104MOL   C23639582   7.808   0.114   3.569 -0.1139 -0.5670  0.1334
  104MOL   C23739583   0.046   0.349   3.518 -0.4553  0.2931 -0.9844
  104MOL   H23839584   0.335   0.104   4.027 -1.2019 -0.8037 -2.5031
  104MOL   H23939585   0.377   0.248   3.948 -0.1491  0.4282  0.3945
  104MOL   H24039586   0.123   0.312   3.973  1.5650 -0.1892  2.3613
  104MOL   H24139587   0.060   0.341   3.757  0.8393  0.4681 -2.0620
  104MOL   H24239588   0.182   0.193   3.541  2.2043  1.6812  2.1759
  104MOL   H24339589   0.000   0.019   3.615  3.2821 -0.0352 -0.7205
  104MOL   H24439590   7.719   0.154   3.617  1.6594  1.9648  1.4196
  104MOL   H24539591   7.780   0.098   3.465 -0.3177  1.0905 -0.0778
  104MOL   H24639592   0.139   0.403   3.535 -1.4014  1.9014 -0.8827
  104MOL   H24739593   7.812   0.409   3.574 -0.8434 -1.3784  0.3741
  104MOL   H24839594   0.044   0.344   3.409  2.2422  3.4468 -1.2460
  104MOL   C24939595   0.059   0.117   4.032 -0.7079  0.0862  1.0771
  104MOL   C25039596   7.809   0.165   4.151 -0.0066 -0.4066  0.6231
  104MOL   C25139597   7.680   0.082   4.158 -0.2975 -0.5752 -0.5674
  104MOL   O25239598   7.576   0.112   4.089 -0.1222 -0.7780 -0.0116
  104MOL   N25339599   7.687   7.807   4.231  0.6041 -0.4682  0.2872
  104MOL   C25439600   7.579   7.715   4.243 -0.2523  0.3119  0.5659
  104MOL   C25539601   7.633   7.576   4.216 -0.4381  0.3256  0.0731
  104MOL   C25639602   7.500   7.725   4.367 -0.4446 -0.0822 -0.5265
  104MOL   H25739603   0.103   0.022   4.061 -0.9415 -0.1355  0.7105
  104MOL   H25839604   7.827   0.090   3.951  1.3451 -2.4143  0.1111
  104MOL   H25939605   0.024   0.155   4.247  1.5996 -1.1517 -0.2971
  104MOL   H26039606   7.772   7.777   4.277  2.5517  0.7626 -2.3342
  104MOL   H26139607   7.506   7.736   4.165  1.3404 -0.3236 -1.1319
  104MOL   H26239608   7.688   7.536   4.301  2.8143  1.2675 -1.5088
  104MOL   H26339609   7.551   7.514   4.180 -0.9615  1.1895 -0.2443
  104MOL   H26439610   7.700   7.578   4.130 -1.6954 -2.6866 -1.0332
  104MOL   H26539611   7.559   7.682   4.448 -0.6989 -1.7981 -1.2337
  104MOL   H26639612   7.477   7.830   4.390 -0.6878 -0.4746  1.0898
  104MOL   H26739613   7.409   7.665   4.372  0.6989 -1.7869  0.0460
  104MOL   C26839614   7.772   0.324   4.152  0.1917 -0.0438 -0.3688
  104MOL   C26939615   7.719   0.384   4.282 -0.4005  0.0732 -0.0007
  104MOL   C27039616   7.811   0.357   4.402  0.0649 -0.2410 -0.0649
  104MOL   O27139617   0.093   0.392   4.406  0.1987 -0.0645  0.2908
  104MOL   N27239618   7.753   0.294   4.504  0.3151  0.2946  0.7453
  104MOL   C27339619   7.815   0.274   4.632  0.2675  0.0010  0.3199
  104MOL   C27439620   7.833   0.411   4.702 -0.9583 -0.5901  0.0394
  104MOL   C27539621   7.716   0.189   4.708  0.5528 -0.0114  0.0966
  104MOL   H27639622   0.026   0.384   4.137 -0.6734  2.4176  3.4847
  104MOL   H27739623   7.704   0.343   4.069  1.9794 -1.1449 -2.1511
  104MOL   H27839624   7.624   0.339   4.310 -1.0511  1.0290 -0.6561
  104MOL   H27939625   7.656   0.269   4.492  1.0049 -1.9829 -0.2517
  104MOL   H28039626   0.074   0.222   4.627 -0.7634 -1.8112 -0.6822
  104MOL   H28139627   0.058   0.485   4.650 -1.5483 -1.1467 -1.4548
  104MOL   H28239628   7.736   0.453   4.726 -0.9784 -0.1266 -0.8418
  104MOL   H28339629   0.035   0.392   4.803 -1.2024  0.9892  0.4423
  104MOL   H28439630   7.611   0.214   4.691  1.1096  1.0602 -1.9965
  104MOL   H28539631   7.726   0.087   4.672  0.4795  0.4185 -1.1652
  104MOL   H28639632   7.741   0.183   4.814 -2.7881 -2.5133  0.8150
  104MOL   C28739633   7.691   0.534   4.268  0.0691 -0.0907  0.0280
  104MOL   C28839634   7.556   0.564   4.199  0.7202  0.1036  0.5639
  104MOL   C28939635   7.580   0.601   4.043 -0.8039 -1.1043  0.2914
  104MOL   O29039636   7.674   0.670   3.999 -0.0198 -0.3525 -0.0396
  104MOL   N29139637   7.484   0.550   3.965 -0.2879  0.0995  0.7431
  104MOL   C29239638   7.500   0.510   3.825  0.5600  0.4612  0.5709
  104MOL   C29339639   7.582   0.387   3.812  0.2267 -0.6580 -0.5234
  104MOL   C29439640   7.352   0.500   3.770  0.0787 -0.2970 -0.4674
  104MOL   H29539641   7.697   0.582   4.366  0.9786  1.1531 -0.6177
  104MOL   H29639642   7.782   0.579   4.227 -0.2054 -0.9503 -1.5431
  104MOL   H29739643   7.491   0.477   4.205  1.4872 -0.4470  0.9243
  104MOL   H29839644   7.397   0.522   4.007 -0.7241  0.3880  0.0414
  104MOL   H29939645   7.550   0.591   3.770 -3.4923  2.8039  0.1115
  104MOL   H30039646   7.624   0.363   3.714  2.2386 -0.1061  0.1825
  104MOL   H30139647   7.680   0.397   3.859  0.8479 -0.6229 -1.8074
  104MOL   H30239648   7.526   0.302   3.854  0.9740 -1.2276 -0.6714
  104MOL   H30339649   7.291   0.588   3.795  0.5653 -0.4816  1.4205
  104MOL   H30439650   7.361   0.484   3.663  1.2096  0.1327 -0.4405
  104MOL   H30539651   7.300   0.413   3.811  0.8206 -0.3258  0.4203
  104MOL   C30639652   7.487   0.677   4.270  0.9534  0.6273 -0.3816
  104MOL   C30739653   7.558   0.816   4.274  0.1549 -0.3024 -0.1379
  104MOL   C30839654   7.546   0.876   4.422  0.1358 -0.2681 -0.2136
  104MOL   O30939655   7.644   0.936   4.469 -0.3190  0.2636  0.4656
  104MOL   N31039656   7.425   0.876   4.477  0.3561  0.1947 -0.7155
  104MOL   C31139657   7.382   0.958   4.593 -0.4430  0.2844 -0.2102
  104MOL   C31239658   7.234   0.933   4.618  0.4003  0.1704 -0.1645
  104MOL   C31339659   7.461   0.942   4.726 -0.5756 -0.6542 -0.6542
  104MOL   H31439660   7.383   0.686   4.238  0.9612 -2.8199 -1.5532
  104MOL   H31539661   7.470   0.649   4.374  0.3919  0.2241 -0.5760
  104MOL   H31639662   7.662   0.798   4.248  0.3289 -2.2928  1.6927
  104MOL   H31739663   7.358   0.826   4.422 -0.0656  0.3715 -0.3654
  104MOL   H31839664   7.397   1.064   4.572 -2.1772  0.4642 -0.5738
  104MOL   H31939665   7.185   0.996   4.691 -0.3836 -2.5653  1.7605
  104MOL   H32039666   7.217   0.829   4.648  0.9987  0.1889  0.2511
  104MOL   H32139667   7.178   0.928   4.525  0.5250  2.6808 -0.3946
  104MOL   H32239668   7.416   0.998   4.808  0.2355 -0.5766 -0.2593
  104MOL   H32339669   7.558   0.989   4.711 -1.2644  1.4354  1.0568
  104MOL   H32439670   7.475   0.835   4.740  3.4491 -0.1094  0.1418
  104MOL   C32539671   7.482   0.908   4.169 -0.5055  0.0556  0.4173
  104MOL   C32639672   7.575   0.995   4.076 -0.0216  0.2849 -1.1473
  104MOL   C32739673   7.488   1.057   3.968  0.4043 -0.1977 -0.3946
  104MOL   O32839674   7.384   1.113   3.995 -0.1940  0.1132 -0.4281
  104MOL   N32939675   7.526   1.042   3.837 -0.3755 -0.2637 -0.0435
  104MOL   C33039676   7.466   1.087   3.710 -0.2345  0.0051 -0.4795
  104MOL   C33139677   7.499   0.988   3.599  0.3261 -0.1216 -0.0358
  104MOL   C33239678   7.521   1.241   3.690  0.4325  0.4272 -0.1925
  104MOL   H33339679   7.408   0.976   4.212 -0.5804 -0.1488  0.6142
  104MOL   H33439680   7.429   0.842   4.100 -2.1504  0.6509  1.0795
  104MOL   H33539681   7.654   0.931   4.036  0.3681  2.5347 -4.2064
  104MOL   H33639682   7.608   0.984   3.821 -0.7407 -0.4419 -1.3164
  104MOL   H33739683   7.358   1.091   3.721 -0.0609 -0.5254  1.8662
  104MOL   H33839684   7.573   1.030   3.531 -0.1782 -1.0984 -1.2031
  104MOL   H33939685   7.518   0.884   3.626 -0.7225 -0.1490  0.6389
  104MOL   H34039686   7.416   0.983   3.529 -0.2304 -0.7550  0.6676
  104MOL   H34139687   7.463   1.313   3.746 -1.5721 -2.1205  1.1201
  104MOL   H34239688   7.534   1.273   3.586  1.8783  0.5734  0.0161
  104MOL   H34339689   7.623   1.256   3.725 -0.4480  2.4369  1.6029
  104MOL   C34439690   7.644   1.101   4.159  0.2517 -0.1688  0.0181
  104MOL   C34539691   7.748   1.186   4.077  0.7987 -1.0805  0.2737
  104MOL   C34639692   7.723   1.341   4.099 -0.3322  0.2671  0.8321
  104MOL   O34739693   7.807   1.422   4.128 -0.3547  0.8774  0.2127
  104MOL   N34839694   7.593   1.380   4.083 -0.5715  0.1958 -0.1324
  104MOL   C34939695   7.555   1.521   4.087 -0.0366 -0.2491  0.2788
  104MOL   C35039696   7.507   1.572   3.950  0.1989  0.3105 -0.1109
  104MOL   C35139697   7.457   1.530   4.209  0.0636 -0.0259 -0.3638
  104MOL   H35239698   7.696   1.063   4.247 -1.2741  1.1186  1.5136
  104MOL   H35339699   7.573   1.163   4.214  2.0401  4.0253 -2.2002
  104MOL   H35439700   7.728   1.158   3.974 -0.7307  1.9240 -0.3009
  104MOL   H35539701   7.526   1.315   4.044  1.0631 -1.2335 -0.5937
  104MOL   H35639702   7.643   1.580   4.111  0.6134 -0.9455 -0.3627
  104MOL   H35739703   7.405   1.536   3.937 -0.7735  3.1191 -0.4648
  104MOL   H35839704   7.506   1.681   3.951  0.9405  0.3189  0.0190
  104MOL   H35939705   7.570   1.544   3.866  0.0391 -2.7078  0.7012
  104MOL   H36039706   7.385   1.448   4.215  0.1844  0.0081  1.5549
  104MOL   H36139707   7.522   1.509   4.293  0.0566  1.7426  0.0999
  104MOL   H36239708   7.407   1.625   4.229 -0.2446 -0.4328  0.7875
  104MOL   C36339709   0.054   1.147   4.099  0.0873 -0.5629  0.7503
  104MOL   C36439710   0.096   1.001   4.063  0.1638  0.0454  0.8425
  104MOL   C36539711   0.097   0.951   3.920  0.2059 -0.8180  0.2810
  104MOL   O36639712   0.091   1.026   3.825  0.3168 -0.0455  0.4846
  104MOL   N36739713   0.088   0.819   3.908 -0.4491 -0.0019 -0.3435
  104MOL   C36839714   0.099   0.722   3.797 -0.4174  0.1487  0.1117
  104MOL   C36939715   0.119   0.585   3.874  0.0878 -0.2221 -0.0687
  104MOL   C37039716   7.812   0.721   3.706  1.0987 -0.0266  0.6902
  104MOL   H37139717   0.089   1.173   4.199  0.1031  0.0329  0.5906
  104MOL   H37239718   0.104   1.211   4.026  0.1439  0.2085  1.4646
  104MOL   H37339719   0.035   0.931   4.122 -1.2612 -1.2106 -2.0285
  104MOL   H37439720   0.062   0.780   3.998 -0.4144  1.6619  0.4153
  104MOL   H37539721   0.179   0.742   3.725  1.4564  2.7139  2.8007
  104MOL   H37639722   0.218   0.579   3.917  0.6961  0.3176 -1.3702
  104MOL   H37739723   0.040   0.574   3.949  0.0591  1.8346  0.2414
  104MOL   H37839724   0.114   0.504   3.802 -0.3590  2.0020 -2.6330
  104MOL   H37939725   7.810   0.804   3.635  0.4118  0.4654  1.2738
  104MOL   H38039726   7.810   0.625   3.655  0.4247 -0.0766  0.7984
  104MOL   H38139727   7.727   0.725   3.773 -0.3203  1.8019 -1.1286
  104MOL   H38239728   0.199   0.988   4.098  0.8456  1.2773 -0.6409
  105MOL     C139729   5.508   0.308   0.319 -0.8869  0.1804  0.5352
  105MOL     C239730   5.562   0.293   0.462 -0.0104  0.5070  0.7184
  105MOL     C339731   5.473   0.189   0.524 -0.4226 -0.7679 -0.0901
  105MOL     O439732   5.487   0.069   0.498 -0.5901 -0.2393  0.3641
  105MOL     N539733   5.370   0.233   0.599  0.3661 -0.2349  0.4955
  105MOL     C639734   5.273   0.148   0.666  0.5624 -0.3840 -0.8170
  105MOL     C739735   5.335   0.062   0.779  0.1949 -0.5482 -0.0649
  105MOL     C839736   5.156   0.229   0.731 -0.2130 -0.7909  0.2689
  105MOL     H939737   5.399   0.309   0.312 -0.9887 -1.3438  1.5622
  105MOL    H1039738   5.539   0.229   0.250  0.9374  3.0040 -1.9917
  105MOL    H1139739   5.544   0.389   0.511 -1.6101 -0.0820  1.2898
  105MOL    H1239740   5.350   0.331   0.589 -0.3194 -0.5581 -1.6635
  105MOL    H1339741   5.232   0.091   0.582 -0.1358  0.0799 -0.7944
  105MOL    H1439742   5.412   7.831   0.740  0.2228 -0.6653  0.1904
  105MOL    H1539743   5.253   0.006   0.823 -1.3230  0.3748 -1.6718
  105MOL    H1639744   5.380   0.116   0.862 -0.1739 -1.3929  0.6942
  105MOL    H1739745   5.108   0.301   0.665 -0.3313  0.6711  1.9385
  105MOL    H1839746   5.082   0.157   0.768  0.4860 -1.1463  0.9922
  105MOL    H1939747   5.206   0.284   0.810  0.1395  0.3989 -0.7698
  105MOL    H2039748   5.547   0.403   0.283 -0.5416 -0.2375 -0.1817
  105MOL    C2139749   5.713   0.259   0.464  0.6148  0.0774 -0.0417
  105MOL    C2239750   5.791   0.298   0.583  0.6941 -0.4304 -0.5409
  105MOL    C2339751   5.802   0.452   0.588  0.0396 -0.2504  0.6506
  105MOL    O2439752   5.728   0.515   0.659 -0.0829  0.2569  0.1937
  105MOL    N2539753   5.882   0.515   0.498  0.5220 -0.2451 -0.1836
  105MOL    C2639754   5.867   0.651   0.457  0.2437  0.2082  0.1234
  105MOL    C2739755   5.761   0.657   0.350  0.2107  0.1388  0.4120
  105MOL    C2839756   5.999   0.697   0.393 -0.8594 -0.5018 -0.5772
  105MOL    H2939757   5.753   0.292   0.369 -0.9166  0.7232 -0.4720
  105MOL    H3039758   5.727   0.151   0.465 -0.6310 -0.1504  4.1134
  105MOL    H3139759   5.709   0.294   0.655  1.3895  2.5134  0.4947
  105MOL    H3239760   5.949   0.451   0.457  0.1971  0.2971 -1.5834
  105MOL    H3339761   5.839   0.706   0.546 -0.1540 -0.3323  0.3329
  105MOL    H3439762   5.807   0.633   0.254  1.2430  1.4266  0.5745
  105MOL    H3539763   5.724   0.759   0.343  0.4714  0.3238  1.6363
  105MOL    H3639764   5.670   0.603   0.376 -0.4926  0.8605 -0.5296
  105MOL    H3739765   6.029   0.640   0.305  2.6944 -2.2739  1.6943
  105MOL    H3839766   5.993   0.802   0.363 -0.7894 -0.5756 -0.8519
  105MOL    H3939767   6.083   0.683   0.460  0.2947  1.1175 -1.6378
  105MOL    C4039768   5.922   0.219   0.617 -0.3992  0.0129 -0.5465
  105MOL    C4139769   5.978   0.260   0.760 -0.1843  0.3751 -0.2415
  105MOL    C4239770   6.129   0.220   0.776 -0.0687 -0.4601 -0.0543
  105MOL    O4339771   6.165   0.104   0.751  0.5579  0.4268  0.3259
  105MOL    N4439772   6.215   0.320   0.805  0.2228  0.3907  0.2473
  105MOL    C4539773   6.358   0.307   0.815 -0.6299  0.0348  0.0585
  105MOL    C4639774   6.412   0.445   0.787 -0.3480 -0.0245  0.0872
  105MOL    C4739775   6.390   0.272   0.959  0.3868  0.0171  0.1265
  105MOL    H4839776   5.998   0.233   0.541 -0.5705  1.9871 -0.3807
  105MOL    H4939777   5.905   0.112   0.606  2.7281 -0.4991 -0.7781
  105MOL    H5039778   5.972   0.368   0.771 -0.2264  0.5721 -2.0102
  105MOL    H5139779   6.178   0.408   0.837  1.0929  0.6569  0.5445
  105MOL    H5239780   6.380   0.227   0.744  0.1264  0.9573 -0.7609
  105MOL    H5339781   6.378   0.487   0.692  1.5176 -1.9659 -1.5004
  105MOL    H5439782   6.518   0.425   0.773 -1.0102 -1.8472 -2.8262
  105MOL    H5539783   6.397   0.521   0.863  2.2795  0.6472 -0.0045
  105MOL    H5639784   6.361   0.172   0.989  1.2549 -0.4885 -0.6821
  105MOL    H5739785   6.338   0.337   1.030  0.1119  0.7812 -0.7617
  105MOL    H5839786   6.496   0.271   0.985  1.0777  0.9273 -2.4876
  105MOL    C5939787   5.912   0.190   0.874  0.3392  0.3655  0.0829
  105MOL    C6039788   5.936   0.246   1.017  1.3180 -0.0331 -0.0177
  105MOL    C6139789   5.872   0.148   1.126  0.3448  0.0430  0.4795
  105MOL    O6239790   5.792   0.194   1.210 -0.3353 -0.1682  0.4215
  105MOL    N6339791   5.913   0.018   1.110 -0.7008 -0.4779 -0.0402
  105MOL    C6439792   5.862   7.736   1.180  0.2015  0.0455  0.7812
  105MOL    C6539793   5.757   7.662   1.085  0.6285  0.3770 -1.3179
  105MOL    C6639794   5.983   7.644   1.215 -0.4305  0.7216  0.3543
  105MOL    H6739795   5.806   0.184   0.853  0.6064  2.1276 -1.9172
  105MOL    H6839796   5.938   0.084   0.873  2.0203  0.7621 -0.6581
  105MOL    H6939797   6.042   0.235   1.040  1.3281 -0.5079 -0.2969
  105MOL    H7039798   5.974   0.002   1.032  0.3223  0.3842  0.5663
  105MOL    H7139799   5.805   7.766   1.268  0.9262 -1.6645  1.8713
  105MOL    H7239800   5.701   7.584   1.136  0.7610  0.8305 -0.4674
  105MOL    H7339801   5.681   7.722   1.036 -1.4792 -0.4519  0.8751
  105MOL    H7439802   5.803   7.615   0.998  2.3887  0.1092 -0.2791
  105MOL    H7539803   6.045   7.627   1.127  2.1123 -0.6883  2.3305
  105MOL    H7639804   6.052   7.700   1.278 -1.2979  2.1396  0.0650
  105MOL    H7739805   5.963   7.543   1.253  0.6792  0.9355  1.5143
  105MOL    C7839806   5.889   0.399   1.046  0.3414  0.3752 -0.0181
  105MOL    C7939807   5.942   0.467   1.174 -0.0933  0.0121  0.2381
  105MOL    C8039808   6.097   0.493   1.175 -0.7881  0.5512 -1.0497
  105MOL    O8139809   6.157   0.517   1.073  0.2709  0.0071 -0.2488
  105MOL    N8239810   6.156   0.502   1.298  0.4613 -0.1566 -0.1334
  105MOL    C8339811   6.289   0.555   1.333 -0.0977 -0.2494  0.7538
  105MOL    C8439812   6.293   0.712   1.298 -0.0803  0.2767 -0.3430
  105MOL    C8539813   6.327   0.532   1.482  0.0531 -0.0993 -0.3081
  105MOL    H8639814   5.780   0.399   1.053  0.1308 -0.4106 -2.9247
  105MOL    H8739815   5.902   0.461   0.958  0.2004  0.5583  0.0911
  105MOL    H8839816   5.933   0.407   1.265 -3.5723  0.7441  0.4538
  105MOL    H8939817   6.082   0.501   1.367 -1.5098 -2.7011 -2.1767
  105MOL    H9039818   6.360   0.514   1.261  0.3423  1.5202  0.1591
  105MOL    H9139819   6.269   0.740   1.195 -2.3609  0.7899  0.2862
  105MOL    H9239820   6.218   0.759   1.362 -0.4281 -0.5836 -0.1208
  105MOL    H9339821   6.393   0.750   1.318  0.2355 -1.4171  1.4419
  105MOL    H9439822   6.344   0.426   1.500  0.3768 -0.1178 -0.6983
  105MOL    H9539823   6.262   0.588   1.549 -0.1730 -1.2624  0.4700
  105MOL    H9639824   6.427   0.569   1.503  0.0744  1.1196 -2.4035
  105MOL    C9739825   5.863   0.598   1.208  0.7893 -0.2972 -0.2879
  105MOL    C9839826   5.729   0.571   1.283  0.2841  0.4667 -0.5831
  105MOL    C9939827   5.601   0.562   1.192 -0.7303  0.2147 -0.5047
  105MOL   O10039828   5.558   0.658   1.132  0.7012 -0.1333 -0.0653
  105MOL   N10139829   5.549   0.440   1.171  0.1701  0.2911 -0.2073
  105MOL   C10239830   5.471   0.397   1.061 -0.0525  0.2344  0.5290
  105MOL   C10339831   5.536   0.373   0.927 -0.8044 -0.8306 -0.0860
  105MOL   C10439832   5.415   0.261   1.104 -0.2523  0.2394 -0.5940
  105MOL   H10539833   5.823   0.643   1.117  1.4668 -0.4423 -0.6599
  105MOL   H10639834   5.930   0.673   1.251 -0.0656  0.3625 -0.1040
  105MOL   H10739835   5.738   0.469   1.321  1.0079  1.1039  1.0207
  105MOL   H10839836   5.581   0.362   1.225 -0.8107 -0.0146 -0.0649
  105MOL   H10939837   5.382   0.459   1.048  0.3700  0.7289 -0.0099
  105MOL   H11039838   5.585   0.464   0.892  1.2639 -1.0761  2.0789
  105MOL   H11139839   5.615   0.299   0.932  0.3052  0.0859 -2.8804
  105MOL   H11239840   5.469   0.343   0.847  1.1551 -0.6268 -1.8623
  105MOL   H11339841   5.343   0.224   1.031 -0.1667  1.0694 -1.1089
  105MOL   H11439842   5.374   0.284   1.203  1.6815  1.9947 -0.1649
  105MOL   H11539843   5.493   0.187   1.121 -0.1992  0.8572  2.0115
  105MOL   C11639844   5.698   0.674   1.396  0.6548  0.3508  0.2926
  105MOL   C11739845   5.801   0.684   1.517  0.5668  0.0029 -0.6180
  105MOL   C11839846   5.807   0.543   1.585  0.3000 -0.0940  0.1802
  105MOL   O11939847   5.708   0.487   1.629 -0.5523  0.7581  0.4650
  105MOL   N12039848   5.924   0.480   1.601  0.7458 -0.3828  0.4251
  105MOL   C12139849   5.936   0.339   1.650  0.4518 -0.4045  0.0043
  105MOL   C12239850   5.901   0.238   1.531 -0.0194 -0.0460 -0.3903
  105MOL   C12339851   6.071   0.306   1.712  0.0560  0.0524  0.3130
  105MOL   H12439852   5.603   0.658   1.446  1.6443 -3.1006  1.1875
  105MOL   H12539853   5.701   0.778   1.364  0.7121 -0.3523 -2.0460
  105MOL   H12639854   5.897   0.711   1.475  0.0503  2.0173 -0.5332
  105MOL   H12739855   6.010   0.522   1.568  0.4891  1.1635  1.6184
  105MOL   H12839856   5.865   0.324   1.732 -0.9671  0.0793 -1.1217
  105MOL   H12939857   5.984   0.245   1.461  1.0115 -4.8143  0.2220
  105MOL   H13039858   5.800   0.251   1.491  0.2242  0.9351 -0.7032
  105MOL   H13139859   5.897   0.149   1.593 -4.4194  1.0067  1.0761
  105MOL   H13239860   6.151   0.357   1.659  0.4881 -1.7735 -0.8023
  105MOL   H13339861   6.068   0.341   1.816  1.4902  0.1190  0.3404
  105MOL   H13439862   6.093   0.200   1.706  1.4626  0.3758 -0.4245
  105MOL   C13539863   5.762   0.799   1.611  0.1991 -0.4861 -0.4211
  105MOL   C13639864   5.878   0.860   1.689 -0.2409 -0.5873 -0.5435
  105MOL   C13739865   5.995   0.919   1.601 -0.2866  0.0511 -0.4740
  105MOL   O13839866   6.105   0.870   1.601 -0.3553 -0.4443  0.1699
  105MOL   N13939867   5.967   1.032   1.535 -0.1162  0.3889 -0.3206
  105MOL   C14039868   6.037   1.078   1.417 -0.4804  0.7458 -0.2279
  105MOL   C14139869   6.015   1.229   1.399  0.0300  0.2300 -0.3498
  105MOL   C14239870   6.011   0.988   1.290  0.0569  0.2439 -1.1122
  105MOL   H14339871   5.691   0.754   1.681 -0.9206 -0.7855 -1.7212
  105MOL   H14439872   5.709   0.877   1.556 -1.6101 -0.8066  0.8249
  105MOL   H14539873   5.911   0.773   1.746  0.7251 -0.6283 -1.1479
  105MOL   H14639874   5.870   1.059   1.543 -0.0601  1.2927 -2.2587
  105MOL   H14739875   6.141   1.063   1.447 -0.4788 -3.0350 -1.8387
  105MOL   H14839876   6.085   1.292   1.453  0.2127 -1.4729  1.4334
  105MOL   H14939877   6.014   1.257   1.293  0.0950 -0.4662 -0.5378
  105MOL   H15039878   5.919   1.268   1.433 -0.5279  2.0294 -3.7016
  105MOL   H15139879   6.084   1.016   1.214 -1.4020 -0.0027 -2.6174
  105MOL   H15239880   5.916   0.990   1.237  0.1672 -1.7535 -1.4101
  105MOL   H15339881   6.022   0.883   1.316 -1.3091 -0.1717 -2.1548
  105MOL   C15439882   5.823   0.959   1.792  0.0655 -0.7776 -0.1832
  105MOL   C15539883   5.922   1.040   1.884 -0.2814  0.0533 -0.6217
  105MOL   C15639884   6.061   0.977   1.915 -0.3937  0.1831 -0.0265
  105MOL   O15739885   6.076   0.872   1.973 -0.4320  0.4255 -0.2289
  105MOL   N15839886   6.173   1.044   1.868  0.5675  0.1494  0.0280
  105MOL   C15939887   6.304   0.990   1.880 -0.4800 -0.5557 -0.3923
  105MOL   C16039888   6.406   1.102   1.885 -0.1907 -0.0413  0.2872
  105MOL   C16139889   6.339   0.879   1.787 -0.3265  0.6142  0.6149
  105MOL   H16239890   5.752   0.900   1.850  1.0487 -2.3270 -0.5367
  105MOL   H16339891   5.766   1.033   1.736 -0.7988 -0.7332  0.7359
  105MOL   H16439892   5.944   1.133   1.831 -0.7378  0.4749 -0.0767
  105MOL   H16539893   6.164   1.120   1.802  3.3675  0.1411 -0.3960
  105MOL   H16639894   6.310   0.955   1.983  2.0061  2.5079  0.5837
  105MOL   H16739895   6.506   1.059   1.893 -0.5620 -0.4334  3.5014
  105MOL   H16839896   6.406   1.172   1.802  1.5248  0.4757  0.6920
  105MOL   H16939897   6.393   1.169   1.970 -1.0785  0.1884 -0.0240
  105MOL   H17039898   6.262   0.801   1.788 -0.7180  0.9802 -0.1251
  105MOL   H17139899   6.441   0.844   1.803 -0.7293  0.3053  2.6093
  105MOL   H17239900   6.332   0.902   1.681 -1.3662 -1.4837  0.2070
  105MOL   C17339901   5.851   1.087   2.017  0.6669  0.7677  0.1196
  105MOL   C17439902   5.923   1.198   2.105  0.2002 -0.6807  0.3595
  105MOL   C17539903   5.935   1.330   2.024  0.5995 -0.1038 -0.0616
  105MOL   O17639904   5.842   1.403   2.013 -0.4959  0.3301  0.5746
  105MOL   N17739905   6.051   1.357   1.967 -0.0259  0.1557  0.4241
  105MOL   C17839906   6.078   1.466   1.875 -0.1159 -0.3998 -0.0833
  105MOL   C17939907   6.110   1.412   1.739 -0.2064 -0.0597  0.9563
  105MOL   C18039908   6.193   1.555   1.933  0.5371  0.4835 -0.0875
  105MOL   H18139909   5.827   0.999   2.076  0.6788 -0.9496 -2.3475
  105MOL   H18239910   5.753   1.126   1.989 -0.4024 -3.8361 -3.1222
  105MOL   H18339911   6.024   1.159   2.118  0.4300  0.5360  2.3761
  105MOL   H18439912   6.132   1.301   1.986  0.2460  0.2960 -0.2861
  105MOL   H18539913   5.991   1.533   1.879  0.9499  0.9155  2.9865
  105MOL   H18639914   6.207   1.363   1.742 -0.6912 -1.0072  1.7803
  105MOL   H18739915   6.127   1.499   1.677 -3.2983  0.6493  0.9904
  105MOL   H18839916   6.036   1.350   1.687  1.3075 -0.1559 -1.1403
  105MOL   H18939917   6.214   1.633   1.860  1.6608  0.1692 -0.1086
  105MOL   H19039918   6.289   1.504   1.924  0.0504 -0.2045 -1.5971
  105MOL   H19139919   6.172   1.574   2.038  3.0686  0.4699  0.4519
  105MOL   C19239920   5.856   1.213   2.241 -0.0750 -0.3274 -0.5116
  105MOL   C19339921   5.945   1.266   2.361 -0.1791 -0.1525  0.4692
  105MOL   C19439922   5.997   1.416   2.348  0.2318 -0.4226 -0.1764
  105MOL   O19539923   6.095   1.447   2.281 -0.4011 -0.0354 -0.5730
  105MOL   N19639924   5.925   1.508   2.405 -0.3674 -0.2196  0.3140
  105MOL   C19739925   5.932   1.653   2.378 -0.6178 -0.1048 -0.1306
  105MOL   C19839926   5.849   1.690   2.254 -0.1092  0.6498 -0.0062
  105MOL   C19939927   5.888   1.714   2.515 -0.8493  0.3369 -0.3350
  105MOL   H20039928   5.827   1.113   2.275  1.2940 -0.3674  0.5849
  105MOL   H20139929   5.766   1.273   2.233 -1.1247 -1.9292 -0.9349
  105MOL   H20239930   5.883   1.273   2.450 -0.2252 -4.6897  0.9130
  105MOL   H20339931   5.852   1.477   2.468  0.7914  1.3359  2.4964
  105MOL   H20439932   6.034   1.683   2.354 -0.5659 -0.8736 -0.8640
  105MOL   H20539933   5.905   1.654   2.167 -1.4016 -0.4993 -0.3860
  105MOL   H20639934   5.844   1.798   2.238  0.4879  0.3619 -2.3628
  105MOL   H20739935   5.745   1.656   2.265  0.0645 -0.1531 -0.7519
  105MOL   H20839936   5.780   1.718   2.525 -1.1290  0.1843 -3.0215
  105MOL   H20939937   5.929   1.814   2.530 -0.5637 -0.1049  2.0192
  105MOL   H21039938   5.928   1.650   2.594 -0.2727  1.2437  0.1219
  105MOL   C21139939   6.061   1.169   2.405  0.4911 -0.3029 -0.6349
  105MOL   C21239940   6.110   1.190   2.552  0.5487 -0.4682 -0.4856
  105MOL   C21339941   6.013   1.143   2.662  0.3164  0.0992  0.3071
  105MOL   O21439942   5.924   1.059   2.634 -0.5155 -0.0490 -0.1363
  105MOL   N21539943   6.026   1.196   2.787 -0.2742 -0.4602 -0.6208
  105MOL   C21639944   5.940   1.180   2.901  0.2251 -0.0333  0.1627
  105MOL   C21739945   5.933   1.314   2.983 -0.3450  0.5065  1.0584
  105MOL   C21839946   5.987   1.062   2.974 -1.1202  0.2944  0.2498
  105MOL   H21939947   6.139   1.180   2.330  0.2664  0.3391 -0.7838
  105MOL   H22039948   6.028   1.067   2.385 -0.5514 -0.0564 -0.2050
  105MOL   H22139949   6.116   1.297   2.574  0.2157 -0.6966  0.7478
  105MOL   H22239950   6.096   1.268   2.784 -0.3907 -0.2225  1.4326
  105MOL   H22339951   5.847   1.144   2.856  0.2284  1.8262 -1.3963
  105MOL   H22439952   6.031   1.344   3.022 -0.2139  0.9359  0.4079
  105MOL   H22539953   5.900   1.396   2.920  0.9175  1.1033  1.1560
  105MOL   H22639954   5.865   1.309   3.068 -0.6336  0.5415  0.8283
  105MOL   H22739955   6.088   1.086   3.008 -0.8090 -0.0865 -0.3895
  105MOL   H22839956   5.981   0.973   2.911  0.6884  0.4890 -0.2227
  105MOL   H22939957   5.928   1.033   3.061  0.5502 -1.3915  0.8781
  105MOL   C23039958   6.253   1.144   2.576 -0.3248 -0.6132  0.0263
  105MOL   C23139959   6.363   1.254   2.545  0.1114  0.6693  0.1583
  105MOL   C23239960   6.358   1.359   2.654 -0.6999 -0.8104  0.2012
  105MOL   O23339961   6.382   1.331   2.772  0.0356 -0.3446 -0.0209
  105MOL   N23439962   6.324   1.482   2.611 -0.5830 -0.1055  0.1172
  105MOL   C23539963   6.285   1.581   2.708  0.4543 -0.2214  0.8107
  105MOL   C23639964   6.289   1.725   2.649  0.0417 -0.2254  0.4887
  105MOL   C23739965   6.150   1.549   2.780  0.0472 -0.2800  0.0521
  105MOL   H23839966   6.277   1.049   2.528  0.0100 -0.8307  0.6271
  105MOL   H23939967   6.270   1.120   2.680  0.5848 -0.8532 -0.1723
  105MOL   H24039968   6.343   1.290   2.444 -0.2289  0.2762  0.0865
  105MOL   H24139969   6.317   1.500   2.512  0.7174 -4.5791 -0.8738
  105MOL   H24239970   6.360   1.584   2.786  0.1288 -1.0696  1.1569
  105MOL   H24339971   6.244   1.797   2.718  0.7705  0.9049 -0.2024
  105MOL   H24439972   6.392   1.754   2.629 -0.2730 -0.6258 -1.8879
  105MOL   H24539973   6.240   1.739   2.553  1.4765 -1.4680 -0.4476
  105MOL   H24639974   6.152   1.455   2.836 -1.1946  0.1409  0.8136
  105MOL   H24739975   6.072   1.540   2.705 -0.2476 -1.4414  0.4785
  105MOL   H24839976   6.118   1.634   2.840  0.2836 -0.0925 -0.0851
  105MOL   C24939977   6.505   1.194   2.545 -0.2518  0.5732  0.4803
  105MOL   C25039978   6.621   1.276   2.487 -0.2880  0.6196  0.2022
  105MOL   C25139979   6.608   1.312   2.335  0.4548 -0.3159 -0.1003
  105MOL   O25239980   6.566   1.227   2.257 -1.0237  0.2309 -0.0685
  105MOL   N25339981   6.652   1.433   2.296  0.3792  1.0066 -0.3046
  105MOL   C25439982   6.657   1.475   2.157 -0.7031  0.1690  0.0501
  105MOL   C25539983   6.532   1.542   2.121  0.4679 -0.2022 -0.1891
  105MOL   C25639984   6.782   1.565   2.140 -0.2320  0.5952  0.7942
  105MOL   H25739985   6.497   1.098   2.493  1.1169  2.3609 -3.1898
  105MOL   H25839986   6.532   1.158   2.645  1.0103  1.7096  0.5705
  105MOL   H25939987   6.628   1.370   2.543 -0.2458  1.2657 -0.8729
  105MOL   H26039988   6.707   1.487   2.361 -1.0707 -0.3577  2.1199
  105MOL   H26139989   6.678   1.383   2.103 -1.1407 -0.2206  0.5323
  105MOL   H26239990   6.516   1.603   2.210  4.0593 -2.1085  1.8561
  105MOL   H26339991   6.541   1.608   2.034 -0.0701  0.9024  0.5764
  105MOL   H26439992   6.448   1.473   2.114 -1.1597  1.7969 -0.8407
  105MOL   H26539993   6.773   1.658   2.197 -1.5445  1.2499 -0.4578
  105MOL   H26639994   6.878   1.519   2.166  0.1094  1.0346  0.3253
  105MOL   H26739995   6.798   1.598   2.037 -0.4334  1.3019  0.9823
  105MOL   C26839996   6.755   1.198   2.499  0.1731  0.3986  0.3324
  105MOL   C26939997   6.758   1.049   2.441  0.1803 -0.6028  0.1492
  105MOL   C27039998   6.865   1.030   2.331  0.6381  0.0486 -0.0472
  105MOL   O27139999   6.954   0.946   2.341  0.2978 -0.3770  0.0832
  105MOL   N27240000   6.839   1.100   2.217  0.4227 -0.0374  0.5545
  105MOL   C27340001   6.896   1.093   2.084 -0.2495 -0.8319 -0.0070
  105MOL   C27440002   6.802   1.045   1.971  0.3928  0.5708 -0.8757
  105MOL   C27540003   6.944   1.237   2.043 -0.1270 -0.1185  0.2119
  105MOL   H27640004   6.831   1.262   2.455  2.0076 -0.2781  2.3923
  105MOL   H27740005   6.775   1.186   2.606 -0.0730  2.1396  0.5950
  105MOL   H27840006   6.660   1.038   2.393  1.2371 -0.4677 -2.0780
  105MOL   H27940007   6.755   1.156   2.221 -0.4461 -1.3313  0.8530
  105MOL   H28040008   6.986   1.033   2.087  0.2351 -0.2156 -1.5959
  105MOL   H28140009   6.728   1.119   1.941 -0.9657 -1.0547 -1.5753
  105MOL   H28240010   6.853   1.001   1.886  0.1861 -0.8451 -0.2759
  105MOL   H28340011   6.727   0.979   2.014 -0.2251  1.8397  0.0428
  105MOL   H28440012   7.030   1.264   2.105 -0.3081  1.0436 -0.0305
  105MOL   H28540013   6.971   1.243   1.937 -0.7927 -0.5077  0.0153
  105MOL   H28640014   6.863   1.310   2.054 -0.2455 -0.2491  0.2002
  105MOL   C28740015   6.772   0.943   2.547  0.0380 -0.1988  0.2520
  105MOL   C28840016   6.732   0.792   2.527  0.4173 -0.1590  0.2650
  105MOL   C28940017   6.591   0.797   2.486  0.5874 -0.3130  0.6522
  105MOL   O29040018   6.499   0.823   2.559 -0.4112  0.5338  0.1504
  105MOL   N29140019   6.576   0.766   2.356 -0.0679  0.5339 -0.4583
  105MOL   C29240020   6.452   0.762   2.279  0.2326 -0.3407  0.5470
  105MOL   C29340021   6.395   0.905   2.270  0.3158 -0.1722 -0.3869
  105MOL   C29440022   6.481   0.714   2.134  0.3270  0.6558  0.3596
  105MOL   H29540023   6.873   0.951   2.587  0.9584 -2.4183 -1.5117
  105MOL   H29640024   6.713   0.980   2.630 -0.0730  1.1637 -0.4129
  105MOL   H29740025   6.777   0.735   2.446 -0.7038  0.9104 -1.1327
  105MOL   H29840026   6.656   0.727   2.309  0.1643  0.4696 -0.0117
  105MOL   H29940027   6.376   0.702   2.329  2.0772 -1.6940  1.7994
  105MOL   H30040028   6.301   0.925   2.219  0.9548  0.5299 -1.3037
  105MOL   H30140029   6.364   0.932   2.371  0.7791  0.9091 -0.5327
  105MOL   H30240030   6.474   0.972   2.236  0.1295  0.0067 -0.4689
  105MOL   H30340031   6.405   0.731   2.058  1.4359  1.7344 -0.5414
  105MOL   H30440032   6.563   0.775   2.096 -0.8104  2.1342  0.2730
  105MOL   H30540033   6.514   0.610   2.129 -1.3383  0.0995  0.7231
  105MOL   C30640034   6.754   0.725   2.663 -0.0762 -0.0220  0.1690
  105MOL   C30740035   6.901   0.691   2.697  0.5793  0.4524 -0.0949
  105MOL   C30840036   6.971   0.589   2.600  0.0517  0.2395  0.1384
  105MOL   O30940037   6.950   0.470   2.608 -0.1754  0.3105  0.2967
  105MOL   N31040038   7.060   0.640   2.509  0.2670  0.3071  0.5212
  105MOL   C31140039   7.130   0.575   2.400  0.3375 -0.2012 -0.1360
  105MOL   C31240040   7.214   0.681   2.327 -0.5942 -0.3161  0.1190
  105MOL   C31340041   7.215   0.461   2.453 -0.4210  0.5787  0.5592
  105MOL   H31440042   6.699   0.782   2.738  1.7872  0.4298  1.2447
  105MOL   H31540043   6.707   0.627   2.659  2.8025 -1.3807 -2.3165
  105MOL   H31640044   6.959   0.782   2.686  0.6148  0.7204  2.0847
  105MOL   H31740045   7.072   0.740   2.500 -1.4992  0.3505 -1.8706
  105MOL   H31840046   7.049   0.543   2.334 -1.4229  1.3791  1.2068
  105MOL   H31940047   7.265   0.631   2.245 -1.6961  1.3554 -1.6221
  105MOL   H32040048   7.290   0.731   2.387 -1.9983 -1.3750  2.9087
  105MOL   H32140049   7.150   0.757   2.282 -0.1002  0.4040  0.6252
  105MOL   H32240050   7.168   0.380   2.508 -0.4128 -0.5492 -1.0341
  105MOL   H32340051   7.288   0.496   2.526 -0.1891 -1.4437  1.3366
  105MOL   H32440052   7.268   0.415   2.369  0.5767 -0.3058  1.6606
  105MOL   C32540053   6.898   0.660   2.847  0.0799 -0.0929  0.1003
  105MOL   C32640054   7.039   0.642   2.916 -0.0526  0.3406 -0.5432
  105MOL   C32740055   7.149   0.741   2.880 -0.1065  0.3510  0.0028
  105MOL   O32840056   7.125   0.865   2.877  0.6778 -0.0980 -1.5103
  105MOL   N32940057   7.270   0.690   2.849 -0.0688  0.2648  0.0209
  105MOL   C33040058   7.380   0.760   2.788  0.8559 -0.2910  0.0428
  105MOL   C33140059   7.368   0.790   2.639 -0.3202  0.4100 -0.0692
  105MOL   C33240060   7.511   0.687   2.818  0.0469 -0.0002 -0.7326
  105MOL   H33340061   6.834   0.573   2.864 -0.9642  0.5915 -0.2881
  105MOL   H33440062   6.849   0.734   2.909 -0.3401 -0.2394 -0.0545
  105MOL   H33540063   7.072   0.545   2.880  0.6668  0.1872  0.4943
  105MOL   H33640064   7.281   0.590   2.845 -1.2069  0.0865  1.0595
  105MOL   H33740065   7.371   0.859   2.834 -1.2036 -1.0187  1.2388
  105MOL   H33840066   7.408   0.713   2.572 -0.5693 -1.1692  1.5610
  105MOL   H33940067   7.265   0.800   2.606  0.0874 -0.7530 -1.7600
  105MOL   H34040068   7.426   0.880   2.617 -0.4459  1.2156  2.8046
  105MOL   H34140069   7.597   0.750   2.794  0.4928 -0.2984  0.0898
  105MOL   H34240070   7.508   0.588   2.773  1.2358 -0.1984 -0.3916
  105MOL   H34340071   7.502   0.669   2.925 -0.8398 -0.8338 -0.9406
  105MOL   C34440072   7.028   0.625   3.073 -0.0511 -0.0162 -0.1863
  105MOL   C34540073   7.008   0.746   3.164 -0.1421 -0.0346 -0.1357
  105MOL   C34640074   6.885   0.828   3.137  0.6703 -0.1543  0.3245
  105MOL   O34740075   6.777   0.792   3.186  0.0822 -0.2642 -0.6376
  105MOL   N34840076   6.902   0.938   3.067 -0.0341  0.1801  0.4791
  105MOL   C34940077   6.811   1.058   3.050  0.2811 -0.0343 -0.6700
  105MOL   C35040078   6.897   1.182   3.045 -0.4592  0.1050 -0.3302
  105MOL   C35140079   6.731   1.049   2.920  0.2585 -0.2726  0.3234
  105MOL   H35240080   7.125   0.585   3.103 -0.3464 -0.5636  0.0428
  105MOL   H35340081   6.949   0.559   3.107 -0.1492  0.8906  1.3885
  105MOL   H35440082   7.091   0.814   3.146 -0.0000 -0.1218  0.1993
  105MOL   H35540083   6.994   0.938   3.025  0.2087 -2.0378  0.9282
  105MOL   H35640084   6.743   1.069   3.134  0.3932  0.5943 -0.6583
  105MOL   H35740085   6.969   1.187   3.128 -2.6841  0.7657  1.6216
  105MOL   H35840086   6.943   1.205   2.949  0.1535 -1.1772 -0.3540
  105MOL   H35940087   6.832   1.269   3.059 -0.6128  0.0576 -0.7538
  105MOL   H36040088   6.666   0.961   2.915  0.1858 -0.1590 -0.8417
  105MOL   H36140089   6.674   1.142   2.924 -1.2315 -1.1565  0.1057
  105MOL   H36240090   6.806   1.045   2.841  1.1823 -2.3477  1.2586
  105MOL   C36340091   7.017   0.706   3.312  0.0736  0.5568 -0.5066
  105MOL   C36440092   7.141   0.623   3.359  0.2799 -0.1653  0.3141
  105MOL   C36540093   7.277   0.690   3.353 -0.4337 -0.3305 -0.6872
  105MOL   O36640094   7.296   0.784   3.435  0.2210 -0.1333  0.1259
  105MOL   N36740095   7.371   0.643   3.262  0.7593 -0.0913  0.3109
  105MOL   C36840096   7.510   0.676   3.250  0.7244 -0.5707  0.2401
  105MOL   C36940097   7.530   0.826   3.213  0.2257  0.0171 -0.2394
  105MOL   C37040098   7.594   0.620   3.368 -0.0946  0.0564  0.0769
  105MOL   H37140099   6.930   0.647   3.337  1.4173 -0.4972  1.8432
  105MOL   H37240100   7.019   0.790   3.382  1.4561  0.0330  0.1088
  105MOL   H37340101   7.154   0.535   3.296  1.1823 -0.0412  0.3270
  105MOL   H37440102   7.341   0.561   3.212 -0.1205 -0.7801  1.9528
  105MOL   H37540103   7.554   0.623   3.165 -0.3590  1.1265 -1.4037
  105MOL   H37640104   7.500   0.885   3.299 -0.4262 -0.6814  0.0270
  105MOL   H37740105   7.638   0.835   3.199  0.0478  0.0411 -1.7295
  105MOL   H37840106   7.461   0.853   3.132 -0.4331 -1.0690 -0.0532
  105MOL   H37940107   7.553   0.522   3.394 -1.7284  0.2926 -1.4926
  105MOL   H38040108   7.699   0.603   3.345 -0.0426  1.6157 -0.9119
  105MOL   H38140109   7.583   0.692   3.450  2.1258  1.6186 -0.9589
  105MOL   H38240110   7.124   0.589   3.461  1.8395  0.4408  0.7934
  106MOL     C140111   0.240   0.147   1.195 -0.0652 -0.1243  0.1262
  106MOL     C240112   0.106   0.228   1.214 -0.4181 -0.4467  0.0597
  106MOL     C340113   0.006   0.134   1.277  0.4246 -0.1488  0.4151
  106MOL     O440114   0.018   0.107   1.397 -0.0396  0.2407 -0.1013
  106MOL     N540115   7.752   0.071   1.200 -0.6273 -0.5299  0.2960
  106MOL     C640116   7.649   7.815   1.255  0.1431  0.0260  0.6373
  106MOL     C740117   7.503   0.040   1.268  0.1333  0.2211  0.7884
  106MOL     C840118   7.658   7.690   1.170 -0.8057 -0.3290 -0.2109
  106MOL     H940119   0.278   0.106   1.289 -4.1954 -0.0144  1.9224
  106MOL    H1040120   0.319   0.208   1.151 -1.9362  3.0758  1.1023
  106MOL    H1140121   0.066   0.250   1.115  0.1523  0.9732  0.1329
  106MOL    H1240122   7.748   0.088   1.101 -2.2394 -0.1409  0.4102
  106MOL    H1340123   7.678   7.779   1.354  1.0103  0.2818  0.4816
  106MOL    H1440124   7.517   0.145   1.293  0.8067 -0.1074  1.8170
  106MOL    H1540125   7.459   0.018   1.365 -2.2661 -0.0015 -0.2986
  106MOL    H1640126   7.430   0.019   1.190  1.0355 -0.5401  0.1499
  106MOL    H1740127   7.613   7.702   1.072  0.7865 -0.0468 -0.9134
  106MOL    H1840128   7.762   7.660   1.162 -0.2650  1.6472 -0.9026
  106MOL    H1940129   7.605   7.601   1.205 -0.2846 -0.9712 -1.0488
  106MOL    H2040130   0.225   0.054   1.140 -0.7163  1.1200 -1.8716
  106MOL    C2140131   0.132   0.367   1.279 -0.1707 -0.2235  0.3935
  106MOL    C2240132   0.004   0.456   1.287  0.1402 -0.3386 -0.3179
  106MOL    C2340133   7.783   0.496   1.146 -0.2803  0.3050  0.2037
  106MOL    O2440134   0.021   0.528   1.048 -0.3252  0.4154 -0.7840
  106MOL    N2540135   7.649   0.489   1.132  0.5590 -0.1347  0.3004
  106MOL    C2640136   7.578   0.499   1.003  0.1269 -0.4030  0.4851
  106MOL    C2740137   7.438   0.558   1.017  0.2706  0.1619 -0.5157
  106MOL    C2840138   7.578   0.360   0.928 -0.2780  0.1314 -0.5215
  106MOL    H2940139   0.206   0.420   1.218 -1.6202  0.6347 -0.6804
  106MOL    H3040140   0.162   0.355   1.383  0.2523  3.6178  0.8000
  106MOL    H3140141   7.764   0.390   1.326  1.1211 -1.8618 -0.9317
  106MOL    H3240142   7.600   0.472   1.218  0.2028 -0.4742  0.0337
  106MOL    H3340143   7.634   0.567   0.940 -2.5477  1.4614  0.0356
  106MOL    H3440144   7.380   0.532   0.929 -0.4982  0.1961 -0.0212
  106MOL    H3540145   7.447   0.666   1.024  0.8148  0.0151  1.7598
  106MOL    H3640146   7.385   0.515   1.102  0.9741  0.6195  0.1583
  106MOL    H3740147   7.543   0.365   0.826 -0.0066  1.0520 -0.5678
  106MOL    H3840148   7.679   0.318   0.934 -0.0083  0.8131 -0.2363
  106MOL    H3940149   7.513   0.281   0.966 -0.6721  0.1036 -1.2514
  106MOL    C4040150   0.024   0.591   1.366  0.2116  0.1466  0.1264
  106MOL    C4140151   0.030   0.588   1.520 -0.0358  0.2739 -0.4123
  106MOL    C4240152   7.774   0.484   1.572 -0.0167  0.4329 -0.5199
  106MOL    O4340153   7.664   0.457   1.527  0.5281 -0.0492  0.1451
  106MOL    N4440154   7.822   0.403   1.666 -0.9429  0.2399  0.2110
  106MOL    C4540155   7.780   0.275   1.716 -0.8182 -0.0694  0.2695
  106MOL    C4640156   0.055   0.202   1.805 -0.2293 -0.2830 -0.2043
  106MOL    C4740157   7.653   0.289   1.796 -0.3415 -0.5762  0.1495
  106MOL    H4840158   7.773   0.652   1.344  1.8023  1.7671 -2.0052
  106MOL    H4940159   0.111   0.653   1.342 -0.2125  0.5035 -0.5097
  106MOL    H5040160   0.130   0.546   1.535  1.1093  3.3378  1.0171
  106MOL    H5140161   0.073   0.438   1.703 -1.8365 -0.7781  3.4571
  106MOL    H5240162   7.779   0.220   1.622  0.9909 -2.4671  1.5833
  106MOL    H5340163   0.147   0.179   1.751  0.8253  0.6941  1.1634
  106MOL    H5440164   0.004   0.107   1.823 -0.7018 -0.7329 -3.5236
  106MOL    H5540165   0.087   0.260   1.891 -1.4904  1.5417 -0.9388
  106MOL    H5640166   7.633   0.197   1.850 -0.7288 -0.4076  0.2981
  106MOL    H5740167   7.572   0.324   1.733 -0.0775 -0.2883 -0.0318
  106MOL    H5840168   7.663   0.364   1.875 -2.6083  1.7350 -1.6483
  106MOL    C5940169   0.006   0.720   1.592  0.1962  0.1704 -0.3109
  106MOL    C6040170   0.039   0.723   1.748  0.5408  0.0881 -0.1843
  106MOL    C6140171   7.777   0.810   1.825 -0.2661 -0.3127  0.1618
  106MOL    O6240172   7.754   0.922   1.792 -0.4890  0.4376 -0.2186
  106MOL    N6340173   7.721   0.745   1.926 -0.5412  0.7192  0.3945
  106MOL    C6440174   7.606   0.798   2.005 -0.4434  0.0798  0.3092
  106MOL    C6540175   7.484   0.713   2.004  0.2146  0.1959  0.0954
  106MOL    C6640176   7.649   0.837   2.144 -0.4032 -0.4389 -0.0792
  106MOL    H6740177   0.069   0.799   1.550  0.2527  1.3842  1.9669
  106MOL    H6840178   7.742   0.751   1.562 -0.0505 -1.7158 -1.5472
  106MOL    H6940179   0.034   0.625   1.794 -0.0554  0.6082  0.8820
  106MOL    H7040180   7.747   0.651   1.952 -1.9247  0.0478 -0.6545
  106MOL    H7140181   7.574   0.891   1.958  1.9001  1.4739  1.3732
  106MOL    H7240182   7.442   0.703   1.903 -0.1761 -0.5262  0.3299
  106MOL    H7340183   7.497   0.617   2.052  1.1029  0.0829 -0.3661
  106MOL    H7440184   7.407   0.773   2.052  0.0278  1.7777 -2.0896
  106MOL    H7540185   7.701   0.754   2.191 -0.9199 -0.1418  1.0602
  106MOL    H7640186   7.728   0.911   2.132  0.7263 -1.4854  0.8047
  106MOL    H7740187   7.561   0.874   2.198  0.9461  0.3815  1.6175
  106MOL    C7840188   0.183   0.759   1.783 -0.3334 -0.0324  0.6382
  106MOL    C7940189   0.242   0.738   1.931 -0.1716 -0.3389  0.4484
  106MOL    C8040190   0.239   0.592   1.984  0.2639  0.1127  0.2997
  106MOL    O8140191   0.196   0.507   1.909 -0.3806 -0.5141 -0.0887
  106MOL    N8240192   0.275   0.566   2.108 -0.1364  0.9255 -0.3932
  106MOL    C8340193   0.251   0.447   2.191  0.0157 -0.3555 -0.3042
  106MOL    C8440194   0.383   0.410   2.260 -0.3351 -0.4573  0.2093
  106MOL    C8540195   0.140   0.457   2.298 -0.2759  0.6282 -0.5579
  106MOL    H8640196   0.199   0.864   1.758 -0.0740 -0.3897 -0.7035
  106MOL    H8740197   0.250   0.709   1.713  0.6408  1.0932  0.7497
  106MOL    H8840198   0.175   0.790   2.001 -1.4435 -3.4074  1.6162
  106MOL    H8940199   0.314   0.645   2.157 -0.1313  0.8638 -0.2959
  106MOL    H9040200   0.220   0.365   2.127  2.3811  0.6341 -2.7941
  106MOL    H9140201   0.389   0.329   2.333  1.7351 -0.1247  0.4289
  106MOL    H9240202   0.474   0.411   2.200 -1.2056 -3.5118 -1.3031
  106MOL    H9340203   0.398   0.485   2.337 -0.8273  0.7379 -0.8452
  106MOL    H9440204   0.047   0.495   2.257 -0.6389 -0.5289 -0.8290
  106MOL    H9540205   0.175   0.520   2.379  0.0614  0.9800 -0.9783
  106MOL    H9640206   0.108   0.363   2.344 -1.3068  0.3797 -1.7661
  106MOL    C9740207   0.382   0.800   1.943 -0.6411 -0.6022 -0.1365
  106MOL    C9840208   0.403   0.915   2.034 -0.1648 -0.2577 -0.6814
  106MOL    C9940209   0.421   0.874   2.181 -0.5508 -0.5249  0.0332
  106MOL   O10040210   0.323   0.815   2.234  0.5107  0.7244  0.1426
  106MOL   N10140211   0.535   0.909   2.246  0.8622  0.2132 -0.5889
  106MOL   C10240212   0.581   0.850   2.367  0.5710 -0.0885  0.7090
  106MOL   C10340213   0.734   0.880   2.378  0.0298  0.1187  0.2751
  106MOL   C10440214   0.503   0.894   2.493 -1.0302  0.4435  0.3667
  106MOL   H10540215   0.423   0.833   1.847 -0.1394 -2.7207 -0.6621
  106MOL   H10640216   0.458   0.723   1.952  0.7276  0.9264  1.6604
  106MOL   H10740217   0.503   0.948   2.006 -1.4782  3.8381 -0.8857
  106MOL   H10840218   0.605   0.973   2.211  1.1621  0.6424  0.7368
  106MOL   H10940219   0.571   0.742   2.366 -1.3359  0.0265  2.6845
  106MOL   H11040220   0.791   0.828   2.301  0.1564  0.1878  0.3240
  106MOL   H11140221   0.752   0.987   2.386  2.7896 -0.3207  0.4369
  106MOL   H11240222   0.770   0.847   2.475  0.0846  0.1512  0.2650
  106MOL   H11340223   0.414   0.834   2.512 -0.9340  0.5638  1.2140
  106MOL   H11440224   0.483   1.001   2.490  0.7956  0.7675 -0.4138
  106MOL   H11540225   0.573   0.880   2.575 -1.3010  0.8338  0.6684
  106MOL   C11640226   0.300   1.032   2.010  0.3712 -0.2284 -0.1018
  106MOL   C11740227   0.333   1.180   2.042 -0.2054  0.6690 -0.2904
  106MOL   C11840228   0.464   1.228   1.993  0.0002 -0.7120  0.0541
  106MOL   O11940229   0.567   1.201   2.058 -0.0140  0.1323  0.0934
  106MOL   N12040230   0.467   1.307   1.883  0.1101 -0.1810 -0.2667
  106MOL   C12140231   0.574   1.393   1.839 -0.5897  0.4664 -0.3745
  106MOL   C12240232   0.581   1.377   1.688 -0.5425 -0.1271 -0.2416
  106MOL   C12340233   0.559   1.531   1.883  0.1299  0.6854  0.1407
  106MOL   H12440234   0.215   1.006   2.073 -2.5739 -1.9372 -4.4914
  106MOL   H12540235   0.254   1.021   1.912  0.1388 -1.8857  0.1835
  106MOL   H12640236   0.254   1.236   1.993 -2.6473 -1.7128  0.8470
  106MOL   H12740237   0.377   1.307   1.838 -0.0294  1.6744 -0.0507
  106MOL   H12840238   0.661   1.350   1.889 -1.7627 -2.2448 -0.5512
  106MOL   H12940239   0.675   1.425   1.661  0.1065 -0.5131  1.2371
  106MOL   H13040240   0.486   1.397   1.639 -1.0579  0.6800  1.0689
  106MOL   H13140241   0.605   1.274   1.661 -1.7524 -0.6689  0.6793
  106MOL   H13240242   0.571   1.542   1.991 -0.1816  3.4215 -0.0743
  106MOL   H13340243   0.626   1.603   1.837 -1.7240  0.6261 -2.7357
  106MOL   H13440244   0.458   1.565   1.860 -0.3492  0.1177  1.3276
  106MOL   C13540245   0.318   1.220   2.194 -0.5680  0.8093 -0.2247
  106MOL   C13640246   0.317   1.368   2.232 -0.3892  0.6605  0.1895
  106MOL   C13740247   0.203   1.446   2.165  0.4565 -0.4286 -0.0061
  106MOL   O13840248   0.087   1.405   2.186 -0.0450 -0.1028 -0.2521
  106MOL   N13940249   0.239   1.553   2.090  0.2846  0.1283 -0.6618
  106MOL   C14040250   0.141   1.640   2.031  0.1176  0.2561  0.5763
  106MOL   C14140251   0.184   1.664   1.887 -1.1312 -0.4014  0.1683
  106MOL   C14240252   0.125   1.773   2.111 -0.1811 -0.3408 -0.7362
  106MOL   H14340253   0.401   1.170   2.244 -1.0531  0.3042  0.0752
  106MOL   H14440254   0.229   1.169   2.229  1.0337 -0.6306  1.9098
  106MOL   H14540255   0.410   1.412   2.195  0.5072 -0.5474  0.9760
  106MOL   H14640256   0.333   1.586   2.108  0.3398  0.6138 -1.7749
  106MOL   H14740257   0.044   1.593   2.040  0.5731 -0.5572  1.3345
  106MOL   H14840258   0.254   1.747   1.873 -1.3992  0.0950  1.6518
  106MOL   H14940259   0.224   1.575   1.838  0.4968  0.6622 -0.4848
  106MOL   H15040260   0.091   1.694   1.838  0.7306 -0.1544 -3.4074
  106MOL   H15140261   0.213   1.837   2.111 -0.1164 -0.4048 -2.0367
  106MOL   H15240262   0.114   1.751   2.217 -1.3646 -0.8708 -0.9604
  106MOL   H15340263   0.037   1.832   2.085  0.4858  0.6402 -0.8126
  106MOL   C15440264   0.305   1.375   2.391 -0.0368 -0.5390  0.2758
  106MOL   C15540265   0.395   1.485   2.455  0.6478  0.1482  0.5064
  106MOL   C15640266   0.471   1.449   2.589  0.1822  0.7329 -0.0031
  106MOL   O15740267   0.565   1.513   2.621  0.1401 -0.4146  0.2368
  106MOL   N15840268   0.442   1.333   2.653  0.9433 -0.7345 -0.0636
  106MOL   C15940269   0.511   1.281   2.770  0.2489 -0.5051  0.5632
  106MOL   C16040270   0.556   1.144   2.729 -0.2080  0.2291  0.1890
  106MOL   C16140271   0.425   1.280   2.896 -0.3128 -0.2256  0.0212
  106MOL   H16240272   0.335   1.279   2.431  0.1577 -0.4586  0.3248
  106MOL   H16340273   0.204   1.389   2.430  0.4517  2.4471  0.5930
  106MOL   H16440274   0.481   1.477   2.388  0.0267 -0.3194 -0.2468
  106MOL   H16540275   0.364   1.275   2.624  0.1090  1.2871 -2.0655
  106MOL   H16640276   0.605   1.337   2.779  1.1205 -2.0845  1.4260
  106MOL   H16740277   0.630   1.108   2.800  1.9208  2.6976 -0.6710
  106MOL   H16840278   0.469   1.079   2.717  1.2578 -1.4490 -1.5654
  106MOL   H16940279   0.600   1.132   2.630 -0.9973 -0.7056 -0.0647
  106MOL   H17040280   0.327   1.236   2.878 -1.9083  2.1103  2.5801
  106MOL   H17140281   0.402   1.377   2.940 -1.3777 -0.2527 -0.4447
  106MOL   H17240282   0.466   1.212   2.970 -3.3644 -3.0550 -0.7703
  106MOL   C17340283   0.346   1.627   2.437  0.0343  0.2867 -0.3787
  106MOL   C17440284   0.443   1.738   2.406  0.2276 -0.6569  0.7668
  106MOL   C17540285   0.527   1.711   2.283 -0.3215  0.6887  0.2918
  106MOL   O17640286   0.478   1.704   2.174 -0.1066  0.2864 -0.0208
  106MOL   N17740287   0.658   1.696   2.312 -0.5028  0.4967  0.0262
  106MOL   C17840288   0.760   1.671   2.212 -0.2768  0.2643  0.1641
  106MOL   C17940289   0.795   1.526   2.207  0.2290  0.1296  0.3615
  106MOL   C18040290   0.893   1.752   2.228  0.5068  0.1435  1.0642
  106MOL   H18140291   0.289   1.656   2.525 -0.1876  0.4706 -0.5806
  106MOL   H18240292   0.279   1.630   2.351 -2.1810 -0.3872  1.2766
  106MOL   H18340293   0.501   1.742   2.498 -2.1280 -2.2465  2.3997
  106MOL   H18440294   0.687   1.682   2.408  0.3674  1.4800 -0.0877
  106MOL   H18540295   0.726   1.686   2.110  1.1173  1.3494 -0.1524
  106MOL   H18640296   0.831   1.484   2.301 -0.2523 -2.0678 -0.4228
  106MOL   H18740297   0.879   1.513   2.138 -0.8392  0.6113 -1.0480
  106MOL   H18840298   0.712   1.468   2.168  0.7541  1.9653 -3.7383
  106MOL   H18940299   0.929   1.718   2.325 -1.2824 -0.4753  1.5519
  106MOL   H19040300   0.874   1.858   2.241 -1.8745 -0.0998 -0.1008
  106MOL   H19140301   0.968   1.750   2.149 -0.4993 -0.6050  0.0878
  106MOL   C19240302   0.372   1.873   2.399  0.5182 -0.8793  0.4369
  106MOL   C19340303   0.469   1.997   2.391 -0.1197 -1.3038  0.0246
  106MOL   C19440304   0.530   2.030   2.523 -0.2110  0.8916 -0.9719
  106MOL   O19540305   0.467   2.023   2.632 -0.0009 -0.0187 -0.1296
  106MOL   N19640306   0.656   2.074   2.521  0.0649 -0.0647  0.2906
  106MOL   C19740307   0.718   2.145   2.631  0.2333 -0.2857  0.5677
  106MOL   C19840308   0.868   2.108   2.633 -0.3280  0.2682  0.2975
  106MOL   C19940309   0.688   2.295   2.626  0.1601  0.0089  1.0333
  106MOL   H20040310   0.311   1.877   2.489  1.8020  0.9318  1.2360
  106MOL   H20140311   0.301   1.866   2.316 -1.2563  0.7150  1.7991
  106MOL   H20240312   0.556   1.981   2.328  1.9615  4.6158  1.0701
  106MOL   H20340313   0.708   2.081   2.435  0.2356  0.7265  0.4556
  106MOL   H20440314   0.673   2.118   2.726 -0.5171 -0.4869  0.1613
  106MOL   H20540315   0.923   2.133   2.542 -1.5150  0.0731 -0.4826
  106MOL   H20640316   0.876   2.002   2.655 -2.2698 -0.0389 -0.4076
  106MOL   H20740317   0.909   2.144   2.728 -0.3752  0.4527  0.2489
  106MOL   H20840318   0.736   2.343   2.711  0.6705  0.7708  0.3190
  106MOL   H20940319   0.583   2.325   2.632  0.6435  2.1963 -0.8220
  106MOL   H21040320   0.735   2.344   2.541 -1.7869 -0.9412 -0.6320
  106MOL   C21140321   0.408   2.127   2.325  0.0312 -0.0848 -0.2501
  106MOL   C21240322   0.293   2.201   2.399  0.1953 -0.0766 -0.3102
  106MOL   C21340323   0.319   2.351   2.388 -0.3292  0.2614  0.1091
  106MOL   O21440324   0.346   2.401   2.278  0.2936 -0.4148 -0.4826
  106MOL   N21540325   0.316   2.430   2.495 -0.3261 -0.2694 -0.3572
  106MOL   C21640326   0.353   2.568   2.507 -0.5502  0.1344  0.0625
  106MOL   C21740327   0.462   2.585   2.608 -0.7197 -0.3507  0.8132
  106MOL   C21840328   0.224   2.649   2.551 -0.0431  0.1204 -0.2059
  106MOL   H21940329   0.376   2.110   2.222 -0.6502  0.0028 -0.0551
  106MOL   H22040330   0.495   2.190   2.311 -0.7582  1.1431  0.3819
  106MOL   H22140331   0.325   2.177   2.500 -1.3038 -2.1633 -0.2812
  106MOL   H22240332   0.275   2.387   2.577  2.1437  1.2479  1.7165
  106MOL   H22340333   0.395   2.611   2.416  0.1574  1.4490  0.9957
  106MOL   H22440334   0.559   2.553   2.571 -1.8204 -0.8407 -1.7708
  106MOL   H22540335   0.462   2.684   2.655  2.5082  0.8714 -1.5378
  106MOL   H22640336   0.443   2.533   2.701  2.0078  0.2331  1.7423
  106MOL   H22740337   0.164   2.607   2.632 -0.6677  0.4361 -0.4996
  106MOL   H22840338   0.142   2.658   2.479 -2.8432  0.9983  2.9698
  106MOL   H22940339   0.259   2.747   2.583  4.1960 -1.4419  0.2514
  106MOL   C23040340   0.154   2.135   2.381 -0.3245  0.0543 -0.1581
  106MOL   C23140341   0.100   2.095   2.525  0.4923  0.7529  0.3176
  106MOL   C23240342   0.051   2.205   2.604 -0.6363 -0.8915 -0.4491
  106MOL   O23340343   7.818   2.297   2.553  0.2167  0.0951 -0.4425
  106MOL   N23440344   0.105   2.208   2.722 -0.4996  0.0804  0.0658
  106MOL   C23540345   0.087   2.311   2.827  0.2597 -0.1044  0.0417
  106MOL   C23640346   7.801   2.296   2.924  0.2052  0.0907  0.2286
  106MOL   C23740347   0.222   2.313   2.901  0.0647  0.3432  0.2321
  106MOL   H23840348   0.154   2.038   2.332 -3.0539 -0.7773  1.3410
  106MOL   H23940349   0.088   2.203   2.327 -0.6219  0.7197  1.0104
  106MOL   H24040350   0.183   2.049   2.579 -0.6645 -1.9537 -0.0805
  106MOL   H24140351   0.157   2.123   2.739 -1.2589 -0.3047  0.4971
  106MOL   H24240352   0.078   2.412   2.786  0.8536  0.2571  0.7789
  106MOL   H24340353   7.827   2.235   3.011 -0.2011 -0.5259 -0.0805
  106MOL   H24440354   7.781   2.394   2.967 -0.4066 -0.0028  0.1603
  106MOL   H24540355   7.716   2.255   2.870  0.6417 -1.6464  0.8194
  106MOL   H24640356   0.241   2.219   2.953 -1.7247 -1.0697 -1.5805
  106MOL   H24740357   0.243   2.391   2.974  3.7891  0.0773 -0.4780
  106MOL   H24840358   0.304   2.319   2.830  0.0547  2.7204  0.3662
  106MOL   C24940359   7.825   1.989   2.516 -0.5105  0.1235  0.0739
  106MOL   C25040360   7.770   1.920   2.640  0.0949  0.0434  0.7403
  106MOL   C25140361   0.041   1.864   2.733  0.2150 -0.4682  0.2511
  106MOL   O25240362   0.106   1.763   2.696  0.7861 -0.1808  0.3968
  106MOL   N25340363   0.061   1.923   2.846 -0.1515  0.0758 -0.1671
  106MOL   C25440364   0.161   1.876   2.945  0.2332 -0.7836  0.0142
  106MOL   C25540365   0.305   1.911   2.892  0.1396 -0.0567 -0.2344
  106MOL   C25640366   0.137   1.941   3.077 -0.2416 -0.2871 -0.4124
  106MOL   H25740367   0.021   1.907   2.451 -2.5184 -0.9134  0.3534
  106MOL   H25840368   7.747   2.022   2.447 -0.4130  0.5015  0.1428
  106MOL   H25940369   7.708   1.987   2.700 -1.9938 -1.1256 -0.0733
  106MOL   H26040370   7.833   1.991   2.886 -1.2549 -0.5870 -0.7844
  106MOL   H26140371   0.149   1.770   2.962 -0.8438 -0.7175 -0.3220
  106MOL   H26240372   0.317   1.864   2.795  0.8305  0.5881 -0.4635
  106MOL   H26340373   0.320   2.018   2.905  0.0814 -0.1823  0.9343
  106MOL   H26440374   0.373   1.854   2.956  0.5224  0.1880 -0.4256
  106MOL   H26540375   0.136   2.050   3.069 -2.2572 -0.3303 -1.0687
  106MOL   H26640376   0.045   1.914   3.129 -0.9821  1.9153 -0.5287
  106MOL   H26740377   0.223   1.926   3.142  0.0771  1.2283 -0.4626
  106MOL   C26840378   7.658   1.806   2.612 -0.2764  0.1084  0.1935
  106MOL   C26940379   7.531   1.800   2.704 -0.1919  0.2973 -0.0909
  106MOL   C27040380   7.526   1.875   2.841 -0.6578 -0.4785  0.5321
  106MOL   O27140381   7.512   1.994   2.845 -0.2436 -0.0056  0.3288
  106MOL   N27240382   7.543   1.806   2.955 -0.3754 -0.5195 -0.4321
  106MOL   C27340383   7.526   1.860   3.094 -0.4359  0.3374  0.0103
  106MOL   C27440384   7.380   1.906   3.121  0.1678 -0.0301 -0.2666
  106MOL   C27540385   7.560   1.758   3.203  0.0361 -0.0270  0.3504
  106MOL   H27640386   7.620   1.819   2.511 -0.0821  2.0087  0.3525
  106MOL   H27740387   7.701   1.706   2.609 -2.7079 -0.9694  0.2038
  106MOL   H27840388   7.527   1.697   2.738  2.9321 -0.0972 -0.8093
  106MOL   H27940389   7.557   1.708   2.940 -0.2898 -0.9806  2.4809
  106MOL   H28040390   7.597   1.942   3.108 -0.4840  0.1813  1.1990
  106MOL   H28140391   7.301   1.832   3.116  0.2386 -0.1179 -0.0676
  106MOL   H28240392   7.383   1.939   3.225 -3.5026  0.2507 -0.2050
  106MOL   H28340393   7.359   1.992   3.057  1.3208 -0.6573 -1.5226
  106MOL   H28440394   7.623   1.792   3.286  0.0292 -1.6166  1.0197
  106MOL   H28540395   7.473   1.707   3.244 -1.5784  1.4823 -1.1233
  106MOL   H28640396   7.614   1.673   3.161 -1.9003 -0.3209 -1.6321
  106MOL   C28740397   7.404   1.820   2.627 -0.3537  0.4840  0.6339
  106MOL   C28840398   7.270   1.802   2.701  0.1483  0.5038 -0.0014
  106MOL   C28940399   7.258   1.660   2.762  0.2324 -0.6004  0.4931
  106MOL   O29040400   7.288   1.566   2.684 -0.0233 -0.6094  0.3725
  106MOL   N29140401   7.232   1.645   2.894 -0.1597  0.0687  0.2761
  106MOL   C29240402   7.219   1.517   2.960  0.7843  0.2649  0.8449
  106MOL   C29340403   7.255   1.534   3.109 -0.2605 -0.4540  0.1238
  106MOL   C29440404   7.076   1.467   2.947  0.5394 -0.3661 -0.3235
  106MOL   H29540405   7.417   1.922   2.590 -4.3403  0.2691 -1.6577
  106MOL   H29640406   7.417   1.750   2.544 -0.8893  1.0261  0.0824
  106MOL   H29740407   7.281   1.866   2.788  1.4342  1.8391 -1.1390
  106MOL   H29840408   7.207   1.728   2.946  0.2406  0.5954 -0.3659
  106MOL   H29940409   7.295   1.445   2.929  0.6578  0.2889  0.4767
  106MOL   H30040410   7.358   1.565   3.127  0.5010 -1.6026 -2.0001
  106MOL   H30140411   7.186   1.600   3.162  1.1299  3.2248 -2.4270
  106MOL   H30240412   7.268   1.445   3.170  2.8432  0.7567  1.3065
  106MOL   H30340413   7.029   1.436   2.853 -0.2793 -1.4844  0.4452
  106MOL   H30440414   7.080   1.377   3.009  2.4850 -0.8464 -1.1111
  106MOL   H30540415   7.005   1.534   2.996 -0.7097 -1.3192 -0.7945
  106MOL   C30640416   7.159   1.836   2.600  0.6559 -0.4080  0.7242
  106MOL   C30740417   7.013   1.852   2.652  0.8894 -0.2864 -0.6783
  106MOL   C30840418   7.000   1.939   2.777 -0.3813  0.4998 -0.7892
  106MOL   O30940419   6.999   1.880   2.884 -0.3284 -0.2735  0.5985
  106MOL   N31040420   7.018   2.071   2.760 -0.3945  0.5128 -0.0380
  106MOL   C31140421   7.046   2.171   2.859  0.5432 -0.4743 -0.7968
  106MOL   C31240422   7.192   2.203   2.877  0.1580  0.0661  0.2282
  106MOL   C31340423   6.955   2.301   2.823 -0.5192  0.1839 -0.3329
  106MOL   H31440424   7.180   1.930   2.549 -1.1064 -0.0223  0.6579
  106MOL   H31540425   7.166   1.757   2.526 -0.6333  0.0213  0.1256
  106MOL   H31640426   6.969   1.915   2.574  2.8690  2.3461  0.2463
  106MOL   H31740427   7.038   2.098   2.665  1.5630  0.8011  0.4343
  106MOL   H31840428   7.016   2.129   2.954 -2.5648  0.3323 -1.3608
  106MOL   H31940429   7.222   2.203   2.982  1.6237 -0.6458 -0.1757
  106MOL   H32040430   7.218   2.287   2.813  0.9978 -0.0591  0.4008
  106MOL   H32140431   7.248   2.119   2.835 -2.5038 -1.6885  0.0254
  106MOL   H32240432   7.003   2.390   2.866  1.2570 -1.5953  1.4958
  106MOL   H32340433   6.852   2.292   2.859 -1.2680  1.2852 -2.1510
  106MOL   H32440434   6.950   2.316   2.716  1.8179 -0.2778 -0.5370
  106MOL   C32540435   6.929   1.720   2.641 -0.3341 -0.2727 -0.4842
  106MOL   C32640436   6.779   1.747   2.656 -0.5438 -0.1284 -0.2280
  106MOL   C32740437   6.719   1.768   2.517 -0.0255 -0.3523  0.1927
  106MOL   O32840438   6.725   1.692   2.421  0.1571 -0.0667 -0.3850
  106MOL   N32940439   6.646   1.880   2.511  0.0305 -0.7172 -0.1734
  106MOL   C33040440   6.586   1.931   2.385 -0.1926 -0.0472  0.5983
  106MOL   C33140441   6.693   1.979   2.286 -0.3817 -0.0312 -0.8467
  106MOL   C33240442   6.498   2.059   2.412 -0.9826  1.1174 -0.2401
  106MOL   H33340443   6.961   1.646   2.714  2.9852  1.1094 -0.4831
  106MOL   H33440444   6.954   1.681   2.543  0.9501 -1.5505  0.3353
  106MOL   H33540445   6.768   1.847   2.697 -3.4649  0.4245 -2.2022
  106MOL   H33640446   6.615   1.927   2.595  0.4364 -0.3590 -0.2262
  106MOL   H33740447   6.523   1.857   2.336  0.7267 -1.2456  1.1700
  106MOL   H33840448   6.757   1.896   2.256  0.5441 -1.4392  4.4975
  106MOL   H33940449   6.647   2.026   2.199 -1.6556 -0.5581 -0.4792
  106MOL   H34040450   6.757   2.051   2.337 -0.9101 -0.6302  0.7186
  106MOL   H34140451   6.553   2.122   2.482  0.5251 -0.3172 -0.1027
  106MOL   H34240452   6.399   2.030   2.448 -1.0901  2.9574  1.0222
  106MOL   H34340453   6.468   2.113   2.323 -0.6098 -1.2779 -1.8542
  106MOL   C34440454   6.712   1.635   2.740  0.1181 -0.3526  1.0575
  106MOL   C34540455   6.709   1.657   2.896  0.5120 -0.2266 -0.4214
  106MOL   C34640456   6.618   1.783   2.912 -0.4601 -0.1271 -0.0429
  106MOL   O34740457   6.508   1.784   2.864  0.1133  0.5131  0.1823
  106MOL   N34840458   6.666   1.886   2.980 -0.0521 -0.2529  0.4731
  106MOL   C34940459   6.599   2.015   3.008 -0.0652  0.2971  0.3172
  106MOL   C35040460   6.679   2.080   3.123 -0.8706 -0.5545  0.2270
  106MOL   C35140461   6.602   2.100   2.872  0.3170 -0.0278  0.5900
  106MOL   H35240462   6.760   1.542   2.709 -1.5967 -2.0338  3.2920
  106MOL   H35340463   6.608   1.618   2.710  0.4784 -0.3340 -0.2713
  106MOL   H35440464   6.809   1.672   2.936  0.8565  0.7718 -1.6103
  106MOL   H35540465   6.767   1.887   2.981  0.0095 -2.4725 -1.1382
  106MOL   H35640466   6.494   2.002   3.036  0.2808 -0.1102  1.4577
  106MOL   H35740467   6.687   2.012   3.208  2.1253 -0.7019 -0.1384
  106MOL   H35840468   6.781   2.095   3.091 -0.0086 -3.4651  1.4642
  106MOL   H35940469   6.636   2.170   3.168  0.1588  0.4627 -0.8380
  106MOL   H36040470   6.709   2.118   2.859 -0.3443  3.9305  0.0462
  106MOL   H36140471   6.571   2.050   2.780  1.5027 -0.2880  0.3147
  106MOL   H36240472   6.551   2.197   2.870  0.6029  0.1151 -0.3797
  106MOL   C36340473   6.655   1.531   2.970  0.4593 -0.6206 -0.5183
  106MOL   C36440474   6.660   1.555   3.127 -0.3213 -0.4374  0.8065
  106MOL   C36540475   6.598   1.437   3.189  0.6632 -0.1488  0.5432
  106MOL   O36640476   6.668   1.337   3.206  0.1485 -0.3312 -0.1145
  106MOL   N36740477   6.469   1.451   3.216  0.2238 -0.1458 -0.1583
  106MOL   C36840478   6.384   1.343   3.263 -0.0198 -0.9270  0.6069
  106MOL   C36940479   6.249   1.398   3.336  0.3462 -0.5635 -0.4643
  106MOL   C37040480   6.367   1.247   3.144  0.3608  0.0343 -0.6928
  106MOL   H37140481   6.712   1.440   2.952  1.4487 -0.1326  0.1208
  106MOL   H37240482   6.560   1.499   2.927 -0.0003 -0.5652  0.4463
  106MOL   H37340483   6.592   1.636   3.154  0.8467  0.7240  0.3412
  106MOL   H37440484   6.420   1.539   3.212 -0.5871 -0.5580  0.8190
  106MOL   H37540485   6.443   1.298   3.343 -1.6439  0.1877  2.4821
  106MOL   H37640486   6.273   1.463   3.420  2.0412 -0.9095 -0.6645
  106MOL   H37740487   6.183   1.444   3.263  0.6521 -1.5593 -1.3801
  106MOL   H37840488   6.193   1.310   3.367  0.4266 -0.4179  0.0890
  106MOL   H37940489   6.463   1.201   3.120  0.8692  1.1333 -0.7777
  106MOL   H38040490   6.298   1.167   3.170 -2.2911  1.8989 -1.8723
  106MOL   H38140491   6.340   1.307   3.058  0.5634  1.3053  0.1239
  106MOL   H38240492   6.762   1.567   3.165  0.4924  0.7963 -1.6631
  107MOL     C140493   4.607   2.088   0.853  0.3531 -0.3276 -0.7347
  107MOL     C240494   4.685   1.947   0.844  0.0033  0.0010 -0.1904
  107MOL     C340495   4.595   1.832   0.890  0.3641  0.6078  0.2266
  107MOL     O440496   4.563   1.751   0.806  0.2162  0.8502  0.4968
  107MOL     N540497   4.561   1.813   1.021 -0.1767  0.2982  0.3609
  107MOL     C640498   4.456   1.722   1.059 -0.4709  0.4563  0.4967
  107MOL     C740499   4.477   1.646   1.191  0.2418 -0.7012  0.4061
  107MOL     C840500   4.335   1.809   1.088  1.0058  0.1772  0.6166
  107MOL     H940501   4.639   2.152   0.771 -0.9555 -0.7602 -1.5830
  107MOL    H1040502   4.620   2.146   0.945  1.4187 -2.9973  0.8585
  107MOL    H1140503   4.769   1.964   0.912  0.1628  0.9474 -0.6200
  107MOL    H1240504   4.587   1.884   1.088  2.5749  1.0900 -1.4846
  107MOL    H1340505   4.420   1.659   0.977  1.6025 -2.9351  2.1074
  107MOL    H1440506   4.475   1.708   1.280  1.6723  0.4749 -0.3581
  107MOL    H1540507   4.576   1.602   1.201  1.2536  1.2332 -0.8016
  107MOL    H1640508   4.409   1.565   1.214 -2.6701  0.7728 -2.5869
  107MOL    H1740509   4.337   1.866   1.180  2.5962 -0.2382  0.8482
  107MOL    H1840510   4.307   1.878   1.008  0.3084 -2.5033 -1.5330
  107MOL    H1940511   4.249   1.743   1.090  0.8293  0.2867 -1.6401
  107MOL    H2040512   4.499   2.077   0.848  0.1150  0.9473  1.1131
  107MOL    C2140513   4.744   1.931   0.704  0.1867  0.7696  0.5893
  107MOL    C2240514   4.857   1.822   0.687 -0.2467  0.1355  0.4032
  107MOL    C2340515   5.003   1.872   0.726  0.3621  0.2221  0.2526
  107MOL    O2440516   5.016   1.973   0.791  0.3641 -0.1630 -0.2298
  107MOL    N2540517   5.109   1.793   0.696  0.0313  0.7391 -0.3410
  107MOL    C2640518   5.250   1.822   0.727 -0.1941  0.4915  0.0896
  107MOL    C2740519   5.316   1.902   0.619  0.9775 -0.2000  0.3192
  107MOL    C2840520   5.317   1.691   0.755  0.1288  0.3658 -0.3225
  107MOL    H2940521   4.779   2.029   0.673  0.1942  0.4219 -0.5139
  107MOL    H3040522   4.656   1.905   0.644 -0.0265  0.8418  0.8681
  107MOL    H3140523   4.829   1.746   0.760  3.2992 -2.1813 -0.5138
  107MOL    H3240524   5.092   1.712   0.638  3.0522 -1.0263  1.1569
  107MOL    H3340525   5.248   1.878   0.820  0.8102  0.9161 -0.1300
  107MOL    H3440526   5.422   1.922   0.634  0.6229 -0.7660  3.9610
  107MOL    H3540527   5.256   1.991   0.601  1.2352 -0.4883 -2.0834
  107MOL    H3640528   5.311   1.851   0.522  1.9339  2.2002 -1.0367
  107MOL    H3740529   5.266   1.631   0.830  0.9075  0.1093  0.0071
  107MOL    H3840530   5.322   1.629   0.665 -0.7585  1.6414 -1.2757
  107MOL    H3940531   5.424   1.700   0.772  0.0911 -1.4395  0.9820
  107MOL    C4040532   4.854   1.756   0.548 -0.1976  0.7447 -0.2684
  107MOL    C4140533   4.749   1.642   0.524 -1.0645 -0.3480  0.3249
  107MOL    C4240534   4.775   1.516   0.611  0.1845 -0.3050  0.7155
  107MOL    O4340535   4.875   1.455   0.594  0.5700 -0.1859  0.7391
  107MOL    N4440536   4.683   1.491   0.699  0.3448  0.1539 -0.2855
  107MOL    C4540537   4.687   1.376   0.796 -0.0304  0.5715 -0.2539
  107MOL    C4640538   4.604   1.417   0.919 -0.5867  0.2827  0.1754
  107MOL    C4740539   4.636   1.249   0.734  0.2026  0.5447  0.0193
  107MOL    H4840540   4.952   1.712   0.529 -0.7589  0.0750 -1.6790
  107MOL    H4940541   4.843   1.831   0.470  0.1952  0.1166 -0.9335
  107MOL    H5040542   4.649   1.670   0.557 -0.5469  1.4278  0.4577
  107MOL    H5140543   4.604   1.553   0.711  0.9495  0.5746  1.7947
  107MOL    H5240544   4.793   1.370   0.822 -0.7791  1.7506  3.2562
  107MOL    H5340545   4.511   1.462   0.885 -1.6635 -0.3897  2.1353
  107MOL    H5440546   4.651   1.493   0.982  0.2729 -0.7538  0.7969
  107MOL    H5540547   4.583   1.341   0.994 -2.9058  0.5601 -0.1584
  107MOL    H5640548   4.695   1.209   0.651  1.5612 -0.2731  1.3472
  107MOL    H5740549   4.536   1.266   0.695  0.6198 -0.1870 -1.4291
  107MOL    H5840550   4.635   1.174   0.813 -0.1317  0.9954  0.4384
  107MOL    C5940551   4.737   1.605   0.370 -0.9757  0.3259  0.3073
  107MOL    C6040552   4.643   1.696   0.284 -0.3965  0.9601  0.7970
  107MOL    C6140553   4.496   1.697   0.325 -0.4457 -0.1462 -0.2415
  107MOL    O6240554   4.423   1.603   0.312  0.1189 -0.6288  0.2666
  107MOL    N6340555   4.449   1.812   0.379 -0.0333 -0.2476  0.1781
  107MOL    C6440556   4.312   1.846   0.405 -0.2529  0.4019  0.0897
  107MOL    C6540557   4.306   1.900   0.554 -0.0381 -0.5563 -0.0541
  107MOL    C6640558   4.261   1.950   0.308  0.0375  0.4228 -0.9831
  107MOL    H6740559   4.838   1.589   0.332 -2.6346 -3.3401 -2.8567
  107MOL    H6840560   4.698   1.504   0.367 -1.6472  0.6011 -0.6348
  107MOL    H6940561   4.679   1.799   0.281 -2.4396  1.7165  1.2076
  107MOL    H7040562   4.522   1.883   0.379 -1.8667  1.7014  0.7911
  107MOL    H7140563   4.247   1.758   0.413  0.4199 -0.1614 -0.6464
  107MOL    H7240564   4.203   1.917   0.586 -0.1737 -1.0866 -0.1982
  107MOL    H7340565   4.373   1.838   0.613  3.5251  1.9529 -1.3338
  107MOL    H7440566   4.348   2.000   0.555 -2.6559  0.6289 -1.5242
  107MOL    H7540567   4.341   2.020   0.282  0.1740  0.6001 -0.1041
  107MOL    H7640568   4.249   1.904   0.211 -0.2953  0.9253 -1.1799
  107MOL    H7740569   4.175   2.008   0.342 -0.3703 -1.1987  0.8464
  107MOL    C7840570   4.659   1.636   0.140  0.3674 -0.1345 -0.7593
  107MOL    C7940571   4.579   1.706   0.026  0.3729  0.7255 -0.2590
  107MOL    C8040572   4.604   1.854   0.001 -0.0599 -0.7216  0.5465
  107MOL    O8140573   4.717   1.905   0.005  0.3038 -0.2971 -0.1100
  107MOL    N8240574   4.493   1.923   7.800  0.3478 -0.3862 -0.1459
  107MOL    C8340575   4.503   2.062   7.751  0.5429  0.5860  0.5863
  107MOL    C8440576   4.415   2.076   7.627 -0.3023  0.6197 -0.2455
  107MOL    C8540577   4.497   2.171   0.023  0.2782  0.5615  0.3291
  107MOL    H8640578   4.624   1.533   0.140 -3.4330  1.0903 -2.1632
  107MOL    H8740579   4.767   1.634   0.121  0.8423 -0.7657  1.8415
  107MOL    H8840580   4.475   1.699   0.059  0.5977  1.8305  0.7332
  107MOL    H8940581   4.407   1.871   7.800  1.4358 -2.2535 -0.1566
  107MOL    H9040582   4.600   2.074   7.702 -0.1786 -1.7901 -1.5498
  107MOL    H9140583   4.421   2.175   7.582  1.6748  0.4386 -0.4488
  107MOL    H9240584   4.429   2.006   7.544 -1.3552 -0.2594  0.3058
  107MOL    H9340585   4.313   2.048   7.653  0.5410 -1.1488  1.2618
  107MOL    H9440586   4.393   2.191   0.052  0.1943  0.1654  0.3048
  107MOL    H9540587   4.549   2.258   7.821  0.6055 -0.0643 -0.6650
  107MOL    H9640588   4.562   2.156   0.109  1.6737  1.9364 -0.4675
  107MOL    C9740589   4.581   1.626   7.735 -0.6752  0.8213  0.9547
  107MOL    C9840590   4.451   1.541   7.699  0.5215 -0.4505  0.3824
  107MOL    C9940591   4.325   1.623   7.661 -0.8768  0.7379 -0.0324
  107MOL   O10040592   4.301   1.727   7.719  0.2705 -0.1394 -0.0196
  107MOL   N10140593   4.266   1.584   7.550  0.1032  0.6583 -0.5795
  107MOL   C10240594   4.164   1.661   7.475 -0.1807 -1.1715 -0.5798
  107MOL   C10340595   4.214   1.685   7.335 -0.3818  0.0407  0.1608
  107MOL   C10440596   4.028   1.586   7.476 -0.3231  0.1617 -0.1424
  107MOL   H10540597   4.669   1.561   7.736  0.1499  1.8727 -0.4396
  107MOL   H10640598   4.598   1.689   7.647  1.7954 -0.5864  0.3730
  107MOL   H10740599   4.493   1.486   7.615  1.5824  0.3568  0.3738
  107MOL   H10840600   4.315   1.515   7.496 -0.3948 -0.2602  0.1326
  107MOL   H10940601   4.139   1.754   7.525  0.1141 -0.7746 -1.1656
  107MOL   H11040602   4.245   1.601   7.271  1.3202  0.9662 -0.2772
  107MOL   H11140603   4.149   1.748   7.275  1.5368 -0.8128 -2.9618
  107MOL   H11240604   4.304   1.744   7.350  0.9407 -1.5830 -1.1371
  107MOL   H11340605   4.011   1.551   7.578  0.8679 -2.4927 -0.8259
  107MOL   H11440606   4.032   1.498   7.411  0.0539 -0.1476  0.3013
  107MOL   H11540607   3.945   1.651   7.448 -0.1520  1.0883  1.4489
  107MOL   C11640608   4.421   1.433   7.807  0.2828  0.7035  0.6382
  107MOL   C11740609   4.501   1.304   7.807  0.1118  0.0324  0.7151
  107MOL   C11840610   4.448   1.212   7.692 -0.3161  0.2091  0.2455
  107MOL   O11940611   4.326   1.183   7.680 -0.2992  0.5523  1.0747
  107MOL   N12040612   4.535   1.172   7.605 -0.7397  0.2530  0.6438
  107MOL   C12140613   4.504   1.133   7.468  0.0156 -0.1203 -0.6517
  107MOL   C12240614   4.624   1.169   7.378 -0.2173  0.5362 -0.6861
  107MOL   C12340615   4.460   0.988   7.445  0.2311 -0.2289  0.0949
  107MOL   H12440616   4.318   1.403   7.790  0.0804  1.5043  0.4015
  107MOL   H12540617   4.417   1.478   0.070 -0.7738  0.1066  0.8670
  107MOL   H12640618   4.605   1.325   7.783  0.5573 -2.6870  0.1727
  107MOL   H12740619   4.632   1.195   7.623 -0.6731  0.9695 -0.5816
  107MOL   H12840620   4.421   1.191   7.428  0.7692  1.9051  0.6399
  107MOL   H12940621   4.668   1.266   7.398  0.0333 -0.1011  2.1477
  107MOL   H13040622   4.589   1.137   7.280  0.8320 -2.4179 -0.1498
  107MOL   H13140623   4.704   1.097   7.396 -1.5206 -0.8700 -0.3127
  107MOL   H13240624   4.376   0.951   7.503 -0.5991  4.8249  2.3595
  107MOL   H13340625   4.441   0.982   7.337 -0.8029  3.0535  0.0409
  107MOL   H13440626   4.545   0.919   7.440 -0.8501 -1.5054 -1.3786
  107MOL   C13540627   4.487   1.232   0.110 -0.4226 -0.4440  0.2769
  107MOL   C13640628   4.349   1.197   0.159 -0.7655  0.9189 -0.4646
  107MOL   C13740629   4.321   1.047   0.157 -0.3274 -0.1273 -0.3937
  107MOL   O13840630   4.375   0.980   0.243 -0.1851 -1.0938  0.0625
  107MOL   N13940631   4.237   0.995   0.060 -0.1873 -1.0688  0.2778
  107MOL   C14040632   4.231   0.854   0.026 -0.1534  0.0594 -0.0731
  107MOL   C14140633   4.157   0.835   7.732  0.0775  0.4580 -1.2278
  107MOL   C14240634   4.165   0.765   0.135  0.2319 -0.1407  0.0473
  107MOL   H14340635   4.538   1.300   0.179 -0.1656 -1.3520  0.9950
  107MOL   H14440636   4.562   1.154   0.127  0.5796  0.6079  0.7628
  107MOL   H14540637   4.278   1.236   0.087 -2.1618 -0.5244  0.0863
  107MOL   H14640638   4.200   1.059   7.828 -1.4162 -1.1716  0.8465
  107MOL   H14740639   4.327   0.808   0.005 -0.2988 -0.7134  0.8859
  107MOL   H14840640   4.202   0.901   7.657  0.8268  1.2618 -0.0769
  107MOL   H14940641   4.168   0.731   7.700  3.5050  0.2336  0.4720
  107MOL   H15040642   4.053   0.866   7.744 -0.4033 -0.8302 -1.9581
  107MOL   H15140643   4.066   0.791   0.172 -0.4934 -1.6312 -0.7884
  107MOL   H15240644   4.232   0.770   0.221  0.1851  1.0732  0.0107
  107MOL   H15340645   4.160   0.664   0.093 -0.9100 -0.7914  1.6895
  107MOL   C15440646   4.319   1.246   0.298  0.3288 -0.3108  0.0548
  107MOL   C15540647   4.166   1.265   0.334  0.1974 -0.8774 -0.7720
  107MOL   C15640648   4.090   1.362   0.244 -0.4845  0.5099  0.4999
  107MOL   O15740649   3.977   1.334   0.204 -0.1853  0.1363 -0.2617
  107MOL   N15840650   4.150   1.476   0.218  0.4114  0.0643  0.5345
  107MOL   C15940651   4.102   1.589   0.139 -0.0102  0.3219 -0.0315
  107MOL   C16040652   4.019   1.683   0.223 -0.6743 -0.6817 -0.2896
  107MOL   C16140653   4.033   1.553   0.009 -0.4226  0.6927  0.3278
  107MOL   H16240654   4.366   1.341   0.323  1.6977 -1.0928  0.5125
  107MOL   H16340655   4.378   1.188   0.369 -0.3959  0.1025  1.0049
  107MOL   H16440656   4.115   1.169   0.327 -1.6750  0.1172 -1.0433
  107MOL   H16540657   4.238   1.492   0.264  1.3974  0.2106 -1.3391
  107MOL   H16640658   4.202   1.628   0.122  2.1280 -4.0381  1.7233
  107MOL   H16740659   3.967   1.761   0.169  0.2355  0.2681  0.1957
  107MOL   H16840660   3.936   1.628   0.269 -1.4470 -0.9021 -1.9252
  107MOL   H16940661   4.069   1.708   0.317  0.4477 -1.7666 -0.5792
  107MOL   H17040662   3.927   1.538   0.031 -0.2791 -0.4748  0.2621
  107MOL   H17140663   4.077   1.468   7.793 -1.1791  0.4122  0.1324
  107MOL   H17240664   4.028   1.637   7.777  1.3613 -0.1817 -0.9029
  107MOL   C17340665   4.164   1.306   0.480  0.6962 -0.6165 -0.5474
  107MOL   C17440666   4.027   1.343   0.540 -0.4274  0.1661  0.9450
  107MOL   C17540667   3.942   1.213   0.557 -0.1955  0.0726 -0.3845
  107MOL   O17640668   3.956   1.139   0.651 -0.1143 -0.2085 -0.1857
  107MOL   N17740669   3.860   1.185   0.459 -0.3757 -0.3409 -0.7745
  107MOL   C17840670   3.780   1.064   0.441  0.3015 -0.6161  1.2951
  107MOL   C17940671   3.737   1.058   0.296  0.6660  0.3781 -0.6673
  107MOL   C18040672   3.663   1.058   0.544 -0.3050 -0.8116  0.3489
  107MOL   H18140673   4.210   1.405   0.485  0.7353 -0.6011 -1.1497
  107MOL   H18240674   4.226   1.246   0.547  0.8075 -1.8227 -1.7134
  107MOL   H18340675   3.970   1.410   0.475  0.6968 -1.0147 -1.3010
  107MOL   H18440676   3.863   1.252   0.384 -2.8025  1.4303  0.6207
  107MOL   H18540677   3.849   0.985   0.469  2.8643  1.3113  0.6535
  107MOL   H18640678   3.670   1.141   0.273 -2.0881 -1.3535  0.7972
  107MOL   H18740679   3.681   0.967   0.272 -1.3781  0.8351  2.0354
  107MOL   H18840680   3.813   1.056   0.219  1.2716  2.1718 -0.1414
  107MOL   H18940681   3.604   1.150   0.550 -0.3452 -0.7844 -0.3504
  107MOL   H19040682   3.684   1.009   0.638 -0.8933 -0.0341  0.8881
  107MOL   H19140683   3.592   0.991   0.496  0.0139 -1.2882  0.5435
  107MOL   C19240684   4.047   1.418   0.667 -0.3201  0.1850 -0.0862
  107MOL   C19340685   3.925   1.442   0.754  0.0277 -0.8876  0.4218
  107MOL   C19440686   3.813   1.524   0.686 -0.4645 -0.8402 -0.1243
  107MOL   O19540687   3.810   1.643   0.706  0.2628 -0.5084 -0.0314
  107MOL   N19640688   3.712   1.456   0.627 -0.9890 -0.4783  0.3401
  107MOL   C19740689   3.608   1.516   0.545  0.5174  0.5866  0.1423
  107MOL   C19840690   3.643   1.503   0.395 -0.2677 -0.0546 -0.6011
  107MOL   C19940691   3.482   1.434   0.564 -0.3860  0.1375  0.6448
  107MOL   H20040692   4.084   1.515   0.634 -0.0449  0.4243  0.8907
  107MOL   H20140693   4.124   1.369   0.727 -0.1574  2.9650  2.1367
  107MOL   H20240694   3.884   1.345   0.783 -0.3465 -0.8757 -0.0717
  107MOL   H20340695   3.717   1.356   0.617 -1.4168 -0.4018 -0.7101
  107MOL   H20440696   3.584   1.619   0.574 -0.6447  0.6555 -1.0092
  107MOL   H20540697   3.675   1.401   0.373  0.6998  0.1888 -0.3843
  107MOL   H20640698   3.726   1.573   0.383 -0.7344  0.6476  0.2416
  107MOL   H20740699   3.564   1.537   0.329 -0.8697 -1.6481 -0.7344
  107MOL   H20840700   3.496   1.332   0.529 -3.0829  0.1982 -0.7018
  107MOL   H20940701   3.394   1.479   0.518  0.4728 -1.9390 -3.2882
  107MOL   H21040702   3.454   1.424   0.669 -0.3087  1.5347  0.8163
  107MOL   C21140703   3.965   1.490   0.898  0.1315 -0.7865  0.5017
  107MOL   C21240704   3.865   1.515   1.012  0.1718  1.1644  0.3581
  107MOL   C21340705   3.771   1.401   1.034 -0.3105  0.8980  0.2921
  107MOL   O21440706   3.816   1.306   1.101 -0.1950 -0.2170 -0.1653
  107MOL   N21540707   3.657   1.404   0.971 -0.5674 -0.2633  0.1630
  107MOL   C21640708   3.559   1.305   0.981  0.5863  0.4073 -0.0461
  107MOL   C21740709   3.587   1.193   0.879 -0.3144 -0.4788  0.4967
  107MOL   C21840710   3.418   1.364   0.969 -0.2191 -0.2989 -0.0993
  107MOL   H21940711   4.045   1.564   0.886  1.5387 -2.3606  0.0602
  107MOL   H22040712   4.026   1.408   0.934  0.2462 -0.5747  0.7961
  107MOL   H22140713   3.802   1.603   0.995  1.5953  2.0647 -0.4186
  107MOL   H22240714   3.622   1.494   0.940  1.1978  0.6511  0.7845
  107MOL   H22340715   3.558   1.258   1.080 -2.6403  0.6644  0.0757
  107MOL   H22440716   3.693   1.197   0.855  0.0671  0.4537  2.2425
  107MOL   H22540717   3.548   1.095   0.907  1.3571 -1.3562 -0.1328
  107MOL   H22640718   3.535   1.206   0.784 -0.6192  0.0565  0.7362
  107MOL   H22740719   3.342   1.292   1.000  0.3317 -0.6324  0.4963
  107MOL   H22840720   3.396   1.407   0.871  1.3423 -0.4393 -0.5261
  107MOL   H22940721   3.410   1.445   1.041  2.0815  1.6068 -1.8936
  107MOL   C23040722   3.952   1.556   1.135 -0.6184  0.0552 -0.0086
  107MOL   C23140723   3.879   1.643   1.248  0.3643 -0.5675 -0.0442
  107MOL   C23240724   3.845   1.785   1.190 -0.1099  0.0519 -0.2797
  107MOL   O23340725   3.940   1.864   1.165  0.5766 -0.2169  0.2795
  107MOL   N23440726   3.713   1.804   1.162 -0.1732  0.6803  0.1173
  107MOL   C23540727   3.657   1.919   1.097  0.3149 -0.2558 -0.1438
  107MOL   C23640728   3.683   1.917   0.946 -0.7988  0.3623 -0.3273
  107MOL   C23740729   3.502   1.924   1.119 -0.0455 -0.4706  1.0349
  107MOL   H23840730   4.042   1.607   1.103 -1.8945  0.9162 -2.3311
  107MOL   H23940731   3.978   1.464   1.188  2.1711  1.7301  1.6236
  107MOL   H24040732   3.949   1.663   1.328 -0.0199  1.1844 -0.1292
  107MOL   H24140733   3.645   1.756   1.220  0.0995 -2.7083 -2.2291
  107MOL   H24240734   3.701   2.002   1.153 -0.3119  0.8261 -1.2426
  107MOL   H24340735   3.650   1.831   0.888  1.1103 -1.1907  0.8150
  107MOL   H24440736   3.645   2.008   0.900 -0.6994  0.7024  0.2575
  107MOL   H24540737   3.790   1.938   0.937 -0.7099 -0.0538 -0.2518
  107MOL   H24640738   3.487   1.924   1.227  2.7072  0.3177  1.4636
  107MOL   H24740739   3.447   1.838   1.082  0.1855  0.5911 -1.9174
  107MOL   H24840740   3.462   2.015   1.073  0.6401 -0.2259  0.9096
  107MOL   C24940741   3.763   1.562   1.318  0.6377  0.1462 -0.7112
  107MOL   C25040742   3.797   1.440   1.403 -0.2901 -0.0680  0.2901
  107MOL   C25140743   3.676   1.341   1.425  0.7088  0.6614 -0.2464
  107MOL   O25240744   3.571   1.374   1.482 -0.4131  0.0692  0.2874
  107MOL   N25340745   3.697   1.211   1.394 -0.4206  0.0476  0.2424
  107MOL   C25440746   3.616   1.098   1.413 -0.5898  0.2212 -0.4592
  107MOL   C25540747   3.614   1.012   1.287  0.4367  0.3478  0.0149
  107MOL   C25640748   3.679   1.025   1.534 -0.1798  0.2541 -0.4699
  107MOL   H25740749   3.690   1.532   1.243 -0.1711 -1.8939  0.8529
  107MOL   H25840750   3.699   1.628   1.378 -1.1616 -1.2582 -1.0442
  107MOL   H25940751   3.870   1.388   1.341  0.6193 -0.7497  1.9076
  107MOL   H26040752   3.783   1.198   1.344 -0.2532  1.7110  0.0787
  107MOL   H26140753   3.513   1.123   1.438 -0.5768  0.6738 -0.8427
  107MOL   H26240754   3.586   1.072   1.201  1.6031 -1.5426 -1.7193
  107MOL   H26340755   3.718   0.980   1.282  0.5402 -0.0329  3.2290
  107MOL   H26440756   3.539   0.933   1.292  0.1866  0.7080  2.4093
  107MOL   H26540757   3.692   1.072   1.631 -0.2926  3.6466 -2.0252
  107MOL   H26640758   3.638   0.925   1.550  3.7347 -1.5436 -0.9859
  107MOL   H26740759   3.778   1.002   1.495 -0.2387  2.9304 -2.2979
  107MOL   C26840760   3.857   1.476   1.539  0.3599  0.3346 -0.0466
  107MOL   C26940761   4.009   1.464   1.548 -0.1529  0.8772  0.2394
  107MOL   C27040762   4.070   1.555   1.663  0.9511  0.1376  0.7372
  107MOL   O27140763   4.171   1.620   1.644  0.3846 -0.4388 -0.2487
  107MOL   N27240764   3.993   1.555   1.771 -0.0760 -0.5371  0.0769
  107MOL   C27340765   4.004   1.653   1.882  0.2433 -0.7154  0.3424
  107MOL   C27440766   3.901   1.767   1.847 -0.0708  0.1601  0.1816
  107MOL   C27540767   3.988   1.600   2.018  0.3074 -0.1202  1.0919
  107MOL   H27640768   3.833   1.582   1.547 -0.9568  0.1062 -0.9300
  107MOL   H27740769   3.808   1.425   1.622  1.3153 -0.6830 -0.0913
  107MOL   H27840770   4.062   1.489   1.456 -0.7814  2.4786  0.3102
  107MOL   H27940771   3.909   1.500   1.761  0.0018 -0.8951  1.3076
  107MOL   H28040772   4.109   1.683   1.885 -0.0123  0.6157 -2.0283
  107MOL   H28140773   3.914   1.811   1.748 -1.1848  0.6050  0.2262
  107MOL   H28240774   3.799   1.732   1.863  0.2955 -0.3060  1.6275
  107MOL   H28340775   3.903   1.838   1.930 -0.8989  1.5535 -0.9622
  107MOL   H28440776   4.033   1.653   2.102  2.3000 -0.7854  0.4854
  107MOL   H28540777   3.884   1.581   2.042 -0.0866 -3.4285 -2.7852
  107MOL   H28640778   4.037   1.502   2.015  0.7332  0.0876  1.1147
  107MOL   C28740779   4.041   1.313   1.583  0.6063  0.0705 -0.0548
  107MOL   C28840780   4.164   1.253   1.512 -0.1700  0.6563  1.3997
  107MOL   C28940781   4.126   1.235   1.360 -0.4322 -0.0417  0.8835
  107MOL   O29040782   4.026   1.162   1.331 -0.8258 -0.7249 -0.2251
  107MOL   N29140783   4.207   1.294   1.272  0.4668 -0.0799 -0.2582
  107MOL   C29240784   4.198   1.275   1.133 -0.1558 -0.9433  0.4064
  107MOL   C29340785   4.271   1.383   1.048 -0.6769 -0.2531  0.2988
  107MOL   C29440786   4.268   1.145   1.106 -0.0002 -0.0855  0.8652
  107MOL   H29540787   4.055   1.318   1.691 -2.7045  0.7525  0.4104
  107MOL   H29640788   3.954   1.249   1.567 -0.5505  0.7189  3.0976
  107MOL   H29740789   4.253   1.316   1.521  1.6795 -1.8363  1.2421
  107MOL   H29840790   4.295   1.341   1.290  1.1499 -0.5425 -2.1904
  107MOL   H29940791   4.093   1.281   1.105  0.0456  0.9474 -0.0516
  107MOL   H30040792   4.379   1.375   1.066 -0.8422  0.3861  1.5864
  107MOL   H30140793   4.260   1.376   0.939 -3.2104 -2.8610  0.6944
  107MOL   H30240794   4.250   1.479   1.095  1.1212 -0.7968  2.2834
  107MOL   H30340795   4.248   1.102   1.008 -1.7655  0.7434  0.8423
  107MOL   H30440796   4.374   1.158   1.126  0.1311 -0.6453  0.5565
  107MOL   H30540797   4.242   1.069   1.180 -0.0459 -0.7989  0.1242
  107MOL   C30640798   4.202   1.112   1.582  0.0477 -0.3167  0.0195
  107MOL   C30740799   4.324   1.042   1.518 -0.7355  0.1498 -0.8391
  107MOL   C30840800   4.296   0.896   1.491  0.1658  0.1919  0.0771
  107MOL   O30940801   4.365   0.810   1.538  0.2352  0.1010  0.6103
  107MOL   N31040802   4.194   0.880   1.403 -0.3223 -0.2120  0.3227
  107MOL   C31140803   4.155   0.750   1.339 -0.3124 -0.6507 -0.3347
  107MOL   C31240804   4.002   0.736   1.349 -0.5169  0.3556  0.3056
  107MOL   C31340805   4.202   0.740   1.192 -0.0957  0.9180  0.1104
  107MOL   H31440806   4.235   1.135   1.683  1.2487 -0.2111 -0.3779
  107MOL   H31540807   4.108   1.059   1.580 -0.2146  0.1624 -1.6592
  107MOL   H31640808   4.348   1.068   1.415 -0.1522 -0.9942 -1.0031
  107MOL   H31740809   4.135   0.955   1.371 -0.9199 -0.6662  0.3693
  107MOL   H31840810   4.199   0.664   1.388  1.7967  0.8161  0.4063
  107MOL   H31940811   3.962   0.831   1.313 -2.5317 -0.5828 -0.0252
  107MOL   H32040812   3.967   0.713   1.450 -0.1580  2.1808  0.8703
  107MOL   H32140813   3.958   0.660   1.284  1.0389 -1.0986  0.9356
  107MOL   H32240814   4.167   0.644   1.154 -2.5132  1.7372  0.1432
  107MOL   H32340815   4.304   0.773   1.176 -0.4172  0.3714 -3.3945
  107MOL   H32440816   4.143   0.803   1.126 -1.9447 -0.4928  0.3800
  107MOL   C32540817   4.463   1.079   1.583  0.4934  1.1610 -0.4838
  107MOL   C32640818   4.594   1.062   1.496  0.3870 -0.1041  0.3422
  107MOL   C32740819   4.615   1.155   1.381 -0.1000 -0.8050  0.6914
  107MOL   O32840820   4.530   1.238   1.360 -0.2635  0.1721 -0.5697
  107MOL   N32940821   4.731   1.145   1.310 -0.1688  0.5943  0.5229
  107MOL   C33040822   4.780   1.231   1.201 -0.5708  0.0235  0.5115
  107MOL   C33140823   4.731   1.142   1.087 -0.3041 -0.2823  0.3291
  107MOL   C33240824   4.935   1.239   1.213  0.3145 -0.1190 -0.6489
  107MOL   H33340825   4.450   1.018   1.673 -0.1075 -0.5520 -1.6973
  107MOL   H33440826   4.457   1.184   1.611  1.0884  1.6937 -2.3009
  107MOL   H33540827   4.590   0.967   1.443  0.2998 -0.2376  0.5863
  107MOL   H33640828   4.791   1.065   1.326 -1.7083 -1.5246 -3.5650
  107MOL   H33740829   4.730   1.328   1.197  0.7349  0.6059 -3.7123
  107MOL   H33840830   4.625   1.118   1.096 -0.1410 -1.5475 -0.9576
  107MOL   H33940831   4.739   1.192   0.990  1.5477  0.4927  0.8532
  107MOL   H34040832   4.768   1.040   1.077  0.0011 -0.0482 -1.1183
  107MOL   H34140833   4.970   1.262   1.314  1.6302  3.0469 -1.7549
  107MOL   H34240834   4.979   1.315   1.149 -1.7703  0.3210 -1.5805
  107MOL   H34340835   4.983   1.143   1.192  2.3045  0.8417 -0.6200
  107MOL   C34440836   4.714   1.069   1.592 -0.0122 -0.4614 -0.1643
  107MOL   C34540837   4.773   0.928   1.639  0.7559 -0.2597 -0.2151
  107MOL   C34640838   4.855   0.870   1.528 -0.0304  0.0771  0.0292
  107MOL   O34740839   4.896   0.928   1.426  0.1690  0.2450  0.8735
  107MOL   N34840840   4.872   0.735   1.549  0.5342 -0.6472  0.0337
  107MOL   C34940841   4.954   0.656   1.462 -0.2288  0.3088  0.2511
  107MOL   C35040842   5.091   0.655   1.521  0.4426 -0.0079 -0.0328
  107MOL   C35140843   4.896   0.508   1.453  0.3725 -0.9088  0.4065
  107MOL   H35240844   4.676   1.120   1.681 -0.8569 -1.1717 -0.1114
  107MOL   H35340845   4.792   1.134   1.553  0.8298 -1.1785  0.3157
  107MOL   H35440846   4.689   0.865   1.666  0.6857 -0.3165 -0.5605
  107MOL   H35540847   4.840   0.692   1.634  2.5193  0.1902  1.2669
  107MOL   H35640848   4.939   0.701   1.364  2.3571  0.4910 -0.0841
  107MOL   H35740849   5.090   0.604   1.617 -0.6383 -1.0420 -0.5685
  107MOL   H35840850   5.152   0.593   1.455 -0.4616 -0.3143 -0.5932
  107MOL   H35940851   5.139   0.752   1.532  2.3341 -0.7511 -1.4578
  107MOL   H36040852   4.876   0.457   1.547 -1.3917 -2.9433 -1.0110
  107MOL   H36140853   4.797   0.520   1.409  1.0937  2.4050 -0.4566
  107MOL   H36240854   4.961   0.446   1.392  0.0845 -0.1213 -0.7169
  107MOL   C36340855   4.851   0.955   1.778 -0.2322  0.8102 -1.1908
  107MOL   C36440856   4.907   0.836   1.865  0.0793 -0.7856 -0.1770
  107MOL   C36540857   4.816   0.717   1.869  0.2255 -0.0023  0.0156
  107MOL   O36640858   4.838   0.626   1.791 -0.3730 -0.0198  0.2826
  107MOL   N36740859   4.716   0.720   1.958  1.0537  0.0602 -0.1462
  107MOL   C36840860   4.597   0.637   1.959 -0.1588  0.0158  0.5708
  107MOL   C36940861   4.545   0.613   2.102 -0.2592 -0.3448 -0.0449
  107MOL   C37040862   4.492   0.713   1.872  0.8020 -0.3439  0.5033
  107MOL   H37140863   4.784   1.020   1.834  0.2786 -0.2584  0.7189
  107MOL   H37240864   4.932   1.026   1.758  0.5690 -0.0997 -1.1974
  107MOL   H37340865   4.924   0.871   1.967  2.2829 -0.4313 -0.6412
  107MOL   H37440866   4.726   0.788   2.033  0.5409  0.9398 -0.8708
  107MOL   H37540867   4.619   0.542   1.910  0.6048  0.3210  0.3053
  107MOL   H37640868   4.614   0.558   2.165  0.3943 -1.6618 -1.8522
  107MOL   H37740869   4.520   0.712   2.141  1.7189 -0.5860  1.9051
  107MOL   H37840870   4.450   0.561   2.099 -1.2491  1.4769 -2.2058
  107MOL   H37940871   4.393   0.667   1.879 -0.9990  3.1440 -0.8386
  107MOL   H38040872   4.478   0.813   1.912  0.8826 -0.8428  1.8278
  107MOL   H38140873   4.522   0.731   1.769 -0.2685  0.5130  0.3358
  107MOL   H38240874   5.011   0.810   1.844  0.3804 -1.4505  2.0143
  108MOL     C140875   5.198   5.424   2.305  0.0712  0.3070  0.3535
  108MOL     C240876   5.129   5.535   2.396  0.3419  0.7883  0.4453
  108MOL     C340877   5.025   5.466   2.478  0.2326  0.3413  0.2091
  108MOL     O440878   5.046   5.358   2.530 -0.0795 -0.6971 -0.1308
  108MOL     N540879   4.906   5.526   2.482  0.2260 -0.5686 -0.0113
  108MOL     C640880   4.786   5.482   2.551 -0.2915 -0.6528 -0.5446
  108MOL     C740881   4.748   5.579   2.665  0.1919 -0.1463  0.6129
  108MOL     C840882   4.672   5.467   2.447 -0.5240  0.6724  0.1873
  108MOL     H940883   5.219   5.337   2.369  0.6176  0.3581  0.2488
  108MOL    H1040884   5.291   5.457   2.259 -1.2170  2.2315 -0.9237
  108MOL    H1140885   5.081   5.606   2.329 -1.7921 -0.7833  0.2755
  108MOL    H1240886   4.895   5.608   2.424  0.7179 -0.4276  0.0867
  108MOL    H1340887   4.806   5.385   2.596  0.2969 -0.2278  0.1214
  108MOL    H1440888   4.728   5.676   2.621 -1.1360  0.5334  2.6731
  108MOL    H1540889   4.834   5.580   2.733 -0.2634  2.4143  1.1835
  108MOL    H1640890   4.664   5.550   2.727  0.2881 -1.3321  0.2087
  108MOL    H1740891   4.716   5.419   2.360 -0.8811  1.9130 -0.7029
  108MOL    H1840892   4.585   5.405   2.469 -0.6861  0.6375 -0.5379
  108MOL    H1940893   4.646   5.567   2.413  1.0181  0.2767 -2.2884
  108MOL    H2040894   5.136   5.398   2.219  0.9462 -3.2509  0.6824
  108MOL    C2140895   5.230   5.609   2.487  0.1272  0.1895  0.1235
  108MOL    C2240896   5.174   5.716   2.581 -0.2886  0.6536  0.2109
  108MOL    C2340897   5.106   5.826   2.498 -0.3392  0.2539 -0.4150
  108MOL    O2440898   5.170   5.880   2.405 -0.3960 -0.0105  0.2251
  108MOL    N2540899   4.983   5.859   2.542 -1.0280 -0.3657  0.2724
  108MOL    C2640900   4.889   5.946   2.471 -0.5165 -0.4455 -0.8193
  108MOL    C2740901   4.774   6.005   2.555  0.4282  0.0487 -0.5428
  108MOL    C2840902   4.834   5.869   2.345 -0.5608  0.6710  0.6358
  108MOL    H2940903   5.293   5.658   2.413 -0.6598 -1.8834 -1.9858
  108MOL    H3040904   5.279   5.532   2.547  0.1007  0.7711  0.8987
  108MOL    H3140905   5.094   5.671   2.641 -0.9366  1.2055 -0.2357
  108MOL    H3240906   4.955   5.821   2.632  0.1460  2.8333  2.0897
  108MOL    H3340907   4.955   6.028   2.444 -0.6841 -0.1574 -0.3492
  108MOL    H3440908   4.812   6.071   2.633 -0.7897  0.6269 -0.4391
  108MOL    H3540909   4.720   5.917   2.592  0.6447 -0.5714 -1.6705
  108MOL    H3640910   4.697   6.056   2.497  0.3829 -1.5862 -1.9681
  108MOL    H3740911   4.915   5.825   2.287 -0.4606 -0.9132  1.9303
  108MOL    H3840912   4.760   5.794   2.374  0.2769  0.2187  1.6654
  108MOL    H3940913   4.782   5.938   2.279 -0.2449 -3.0030 -3.6798
  108MOL    C4040914   5.275   5.772   2.674 -1.0504  0.0771  0.0302
  108MOL    C4140915   5.343   5.670   2.767 -0.4064 -0.2809 -0.3182
  108MOL    C4240916   5.250   5.587   2.861 -0.6205  0.5228  0.3645
  108MOL    O4340917   5.155   5.641   2.916  0.0747 -0.0801 -0.1987
  108MOL    N4440918   5.280   5.457   2.874  0.1330 -0.1342 -0.2086
  108MOL    C4540919   5.206   5.367   2.959  0.3876  0.1660 -0.4778
  108MOL    C4640920   5.088   5.320   2.876 -0.0394  0.1242 -0.1824
  108MOL    C4740921   5.292   5.249   2.992 -0.3226 -0.4485  0.6450
  108MOL    H4840922   5.230   5.846   2.741  1.3743  0.9174  0.7910
  108MOL    H4940923   5.351   5.828   2.620 -1.5676  0.8216  0.0540
  108MOL    H5040924   5.391   5.606   2.693 -1.8117  0.2898 -1.7428
  108MOL    H5140925   5.365   5.414   2.840  0.0159 -2.5475  2.3440
  108MOL    H5240926   5.167   5.412   3.049 -1.6855  0.5261 -1.5286
  108MOL    H5340927   5.016   5.401   2.868 -1.2445 -1.0434 -1.2552
  108MOL    H5440928   5.044   5.232   2.922  0.5037  0.3091  0.7124
  108MOL    H5540929   5.124   5.283   2.781 -0.4122 -1.6309  0.3383
  108MOL    H5640930   5.381   5.273   3.050  0.6898 -1.9949 -0.2185
  108MOL    H5740931   5.321   5.191   2.904 -1.4598  1.5193 -1.0613
  108MOL    H5840932   5.241   5.171   3.049  1.2789 -2.0668 -0.0670
  108MOL    C5940933   5.463   5.733   2.846 -0.3989 -0.1086  0.0643
  108MOL    C6040934   5.600   5.728   2.780 -0.0466 -0.7026  0.1100
  108MOL    C6140935   5.636   5.586   2.725  0.4576 -0.5022  0.7896
  108MOL    O6240936   5.669   5.490   2.793 -0.6879  0.8141 -0.0444
  108MOL    N6340937   5.640   5.587   2.592  0.2681  0.0362  0.7558
  108MOL    C6440938   5.668   5.470   2.508 -0.2238  1.3851  0.8714
  108MOL    C6540939   5.579   5.493   2.380 -0.4420 -0.1251  0.1334
  108MOL    C6640940   5.817   5.473   2.463  0.1400  0.1235  0.7628
  108MOL    H6740941   5.442   5.837   2.872  1.6321  0.4808 -0.5430
  108MOL    H6840942   5.474   5.692   2.946  0.6720  0.9276  0.3893
  108MOL    H6940943   5.602   5.807   2.705 -1.7235 -1.8350 -1.1308
  108MOL    H7040944   5.622   5.675   2.546 -0.9019 -0.6808 -0.2263
  108MOL    H7140945   5.656   5.374   2.557  2.4371 -0.4523 -1.8522
  108MOL    H7240946   5.479   5.515   2.419  0.1297 -0.2919  1.7357
  108MOL    H7340947   5.606   5.574   2.312  0.0094 -1.9669 -1.9277
  108MOL    H7440948   5.578   5.407   2.313  0.1935  1.6447 -2.2230
  108MOL    H7540949   5.852   5.566   2.419  1.8502  0.3138  2.4334
  108MOL    H7640950   5.880   5.440   2.546  0.7064  3.2513  1.6092
  108MOL    H7740951   5.833   5.397   2.386  0.8680  0.8554  0.1925
  108MOL    C7840952   5.704   5.765   2.892  0.1463  0.1130  0.4090
  108MOL    C7940953   5.845   5.797   2.832 -0.7540  0.1830 -0.2603
  108MOL    C8040954   5.952   5.691   2.872  0.3644  0.0240 -0.3603
  108MOL    O8140955   6.054   5.725   2.931  0.2303 -0.4545  0.2534
  108MOL    N8240956   5.928   5.563   2.831 -0.3930 -0.0356  0.6277
  108MOL    C8340957   6.021   5.455   2.845 -1.2237  0.5565 -0.1363
  108MOL    C8440958   5.946   5.320   2.852  0.0802 -0.3228  0.7978
  108MOL    C8540959   6.131   5.451   2.746 -0.2872  0.5084  0.0641
  108MOL    H8640960   5.713   5.684   2.965  0.0556 -1.1122 -0.9225
  108MOL    H8740961   5.672   5.856   2.942 -0.3667 -0.4932  1.1932
  108MOL    H8840962   5.879   5.882   2.891  0.8147 -1.7764  1.7188
  108MOL    H8940963   5.841   5.534   2.789 -1.4914 -0.0741  2.8669
  108MOL    H9040964   6.070   5.472   2.941 -0.0781 -0.0187 -0.6111
  108MOL    H9140965   6.011   5.234   2.868 -1.5786 -1.5380  1.1702
  108MOL    H9240966   5.880   5.321   2.939 -0.7802 -0.3079  0.1501
  108MOL    H9340967   5.881   5.298   2.767  0.5470 -3.4736  1.1998
  108MOL    H9440968   6.091   5.421   2.649 -0.0633 -2.4524  0.8201
  108MOL    H9540969   6.220   5.393   2.771 -0.1994  0.3028 -0.7127
  108MOL    H9640970   6.179   5.545   2.719 -1.2933  0.2380 -2.8590
  108MOL    C9740971   5.866   5.837   2.679 -0.0408 -0.1631  0.1394
  108MOL    C9840972   6.010   5.872   2.628 -0.2574  0.2531  0.9649
  108MOL    C9940973   6.084   5.983   2.700 -0.3982  0.2927 -0.5711
  108MOL   O10040974   6.022   6.070   2.755 -0.7905  0.0351  0.6069
  108MOL   N10140975   6.216   5.983   2.682 -0.2128 -0.1771 -0.0508
  108MOL   C10240976   6.303   6.100   2.688  0.3308  0.2105  0.4991
  108MOL   C10340977   6.396   6.094   2.809 -0.4206  0.7670 -1.3080
  108MOL   C10440978   6.383   6.110   2.554 -0.1093  0.1457  0.0096
  108MOL   H10540979   5.793   5.915   2.658  0.8880  0.3140 -1.4284
  108MOL   H10640980   5.836   5.762   2.606  0.5715  0.9383 -1.2701
  108MOL   H10740981   6.067   5.780   2.645  0.4261  0.3946 -0.5201
  108MOL   H10840982   6.258   5.899   2.645  1.9915  2.2462 -3.2905
  108MOL   H10940983   6.233   6.182   2.706 -1.3525 -1.2513  0.8221
  108MOL   H11040984   6.463   6.178   2.827 -1.3029  0.9096  1.5348
  108MOL   H11140985   6.332   6.096   2.897  2.1584  2.0042  0.5962
  108MOL   H11240986   6.464   6.009   2.811 -1.5084 -0.1031 -1.1010
  108MOL   H11340987   6.321   6.127   2.466 -0.8045  1.2851  0.6925
  108MOL   H11440988   6.449   6.025   2.538  1.0978  1.2594 -1.0759
  108MOL   H11540989   6.444   6.200   2.558  0.2632 -0.1588  1.7193
  108MOL   C11640990   6.001   5.895   2.472  0.1394 -0.3383  0.7883
  108MOL   C11740991   6.069   5.787   2.385 -0.2314  0.3033  0.3044
  108MOL   C11840992   6.222   5.806   2.385 -0.0468 -0.5021 -0.4803
  108MOL   O11940993   6.266   5.909   2.338 -0.3958 -0.0602  0.4288
  108MOL   N12040994   6.301   5.713   2.428 -0.0945 -0.2768  0.7728
  108MOL   C12140995   6.447   5.709   2.414  0.1097 -0.1770 -0.3952
  108MOL   C12240996   6.501   5.602   2.510  0.0456  0.1379  0.6785
  108MOL   C12340997   6.494   5.670   2.273 -0.0588 -1.2330  0.0803
  108MOL   H12440998   6.058   5.983   2.441 -3.1526  1.8523  0.7266
  108MOL   H12540999   5.901   5.913   2.432  0.7989  0.8276 -0.3726
  108MOL   H12641000   6.044   5.692   2.433  0.1626  0.0534  0.0128
  108MOL   H12741001   6.267   5.630   2.475  0.4397 -0.2778  1.1600
  108MOL   H12841002   6.486   5.808   2.434  3.8370 -1.5837 -0.2986
  108MOL   H12941003   6.607   5.618   2.529  0.9610  0.7524 -4.1360
  108MOL   H13041004   6.481   5.496   2.491  1.1465 -0.1126  0.8604
  108MOL   H13141005   6.454   5.613   2.607  1.1751  0.2369  1.2276
  108MOL   H13241006   6.481   5.752   2.201 -0.4249  0.1900  1.7374
  108MOL   H13341007   6.603   5.668   2.268 -0.0356 -2.2005  1.0168
  108MOL   H13441008   6.444   5.580   2.237 -1.1171 -0.9000  0.7070
  108MOL   C13541009   6.019   5.773   2.241  0.4008 -0.3439  0.1899
  108MOL   C13641010   6.099   5.691   2.131 -0.2463 -0.1374  0.2386
  108MOL   C13741011   6.110   5.542   2.165  0.4266 -1.2086 -0.0176
  108MOL   O13841012   6.014   5.482   2.213 -0.2358  0.0589 -0.1232
  108MOL   N13941013   6.220   5.472   2.133 -0.0249 -0.2976  0.3885
  108MOL   C14041014   6.240   5.331   2.163  0.8850  0.0193 -0.3114
  108MOL   C14141015   6.247   5.296   2.313 -0.2838  0.4005  0.6097
  108MOL   C14241016   6.362   5.276   2.085  0.0711 -0.4484 -0.0189
  108MOL   H14341017   6.012   5.875   2.203  1.5188 -0.1997  0.3480
  108MOL   H14441018   5.915   5.740   2.237 -0.2503  1.8450 -1.4177
  108MOL   H14541019   6.203   5.721   2.126 -0.3850  0.0867 -1.7467
  108MOL   H14641020   6.293   5.522   2.084  0.2781 -0.5347  0.5974
  108MOL   H14741021   6.156   5.273   2.125  0.7568  1.6797 -2.6445
  108MOL   H14841022   6.330   5.348   2.362 -0.1231  1.2897 -0.5834
  108MOL   H14941023   6.155   5.314   2.369  0.1694 -0.1340  1.5360
  108MOL   H15041024   6.254   5.188   2.323 -1.5852  0.1635 -0.8100
  108MOL   H15141025   6.401   5.185   2.129  3.2028  0.8337 -0.0443
  108MOL   H15241026   6.444   5.347   2.095  0.9280 -1.4391  0.0220
  108MOL   H15341027   6.350   5.251   1.980  0.3674  0.1365 -0.1905
  108MOL   C15441028   6.045   5.697   1.988 -0.1043 -0.7793  0.1051
  108MOL   C15541029   5.996   5.834   1.937  0.0135 -0.6882  0.2608
  108MOL   C15641030   5.914   5.834   1.812 -0.4992  0.2059  0.1929
  108MOL   O15741031   5.937   5.758   1.722  0.2030 -0.0622 -0.4080
  108MOL   N15841032   5.806   5.905   1.811  0.3914  0.1184 -0.5324
  108MOL   C15941033   5.700   5.900   1.716 -0.3144  0.0255  0.7902
  108MOL   C16041034   5.716   5.993   1.599  0.1137 -0.2858 -0.5887
  108MOL   C16141035   5.561   5.923   1.780  0.5599  0.0410 -0.0539
  108MOL   H16241036   5.961   5.627   1.984  0.4057 -1.3218 -1.4527
  108MOL   H16341037   6.112   5.651   1.915 -1.4289 -0.1106 -1.5847
  108MOL   H16441038   5.934   5.882   2.012 -0.0160  0.6976 -0.6186
  108MOL   H16541039   5.777   5.959   1.892 -1.8036 -2.3992  0.4516
  108MOL   H16641040   5.701   5.803   1.665 -0.7739 -0.0336  0.8912
  108MOL   H16741041   5.805   5.960   1.546  0.5317 -1.0141  0.5577
  108MOL   H16841042   5.630   5.996   1.531 -0.9416 -2.8880  0.5641
  108MOL   H16941043   5.735   6.094   1.635 -0.6167 -0.6035  0.7140
  108MOL   H17041044   5.486   5.890   1.707  2.1305 -0.1849 -1.6019
  108MOL   H17141045   5.557   6.031   1.796  0.5231 -0.2859  2.2790
  108MOL   H17241046   5.554   5.869   1.874 -0.2015 -0.7700 -0.5588
  108MOL   C17341047   6.116   5.939   1.923  0.0829  0.1626  0.3205
  108MOL   C17441048   6.225   5.888   1.826 -0.4348  0.3661  0.0496
  108MOL   C17541049   6.242   5.982   1.703 -0.4566 -0.1072 -0.0107
  108MOL   O17641050   6.306   6.085   1.706 -0.1463  0.1292 -0.3788
  108MOL   N17741051   6.176   5.946   1.590 -0.4126 -0.2571 -0.2216
  108MOL   C17841052   6.157   6.039   1.477 -0.0071  0.4714 -0.2404
  108MOL   C17941053   6.071   6.164   1.514 -0.6369 -0.5802  0.0098
  108MOL   C18041054   6.088   5.964   1.370  0.3962  0.1968 -1.0503
  108MOL   H18141055   6.160   5.972   2.018 -1.1998 -1.7987  1.6353
  108MOL   H18241056   6.090   6.038   1.886  1.4883  0.5483  0.3113
  108MOL   H18341057   6.210   5.795   1.770 -2.3064  1.2277 -0.9257
  108MOL   H18441058   6.141   5.852   1.579 -0.6655 -0.1284 -0.5465
  108MOL   H18541059   6.255   6.069   1.439  0.8802  0.0299  1.6058
  108MOL   H18641060   5.988   6.117   1.567 -0.8515 -0.9966 -0.6902
  108MOL   H18741061   6.045   6.231   1.432  1.1554 -0.7104 -0.6872
  108MOL   H18841062   6.122   6.228   1.586 -0.9736  2.3877 -2.2627
  108MOL   H18941063   6.144   5.884   1.323 -0.8330 -0.6105 -1.1650
  108MOL   H19041064   6.070   6.032   1.287  0.6081  0.9728 -0.4699
  108MOL   H19141065   5.992   5.926   1.405  0.7425 -0.3610 -0.7126
  108MOL   C19241066   6.368   5.863   1.902  0.9745  0.4003 -1.0106
  108MOL   C19341067   6.476   5.794   1.828 -0.0691 -0.1829 -0.3324
  108MOL   C19441068   6.447   5.641   1.807  0.8518 -0.0361  0.4747
  108MOL   O19541069   6.382   5.584   1.896 -0.4073  0.1403 -0.3029
  108MOL   N19641070   6.490   5.580   1.696 -0.2488 -0.5949  0.9425
  108MOL   C19741071   6.507   5.432   1.695  0.5106 -0.4586  0.0384
  108MOL   C19841072   6.528   5.369   1.552 -0.3728 -0.7742  0.3463
  108MOL   C19941073   6.616   5.394   1.795  0.6867 -0.1310 -0.5696
  108MOL   H20041074   6.357   5.817   2.001  1.7684  2.5546  0.1083
  108MOL   H20141075   6.395   5.965   1.928 -0.3934  0.8693 -1.4259
  108MOL   H20241076   6.473   5.840   1.729  0.3809 -1.6158 -1.0180
  108MOL   H20341077   6.541   5.642   1.635 -1.8889 -0.0664  0.0783
  108MOL   H20441078   6.418   5.387   1.740 -0.6849  1.7828  0.0113
  108MOL   H20541079   6.447   5.385   1.481  1.2193 -0.2722 -1.3940
  108MOL   H20641080   6.539   5.261   1.561 -1.0931 -0.7616  1.4469
  108MOL   H20741081   6.621   5.412   1.515  0.9701 -3.6353  0.2549
  108MOL   H20841082   6.665   5.302   1.764 -0.0812 -0.8860  0.4424
  108MOL   H20941083   6.575   5.381   1.895 -0.1415  2.2018 -0.5628
  108MOL   H21041084   6.701   5.463   1.797  0.2112  0.4465  0.1928
  108MOL   C21141085   6.622   5.822   1.883  0.5400 -0.0172  0.2404
  108MOL   C21241086   6.751   5.783   1.802 -0.7916  0.4408 -0.4276
  108MOL   C21341087   6.740   5.861   1.670  0.3115  0.6889 -0.4697
  108MOL   O21441088   6.707   5.800   1.572  0.1533 -0.1025  0.2958
  108MOL   N21541089   6.753   5.997   1.669 -0.1297  0.4689  0.4640
  108MOL   C21641090   6.734   6.079   1.552  0.0136 -0.1996  0.0575
  108MOL   C21741091   6.816   6.206   1.564 -0.4996 -0.4550  0.0264
  108MOL   C21841092   6.588   6.123   1.525 -0.9073 -0.3495 -0.1555
  108MOL   H21941093   6.636   5.780   1.982  0.8401 -0.6332 -0.0544
  108MOL   H22041094   6.621   5.930   1.898  3.0742  0.1612 -0.5734
  108MOL   H22141095   6.745   5.675   1.787 -1.8989  0.3691  0.4640
  108MOL   H22241096   6.749   6.047   1.756  0.5673 -0.9347  1.3149
  108MOL   H22341097   6.769   6.026   1.463  3.0911 -0.3874  1.3332
  108MOL   H22441098   6.920   6.181   1.582 -0.1233  0.2494 -1.0796
  108MOL   H22541099   6.813   6.253   1.465 -1.0724  0.9705  0.6974
  108MOL   H22641100   6.775   6.277   1.635 -0.4438  0.4580 -0.8370
  108MOL   H22741101   6.591   6.178   1.431  2.6497  1.6672  1.0393
  108MOL   H22841102   6.558   6.202   1.594  3.1409  1.4405 -0.3187
  108MOL   H22941103   6.525   6.035   1.512  0.1705 -0.8945 -1.7819
  108MOL   C23041104   6.892   5.800   1.870 -0.4163  0.0810  0.2906
  108MOL   C23141105   7.013   5.728   1.800 -0.1648  0.5296  0.7478
  108MOL   C23241106   7.088   5.810   1.691 -0.4186  0.0015  0.3019
  108MOL   O23341107   7.149   5.909   1.724  0.1821 -0.1713  0.4941
  108MOL   N23441108   7.084   5.764   1.565 -0.0972 -0.3413  0.3696
  108MOL   C23541109   7.162   5.822   1.454 -0.2946  0.5865  0.6063
  108MOL   C23641110   7.244   5.713   1.380 -0.8081 -0.2146 -0.5062
  108MOL   C23741111   7.060   5.897   1.358 -0.7818 -0.0567 -0.2077
  108MOL   H23841112   6.887   5.769   1.974  2.8887 -1.6669 -0.0274
  108MOL   H23941113   6.911   5.907   1.863 -1.3636  0.2488  0.2179
  108MOL   H24041114   6.954   5.657   1.742  3.6247 -0.8686 -1.5721
  108MOL   H24141115   7.028   5.681   1.551  2.4458 -1.9144 -0.9568
  108MOL   H24241116   7.229   5.903   1.485 -1.7642  2.9542 -2.1141
  108MOL   H24341117   7.179   5.639   1.333 -0.9363 -1.0143  0.9130
  108MOL   H24441118   7.302   5.762   1.302  0.1928 -2.0780 -0.9694
  108MOL   H24541119   7.309   5.662   1.451 -1.1002 -1.6886 -1.2878
  108MOL   H24641120   7.116   5.957   1.286 -3.1710  0.3395 -1.8318
  108MOL   H24741121   7.004   5.975   1.410  0.6219  0.1134  1.0466
  108MOL   H24841122   7.006   5.822   1.301 -2.5808  1.4548 -0.5612
  108MOL   C24941123   7.112   5.646   1.886 -0.2555  0.4993  0.1044
  108MOL   C25041124   7.205   5.712   1.985  0.0128  0.5256  0.1183
  108MOL   C25141125   7.347   5.678   1.955 -0.5337  0.2651 -0.0099
  108MOL   O25241126   7.403   5.599   2.030 -0.3947 -0.2451 -0.3203
  108MOL   N25341127   7.405   5.719   1.843 -0.3614  0.1387  0.4602
  108MOL   C25441128   7.539   5.689   1.798 -0.2219 -0.4351 -0.3391
  108MOL   C25541129   7.539   5.693   1.640 -0.0191  0.0018  0.1625
  108MOL   C25641130   7.638   5.788   1.859  0.8398 -0.1694 -0.3210
  108MOL   H25741131   7.165   5.583   1.814 -1.2044 -0.5968  0.3565
  108MOL   H25841132   7.042   5.585   1.943 -0.1001 -0.9993 -1.2693
  108MOL   H25941133   7.196   5.821   1.982  1.0061  0.5858 -0.7512
  108MOL   H26041134   7.354   5.787   1.789 -0.9691 -0.6556  0.0217
  108MOL   H26141135   7.580   5.594   1.832 -0.6881 -0.4523  0.1776
  108MOL   H26241136   7.459   5.632   1.598 -0.6865 -0.0213  1.4243
  108MOL   H26341137   7.501   5.792   1.613  0.3464 -0.6614 -2.8851
  108MOL   H26441138   7.633   5.677   1.588 -0.2307  0.9987 -0.5380
  108MOL   H26541139   7.736   5.764   1.818  0.3007  0.1068 -1.8130
  108MOL   H26641140   7.618   5.891   1.830  1.0227 -0.2651 -0.7945
  108MOL   H26741141   7.646   5.777   1.967  1.6771 -1.4635 -0.4950
  108MOL   C26841142   7.162   5.676   2.129 -0.8341  0.5170  0.3350
  108MOL   C26941143   7.242   5.733   2.243  0.1482 -0.2631 -0.4390
  108MOL   C27041144   7.298   5.884   2.235  0.1732  0.6466 -0.1189
  108MOL   O27141145   7.222   5.965   2.183 -0.3896  0.2698  0.2975
  108MOL   N27241146   7.430   5.901   2.257 -0.4664  0.0338  0.4498
  108MOL   C27341147   7.494   6.031   2.245  0.4633  0.4769  0.3724
  108MOL   C27441148   7.610   6.019   2.338 -0.1048 -0.1284  0.4789
  108MOL   C27541149   7.541   6.061   2.094  0.6790  0.4437 -0.1612
  108MOL   H27641150   7.064   5.721   2.140 -0.4650  1.6472 -0.9125
  108MOL   H27741151   7.150   5.568   2.141 -1.8814  0.7578  1.6204
  108MOL   H27841152   7.329   5.669   2.258 -0.1736 -0.2044  1.8371
  108MOL   H27941153   7.487   5.822   2.285 -1.0652  0.1353  2.0111
  108MOL   H28041154   7.426   6.111   2.272 -1.2930 -0.5935 -0.7430
  108MOL   H28141155   7.579   5.983   2.435 -2.2432 -1.7832 -0.7810
  108MOL   H28241156   7.684   5.950   2.298  1.0291  0.9993  0.5784
  108MOL   H28341157   7.661   6.114   2.355 -0.8075  0.1245  1.1929
  108MOL   H28441158   7.454   6.065   2.029 -1.0091 -0.6057  1.9618
  108MOL   H28541159   7.578   6.163   2.093 -0.3841  0.8335  0.2138
  108MOL   H28641160   7.604   5.986   2.046 -0.5148 -0.6072 -0.1053
  108MOL   C28741161   7.163   5.724   2.378  0.0144  0.3162 -0.1927
  108MOL   C28841162   7.109   5.580   2.399 -0.1527  0.4943 -0.3126
  108MOL   C28941163   6.962   5.564   2.352  0.6477 -0.0069  0.3270
  108MOL   O29041164   6.879   5.648   2.374 -0.3719  0.6554  0.0751
  108MOL   N29141165   6.926   5.442   2.304 -0.4419 -0.2334  0.4242
  108MOL   C29241166   6.786   5.418   2.261 -0.3544 -0.0513 -0.6754
  108MOL   C29341167   6.748   5.461   2.121 -0.1473  0.1339 -0.3579
  108MOL   C29441168   6.758   5.270   2.284  0.0319 -0.4554 -0.2676
  108MOL   H29541169   7.221   5.773   2.456  0.2113 -1.4606  0.8014
  108MOL   H29641170   7.078   5.792   2.371 -2.3332 -2.2299  2.3857
  108MOL   H29741171   7.174   5.510   2.347  1.0240  1.4050 -0.0899
  108MOL   H29841172   6.996   5.370   2.297  0.3741  0.6561 -0.9926
  108MOL   H29941173   6.721   5.477   2.325 -0.3807 -0.3645 -0.4149
  108MOL   H30041174   6.802   5.403   2.046 -0.1100 -0.8777  0.4366
  108MOL   H30141175   6.644   5.432   2.108 -0.0844 -0.3213  0.1222
  108MOL   H30241176   6.760   5.565   2.093  0.6275  0.2780  0.4877
  108MOL   H30341177   6.680   5.224   2.224 -1.3791 -0.0847  1.2707
  108MOL   H30441178   6.847   5.215   2.253 -0.8941 -0.4306 -3.0989
  108MOL   H30541179   6.744   5.250   2.390  0.7241 -0.9590 -0.2634
  108MOL   C30641180   7.108   5.559   2.555  0.2280 -0.5186 -0.2571
  108MOL   C30741181   7.054   5.429   2.624 -0.0246  0.6542  0.0412
  108MOL   C30841182   6.997   5.458   2.761 -0.3930  0.0490  0.1018
  108MOL   O30941183   7.084   5.487   2.844  0.0708 -0.6736  0.3036
  108MOL   N31041184   6.869   5.461   2.783 -0.1745  0.0812  0.4561
  108MOL   C31141185   6.808   5.489   2.907 -0.3236 -0.0300 -0.5713
  108MOL   C31241186   6.821   5.622   2.967 -0.1833 -0.2762 -0.2598
  108MOL   C31341187   6.662   5.442   2.896 -0.2306 -0.0486  0.1198
  108MOL   H31441188   7.213   5.567   2.583  1.1276 -0.9017 -3.3375
  108MOL   H31541189   7.057   5.647   2.594 -1.4431 -0.6256 -2.1209
  108MOL   H31641190   6.974   5.386   2.564 -0.1416 -0.6224  1.0966
  108MOL   H31741191   6.820   5.433   2.699 -1.7684  1.4312  0.9112
  108MOL   H31841192   6.857   5.420   2.976 -1.7413  1.4262  1.9258
  108MOL   H31941193   6.768   5.689   2.899  0.7746  0.6177 -0.1443
  108MOL   H32041194   6.925   5.654   2.962 -0.8885  1.9269 -2.1570
  108MOL   H32141195   6.792   5.631   3.072 -0.2418 -1.6993 -0.1488
  108MOL   H32241196   6.616   5.459   2.993 -0.3200  1.9891 -0.2432
  108MOL   H32341197   6.657   5.339   2.860 -0.9448 -0.5877  1.7387
  108MOL   H32441198   6.610   5.504   2.823 -1.6830 -0.2035  1.0094
  108MOL   C32541199   7.155   5.315   2.630  1.0543 -0.4929 -0.3351
  108MOL   C32641200   7.105   5.177   2.662  0.3787  0.2369 -0.0432
  108MOL   C32741201   7.001   5.123   2.565  0.1002  0.8387 -0.3562
  108MOL   O32841202   7.008   5.139   2.444 -0.3522  0.4230  0.7579
  108MOL   N32941203   6.919   5.037   2.626 -0.3214  0.1697 -0.0337
  108MOL   C33041204   6.796   4.972   2.578  1.0503 -0.4076 -0.2371
  108MOL   C33141205   6.712   4.927   2.697 -0.3805 -0.0581 -0.1630
  108MOL   C33241206   6.845   4.854   2.492  0.2079 -0.6034  0.1665
  108MOL   H33341207   7.233   5.351   2.697  0.2958 -0.5627  0.5965
  108MOL   H33441208   7.204   5.297   2.535 -0.8056 -1.3495 -1.1617
  108MOL   H33541209   7.052   5.199   2.755 -0.1643 -3.1222  0.5025
  108MOL   H33641210   6.935   5.018   2.724  0.5230 -0.5526 -0.2992
  108MOL   H33741211   6.740   5.046   2.521 -0.4285 -0.0132  1.6835
  108MOL   H33841212   6.628   4.880   2.646 -0.1857 -0.7649  0.1458
  108MOL   H33941213   6.766   4.851   2.754 -1.2637  0.7625  1.8151
  108MOL   H34041214   6.685   5.005   2.768  2.4914  1.4305 -0.6389
  108MOL   H34141215   6.912   4.795   2.555 -0.4932  1.0619  2.5397
  108MOL   H34241216   6.882   4.870   2.390  0.2202  0.7807  0.3853
  108MOL   H34341217   6.759   4.794   2.463  1.5894 -3.1118  1.0641
  108MOL   C34441218   7.220   5.076   2.690 -0.0616 -0.3672 -0.2481
  108MOL   C34541219   7.259   5.058   2.840 -0.5227 -0.4335 -0.2877
  108MOL   C34641220   7.143   5.001   2.923 -0.4313 -0.1247 -0.0325
  108MOL   O34741221   7.043   4.944   2.875  0.5232  0.2002 -0.3228
  108MOL   N34841222   7.164   5.012   3.057 -0.2106 -0.4339 -0.4191
  108MOL   C34941223   7.082   4.953   3.164  0.1349  0.1817 -0.3877
  108MOL   C35041224   7.160   4.833   3.213 -0.3931  0.1336  0.0392
  108MOL   C35141225   7.062   5.074   3.263 -0.4867 -0.3588  0.2996
  108MOL   H35241226   7.305   5.108   2.630 -0.5025  0.2054 -0.5772
  108MOL   H35341227   7.192   4.980   2.646 -0.9942  0.0875 -0.6632
  108MOL   H35441228   7.272   5.158   2.882 -1.2646  0.3397 -1.8678
  108MOL   H35541229   7.259   5.043   3.075  0.2791 -1.2090 -1.6668
  108MOL   H35641230   6.978   4.928   3.142 -1.1628  2.5345  2.5293
  108MOL   H35741231   7.173   4.766   3.128 -1.7706  1.5687 -1.3204
  108MOL   H35841232   7.262   4.859   3.241  0.1163 -0.0200 -1.6078
  108MOL   H35941233   7.102   4.781   3.289  0.8691 -0.2483  0.7662
  108MOL   H36041234   7.007   5.049   3.354  0.8587 -0.4698  1.0979
  108MOL   H36141235   7.161   5.107   3.295  0.2820 -3.1134  0.9502
  108MOL   H36241236   7.011   5.153   3.208 -0.5895  0.4211  1.4914
  108MOL   C36341237   7.397   4.982   2.843 -0.8316  0.6185  0.6946
  108MOL   C36441238   7.528   5.058   2.888 -0.2093  0.7189  0.1498
  108MOL   C36541239   7.527   5.092   3.039  0.3332 -0.6828 -0.1221
  108MOL   O36641240   7.435   5.065   3.114  0.1833  0.1617  0.3183
  108MOL   N36741241   7.626   5.175   3.080  0.2627 -0.0022 -0.1681
  108MOL   C36841242   7.636   5.262   3.202 -0.4530 -0.2287 -0.0844
  108MOL   C36941243   7.687   5.184   3.322  0.1478  0.5319 -0.5003
  108MOL   C37041244   7.720   5.385   3.171  0.3009 -0.0381 -0.5658
  108MOL   H37141245   7.420   4.940   2.746  0.6856  0.1399  1.2528
  108MOL   H37241246   7.397   4.885   2.893  0.3383  0.9359  1.3198
  108MOL   H37341247   7.541   5.148   2.829 -0.0253 -0.2839 -1.3720
  108MOL   H37441248   7.699   5.197   3.015 -1.2331 -0.0153 -1.8912
  108MOL   H37541249   7.532   5.288   3.220 -0.5361  0.3682 -1.3635
  108MOL   H37641250   7.701   5.240   3.414  2.9181 -1.1235  0.1057
  108MOL   H37741251   7.600   5.121   3.342  0.7611 -0.4421 -0.9161
  108MOL   H37841252   7.775   5.124   3.301 -1.3804 -1.0621 -2.6542
  108MOL   H37941253   7.821   5.364   3.136  0.2979  1.8797 -1.8163
  108MOL   H38041254   7.679   5.448   3.092  0.1757  1.1224  0.4146
  108MOL   H38141255   7.724   5.450   3.258 -1.4893  0.0338 -0.5217
  108MOL   H38241256   7.612   4.990   2.880  0.0413  1.0784 -0.2756
  109MOL     C141257   0.272   5.408   3.288 -0.6298  0.3596  0.1149
  109MOL     C241258   0.342   5.321   3.185 -0.0397 -0.5712  0.1723
  109MOL     C341259   0.482   5.340   3.132  0.2925 -0.3706 -0.5017
  109MOL     O441260   0.580   5.326   3.208 -0.0492 -0.4250  0.1959
  109MOL     N541261   0.501   5.374   3.005 -0.1710 -0.4180 -0.4225
  109MOL     C641262   0.625   5.414   2.938  0.3422  0.1200 -0.2318
  109MOL     C741263   0.607   5.400   2.784  0.1955 -0.2475  0.0911
  109MOL     C841264   0.669   5.556   2.977 -0.8858 -0.0800  0.3313
  109MOL     H941265   0.283   5.516   3.287 -2.4678  0.5750  1.1331
  109MOL    H1041266   0.300   5.385   3.391 -2.1683  0.6321  0.6080
  109MOL    H1141267   0.281   5.341   3.097  1.4694  1.2314 -0.4791
  109MOL    H1241268   0.419   5.399   2.952  0.3630  0.1740 -0.9784
  109MOL    H1341269   0.708   5.350   2.968 -0.1836 -0.5239 -0.1505
  109MOL    H1441270   0.519   5.445   2.738  0.5438 -0.1816 -0.5139
  109MOL    H1541271   0.606   5.294   2.760  1.5857 -0.4317  0.7947
  109MOL    H1641272   0.694   5.443   2.733  1.6736 -2.1799  0.8953
  109MOL    H1741273   0.572   5.606   2.981  0.6650  3.0419  0.5924
  109MOL    H1841274   0.716   5.567   3.074  0.6457  1.0651 -0.5059
  109MOL    H1941275   0.738   5.604   2.907  0.1412  0.9701  2.0371
  109MOL    H2041276   0.164   5.391   3.283 -0.7416  1.2447 -0.5856
  109MOL    C2141277   0.329   5.169   3.200 -0.5405 -0.9796  0.3260
  109MOL    C2241278   0.356   5.089   3.066  0.6169 -0.4942 -0.6526
  109MOL    C2341279   0.240   5.115   2.967 -0.8054  0.4092  0.4420
  109MOL    O2441280   0.128   5.073   2.991 -0.0041 -0.5458  0.0705
  109MOL    N2541281   0.276   5.185   2.859 -0.0317 -0.1709 -0.3200
  109MOL    C2641282   0.195   5.219   2.743  0.2329  0.9568  0.1258
  109MOL    C2741283   0.292   5.225   2.627 -0.1485 -0.0327 -0.0232
  109MOL    C2841284   0.117   5.351   2.755  0.1181 -0.4558 -0.0539
  109MOL    H2941285   0.230   5.142   3.237 -0.7690  0.1895  0.5711
  109MOL    H3041286   0.400   5.134   3.275  2.0022  0.6754 -1.2789
  109MOL    H3141287   0.456   5.117   3.035 -0.6123  2.7820 -1.8422
  109MOL    H3241288   0.370   5.219   2.843  0.1132 -0.1656  0.5326
  109MOL    H3341289   0.129   5.134   2.729 -0.5960  1.7689 -0.9658
  109MOL    H3441290   0.245   5.274   2.543 -0.2435 -0.2978 -0.1266
  109MOL    H3541291   0.316   5.123   2.594 -1.6389 -0.7769  1.1190
  109MOL    H3641292   0.384   5.274   2.658  0.9866 -1.1343 -1.5720
  109MOL    H3741293   0.052   5.376   2.671  0.3857 -2.8905 -1.0217
  109MOL    H3841294   0.057   5.351   2.846  1.6406  2.4034  1.0402
  109MOL    H3941295   0.185   5.437   2.760 -0.9896  0.5474 -1.7279
  109MOL    C4041296   0.360   4.932   3.099 -0.2989  0.1773 -0.1673
  109MOL    C4141297   0.408   4.833   2.988  0.0424 -0.2835  0.1751
  109MOL    C4241298   0.559   4.859   2.963 -0.0518  0.4312 -1.0467
  109MOL    O4341299   0.590   4.891   2.853  0.2705 -0.4526 -0.5135
  109MOL    N4441300   0.650   4.855   3.065  0.0239  0.0452  0.5052
  109MOL    C4541301   0.790   4.893   3.041 -0.4254 -0.5238  0.0091
  109MOL    C4641302   0.807   5.047   3.052 -0.3014 -0.3811 -0.0622
  109MOL    C4741303   0.883   4.820   3.136 -0.3999 -0.7784 -0.2745
  109MOL    H4841304   0.258   4.910   3.129 -0.7783  1.2409 -0.9754
  109MOL    H4941305   0.421   4.916   3.188  0.2479 -1.7039 -0.8437
  109MOL    H5041306   0.408   4.736   3.039  0.3490  0.2154  1.1444
  109MOL    H5141307   0.617   4.820   3.154  1.9810 -1.3197  0.7288
  109MOL    H5241308   0.822   4.859   2.943 -0.4080 -1.2612  0.2711
  109MOL    H5341309   0.760   5.078   3.146 -0.6187 -1.0640  0.0130
  109MOL    H5441310   0.769   5.109   2.971  0.4827  0.0962 -0.0665
  109MOL    H5541311   0.915   5.060   3.051  0.0243 -2.6536  0.9862
  109MOL    H5641312   0.862   4.714   3.140 -3.4039 -0.3786 -3.2473
  109MOL    H5741313   0.868   4.867   3.233 -1.4178  0.2341 -0.9029
  109MOL    H5841314   0.983   4.843   3.097 -0.6004 -0.1311 -0.4238
  109MOL    C5941315   0.320   4.824   2.859  0.2133  0.0309 -0.0131
  109MOL    C6041316   0.369   4.705   2.765 -0.2545  0.2560  0.0818
  109MOL    C6141317   0.344   4.744   2.623  0.1093  0.1540 -0.3012
  109MOL    O6241318   0.227   4.758   2.590  0.0865  0.2979 -0.4861
  109MOL    N6341319   0.456   4.751   2.547  0.4042 -0.4998 -0.1776
  109MOL    C6441320   0.470   4.773   2.411 -0.4390  0.3266 -0.1319
  109MOL    C6541321   0.448   4.924   2.363 -0.1606 -0.4646 -0.6433
  109MOL    C6641322   0.608   4.720   2.361  0.5386 -0.3319  0.3647
  109MOL    H6741323   0.214   4.817   2.883  0.5750  0.9078  1.8969
  109MOL    H6841324   0.329   4.916   2.800 -0.5412  0.2551  0.2144
  109MOL    H6941325   0.477   4.691   2.779 -0.3512 -1.0924 -0.4833
  109MOL    H7041326   0.534   4.743   2.611 -1.4632  1.9875  2.5566
  109MOL    H7141327   0.395   4.716   2.356  1.8151 -2.5256 -0.4166
  109MOL    H7241328   0.513   4.999   2.408 -2.2303 -0.3789  2.2847
  109MOL    H7341329   0.472   4.928   2.256  0.4407  0.7064 -0.4687
  109MOL    H7441330   0.345   4.956   2.381 -0.6271 -2.8214  1.0752
  109MOL    H7541331   0.626   4.616   2.386  1.6482  0.4641  3.1752
  109MOL    H7641332   0.612   4.716   2.252  1.5675 -0.5584  0.4010
  109MOL    H7741333   0.694   4.782   2.387 -0.9938  1.6729  0.8055
  109MOL    C7841334   0.303   4.562   2.801 -0.9216  0.0475  0.1777
  109MOL    C7941335   0.361   4.450   2.709 -1.1674  0.3642 -0.3721
  109MOL    C8041336   0.501   4.397   2.752  0.6410 -0.1469 -0.9338
  109MOL    O8141337   0.521   4.330   2.853  0.1802 -0.2189 -0.0123
  109MOL    N8241338   0.606   4.439   2.681  0.5180  0.3014 -0.2607
  109MOL    C8341339   0.744   4.408   2.707  0.4110 -0.3340  0.0991
  109MOL    C8441340   0.824   4.354   2.593  0.0237  0.3536  1.0435
  109MOL    C8541341   0.813   4.537   2.760  0.0237  0.4095  0.6960
  109MOL    H8641342   0.196   4.572   2.784 -0.9125  0.0088  0.0971
  109MOL    H8741343   0.329   4.535   2.903 -0.1474  0.0120 -0.0230
  109MOL    H8841344   0.390   4.493   2.614  0.2274  1.6122  0.5986
  109MOL    H8941345   0.584   4.477   2.590  1.5197 -0.5314 -0.8494
  109MOL    H9041346   0.741   4.331   2.784  1.7895  0.3274  0.8469
  109MOL    H9141347   0.925   4.329   2.626  0.9589  0.2758 -1.7482
  109MOL    H9241348   0.779   4.261   2.557 -0.3631  1.1476 -0.5541
  109MOL    H9341349   0.816   4.438   2.524 -0.0218  0.0017  0.6203
  109MOL    H9441350   0.907   4.515   2.810  0.1873 -0.9638 -0.2023
  109MOL    H9541351   0.755   4.571   2.846 -0.5954 -0.0784  0.4752
  109MOL    H9641352   0.823   4.619   2.689  2.9751  0.6663  1.3210
  109MOL    C9741353   0.266   4.333   2.693  0.0246 -0.1467 -0.5208
  109MOL    C9841354   0.235   4.283   2.549 -0.3623  0.1954  0.3319
  109MOL    C9941355   0.361   4.220   2.479 -0.0284  0.3129 -0.3423
  109MOL   O10041356   0.454   4.291   2.435 -0.1048  0.1662  0.1021
  109MOL   N10141357   0.365   4.087   2.474 -0.1867 -0.1470  0.4122
  109MOL   C10241358   0.461   4.014   2.396 -0.3420  0.3936  0.3182
  109MOL   C10341359   0.606   4.009   2.444  0.1910  0.0169 -0.4437
  109MOL   C10441360   0.405   3.876   2.361 -0.3978  0.0099  0.3403
  109MOL   H10541361   0.174   4.365   2.743  1.1367  2.7129 -0.2033
  109MOL   H10641362   0.302   4.256   2.761 -1.6712 -0.9657 -0.5482
  109MOL   H10741363   0.161   4.203   2.554  0.3779 -0.5537 -0.6632
  109MOL   H10841364   0.284   4.033   2.502 -0.4575 -0.2031 -0.4566
  109MOL   H10941365   0.473   4.061   2.299 -0.0842 -1.5444 -0.6045
  109MOL   H11041366   0.673   3.943   2.389  0.9408  0.6870 -0.3514
  109MOL   H11141367   0.658   4.105   2.443 -1.1021  0.7166 -1.8477
  109MOL   H11241368   0.603   3.976   2.548 -1.0283  0.6450 -0.2714
  109MOL   H11341369   0.305   3.883   2.316 -0.5555 -0.4432  0.6251
  109MOL   H11441370   0.395   3.818   2.452 -2.8898  0.3845  0.3458
  109MOL   H11541371   0.472   3.817   2.299 -2.0604 -0.5918 -0.9273
  109MOL   C11641372   0.178   4.395   2.460  0.3752 -0.5303 -0.2456
  109MOL   C11741373   0.027   4.421   2.484 -0.4489  0.7401  0.3975
  109MOL   C11841374   7.779   4.289   2.459  0.1855  0.0958 -0.7166
  109MOL   O11941375   7.760   4.257   2.340  0.3461 -0.1304 -0.0767
  109MOL   N12041376   7.747   4.210   2.564  0.4991 -0.4560 -0.4800
  109MOL   C12141377   7.685   4.078   2.558 -1.0933 -0.3223 -0.0474
  109MOL   C12241378   7.750   3.979   2.654  0.4278  0.0116 -0.8310
  109MOL   C12341379   7.530   4.087   2.581 -0.0484  0.6538 -0.3838
  109MOL   H12441380   0.194   4.379   2.354 -0.7649 -0.7028 -0.3991
  109MOL   H12541381   0.238   4.485   2.470 -0.5871  0.2254 -1.2118
  109MOL   H12641382   0.014   4.462   2.584 -2.1807 -0.4377  0.6613
  109MOL   H12741383   7.786   4.242   2.652  0.3489 -0.8065 -0.2871
  109MOL   H12841384   7.709   4.044   2.457 -0.3532 -0.2657  0.1117
  109MOL   H12941385   7.831   3.918   2.615 -0.1075 -2.9631  2.4926
  109MOL   H13041386   7.686   3.899   2.693 -0.1207  0.1022 -1.5209
  109MOL   H13141387   7.790   4.028   2.742 -2.4714  0.3618  0.3446
  109MOL   H13241388   7.486   3.996   2.542  0.0524  0.5858 -0.3370
  109MOL   H13341389   7.512   4.104   2.688  3.0888 -1.6415  0.5874
  109MOL   H13441390   7.489   4.169   2.522  0.6950  0.4360 -1.2114
  109MOL   C13541391   7.819   4.547   2.400 -0.1411 -0.2571  0.3504
  109MOL   C13641392   0.001   4.531   2.244  0.0148 -0.1872 -0.0807
  109MOL   C13741393   7.709   4.564   2.175 -0.2598  0.2796 -0.1426
  109MOL   O13841394   7.696   4.678   2.137  0.9157  0.4435  0.6928
  109MOL   N13941395   7.618   4.466   2.148 -1.0811 -0.0258 -0.2454
  109MOL   C14041396   7.505   4.475   2.058 -0.2979  0.2295  0.2112
  109MOL   C14141397   7.382   4.413   2.120  0.0486 -0.1952 -0.1108
  109MOL   C14241398   7.543   4.422   1.924  0.2759  0.4876 -0.0046
  109MOL   H14341399   0.041   4.633   2.433  2.6786 -1.7933 -0.4773
  109MOL   H14441400   7.719   4.578   2.430 -0.0814  1.6349 -1.2659
  109MOL   H14541401   0.027   4.430   2.213  0.1967 -0.6389  1.4909
  109MOL   H14641402   7.642   4.379   2.195 -3.2039 -0.8299 -0.6253
  109MOL   H14741403   7.462   4.573   2.041 -4.4382 -1.6558 -0.9560
  109MOL   H14841404   7.369   4.474   2.210  0.3521  2.7939 -2.0400
  109MOL   H14941405   7.292   4.427   2.060  0.6936  0.7329 -0.8650
  109MOL   H15041406   7.399   4.309   2.150  2.4316 -0.1990 -1.3228
  109MOL   H15141407   7.454   4.385   1.872  1.9743 -1.0800 -1.8779
  109MOL   H15241408   7.609   4.336   1.928  0.0278  0.3189  0.4428
  109MOL   H15341409   7.569   4.509   1.864 -1.3511  0.5240 -0.6967
  109MOL   C15441410   0.119   4.614   2.192  0.2866  1.0230  0.0585
  109MOL   C15541411   0.176   4.565   2.052 -0.6286  0.2563 -0.3824
  109MOL   C15641412   0.334   4.590   2.053  0.6338 -0.0640 -0.7184
  109MOL   O15741413   0.375   4.702   2.082 -0.2802  0.1672 -0.3441
  109MOL   N15841414   0.413   4.484   2.041  0.1287 -0.3529  0.3452
  109MOL   C15941415   0.554   4.494   2.031  0.3947  0.4573  0.0871
  109MOL   C16041416   0.604   4.436   1.902 -0.2924  0.1771  0.6897
  109MOL   C16141417   0.613   4.419   2.154 -0.2635 -0.0206 -0.1998
  109MOL   H16241418   0.201   4.601   2.263 -0.3528 -0.0516  0.6021
  109MOL   H16341419   0.101   4.722   2.198  0.4685  1.0239  0.6185
  109MOL   H16441420   0.164   4.457   2.044 -0.3580  0.2806 -1.1909
  109MOL   H16541421   0.373   4.391   2.045  2.2138 -1.2633  0.3111
  109MOL   H16641422   0.587   4.598   2.031 -0.6502  0.8054 -1.2370
  109MOL   H16741423   0.566   4.497   1.820  0.1408 -1.7109 -0.9453
  109MOL   H16841424   0.713   4.436   1.904 -0.2974  0.8473  1.6444
  109MOL   H16941425   0.575   4.333   1.884 -1.2402  0.3791  1.0440
  109MOL   H17041426   0.718   4.423   2.182 -0.5175 -1.8847  1.1016
  109MOL   H17141427   0.595   4.313   2.135  1.5846 -0.4472  0.3575
  109MOL   H17241428   0.563   4.440   2.249  0.5653  0.3680  0.1571
  109MOL   C17341429   0.104   4.633   1.934 -0.3039 -0.1291 -0.0291
  109MOL   C17441430   0.152   4.606   1.791 -0.4062 -0.6524  0.4262
  109MOL   C17541431   0.141   4.463   1.745  0.2469  0.2063 -0.2616
  109MOL   O17641432   0.036   4.397   1.769  0.0505  0.4398  0.7063
  109MOL   N17741433   0.248   4.415   1.687 -0.3857 -0.6021  0.3482
  109MOL   C17841434   0.264   4.303   1.606  0.3224 -0.1401 -0.3807
  109MOL   C17941435   0.374   4.214   1.665  0.5718  0.1153 -0.0253
  109MOL   C18041436   0.302   4.351   1.465  0.1536  0.3119  0.2449
  109MOL   H18141437   0.099   4.739   1.960  1.5292 -0.2448  0.8349
  109MOL   H18241438   7.833   4.612   1.939 -0.0835 -1.1129  0.7966
  109MOL   H18341439   0.258   4.632   1.787 -1.0443  2.2145  0.4992
  109MOL   H18441440   0.330   4.474   1.682  0.2100 -1.5544 -2.6284
  109MOL   H18541441   0.168   4.250   1.606 -0.0626  0.5559 -0.7271
  109MOL   H18641442   0.456   4.277   1.698  0.2025 -0.0316  1.1822
  109MOL   H18741443   0.421   4.138   1.603 -0.5548 -0.7130  0.1111
  109MOL   H18841444   0.332   4.153   1.745  1.6612 -3.7668 -2.2840
  109MOL   H18941445   0.401   4.396   1.459 -0.0601  1.1106  2.4385
  109MOL   H19041446   0.228   4.421   1.426 -0.8496 -0.2521  1.1331
  109MOL   H19141447   0.304   4.261   1.404 -0.6202  0.8779 -0.6418
  109MOL   C19241448   0.092   4.717   1.690 -0.6738  0.2785 -0.0849
  109MOL   C19341449   0.150   4.737   1.550 -0.4111 -0.1513  0.3747
  109MOL   C19441450   0.304   4.770   1.552  0.0686  0.4404 -0.0246
  109MOL   O19541451   0.355   4.854   1.627 -0.3378  0.2113  0.5748
  109MOL   N19641452   0.383   4.706   1.459 -0.5121 -0.4214 -0.0900
  109MOL   C19741453   0.527   4.710   1.441  0.1934 -0.0457  0.1944
  109MOL   C19841454   0.605   4.610   1.522 -0.1087 -0.6087  0.1974
  109MOL   C19941455   0.561   4.697   1.292  0.0993 -0.1781  0.2221
  109MOL   H20041456   0.081   4.817   1.733  1.2637  1.0682 -1.3486
  109MOL   H20141457   7.821   4.704   1.676 -0.3949 -1.7871 -0.4084
  109MOL   H20241458   0.138   4.638   1.505  1.4753 -0.2166 -0.0128
  109MOL   H20341459   0.332   4.662   1.384 -1.3352 -1.3638  0.9933
  109MOL   H20441460   0.561   4.809   1.473 -2.3395  1.1343 -0.6361
  109MOL   H20541461   0.545   4.541   1.581 -2.2292  0.4406 -0.6791
  109MOL   H20641462   0.660   4.660   1.601  1.7423 -3.8887  1.0596
  109MOL   H20741463   0.683   4.563   1.461 -1.8302 -4.3704  0.7333
  109MOL   H20841464   0.664   4.721   1.266  0.0305 -0.0139  0.0985
  109MOL   H20941465   0.493   4.762   1.237 -0.8510  0.7108  2.3954
  109MOL   H21041466   0.535   4.594   1.267 -1.7050  0.4925 -0.7420
  109MOL   C21141467   0.070   4.836   1.467  0.0008  0.2682 -0.4374
  109MOL   C21241468   0.111   4.857   1.315 -0.2030 -1.0518 -0.0611
  109MOL   C21341469   0.074   4.735   1.235  0.1277 -0.2912 -0.4881
  109MOL   O21441470   0.159   4.653   1.199 -0.1819 -0.2344  0.5086
  109MOL   N21541471   7.782   4.699   1.221 -0.0401  0.6837  0.8598
  109MOL   C21641472   7.718   4.575   1.198 -0.3373  0.0747  0.1576
  109MOL   C21741473   7.748   4.464   1.301  0.0088 -0.4984  0.1341
  109MOL   C21841474   7.753   4.524   1.053  1.1849  0.0625  0.5402
  109MOL   H21941475   0.086   4.931   1.518 -0.3479  0.1906 -0.1787
  109MOL   H22041476   7.801   4.811   1.478  0.4768 -1.9991 -0.7877
  109MOL   H22141477   0.219   4.860   1.307 -0.0730  2.0724  2.0833
  109MOL   H22241478   7.719   4.770   1.256 -1.3454  0.0206 -0.0992
  109MOL   H22341479   7.614   4.608   1.204  0.4218  2.3536  1.1133
  109MOL   H22441480   7.684   4.379   1.278 -2.8053  1.3936  0.6601
  109MOL   H22541481   0.010   4.417   1.307  1.7056  2.9155  0.3791
  109MOL   H22641482   7.713   4.494   1.400 -1.8913 -0.0155 -0.6562
  109MOL   H22741483   0.022   4.498   1.051  2.1997  3.8466  0.3698
  109MOL   H22841484   7.741   4.596   0.971 -0.9011 -1.9247 -0.9451
  109MOL   H22941485   7.695   4.436   1.026  1.4148 -0.3205  1.3015
  109MOL   C23041486   0.047   4.988   1.251 -0.0668 -0.9007  0.6192
  109MOL   C23141487   0.118   5.035   1.124 -0.4834  0.3595 -0.0260
  109MOL   C23241488   0.037   5.152   1.051  0.0682 -0.3878  0.1507
  109MOL   O23341489   7.786   5.215   1.110  0.1538  0.6549 -0.4200
  109MOL   N23441490   0.043   5.158   0.919 -1.0239 -0.1968 -0.1592
  109MOL   C23541491   7.815   5.250   0.823 -0.1214  0.5962 -0.4217
  109MOL   C23641492   0.038   5.228   0.681 -0.2114 -0.0568  0.2182
  109MOL   C23741493   7.666   5.232   0.823  0.2469 -0.4908 -0.0421
  109MOL   H23841494   0.048   5.077   1.315 -0.6334 -0.7364  0.4027
  109MOL   H23941495   7.778   4.974   1.228  0.1363 -1.0967 -0.1842
  109MOL   H24041496   0.122   4.943   1.064  2.1054  0.5424 -0.2051
  109MOL   H24141497   0.115   5.100   0.879  0.8745  1.6160  0.5624
  109MOL   H24241498   7.834   5.352   0.855  2.0441 -0.2923  1.3264
  109MOL   H24341499   0.017   5.135   0.627 -0.6604  1.1877 -1.8274
  109MOL   H24441500   7.828   5.310   0.626 -3.4645 -1.1315  1.2234
  109MOL   H24541501   0.145   5.249   0.677  0.0929 -1.0687  2.5134
  109MOL   H24641502   7.637   5.141   0.770 -0.4034 -1.3321  1.7189
  109MOL   H24741503   7.618   5.310   0.765 -0.9935 -1.3834 -0.2280
  109MOL   H24841504   7.629   5.214   0.923  1.4757  1.1363  0.7323
  109MOL   C24941505   0.269   5.083   1.146  0.7481 -0.8648 -0.5636
  109MOL   C25041506   0.350   5.106   1.016 -0.0991  0.0236 -0.7955
  109MOL   C25141507   0.332   4.988   0.921 -0.0901  0.3831 -0.0980
  109MOL   O25241508   0.261   5.005   0.822  0.2705 -0.1040  0.2112
  109MOL   N25341509   0.383   4.866   0.952  0.7587 -0.4233  0.6458
  109MOL   C25441510   0.375   4.746   0.868 -0.1218  1.2055 -0.3856
  109MOL   C25541511   0.463   4.626   0.931  0.1915  0.4968 -0.4384
  109MOL   C25641512   0.229   4.701   0.841  0.1700  0.0887  0.0534
  109MOL   H25741513   0.319   5.012   1.212  0.9070  2.4522  3.0420
  109MOL   H25841514   0.254   5.171   1.208  2.0909 -0.1532 -1.2454
  109MOL   H25941515   0.311   5.196   0.969  1.3644  0.5410 -1.0222
  109MOL   H26041516   0.413   4.852   1.047  0.8500 -0.7006  0.5754
  109MOL   H26141517   0.421   4.781   0.775  1.6557 -2.2367 -0.8453
  109MOL   H26241518   0.426   4.593   1.028  2.0013 -0.7318 -0.1433
  109MOL   H26341519   0.464   4.536   0.871 -1.7719 -0.7015  1.2543
  109MOL   H26441520   0.570   4.646   0.929  0.3857 -0.6002 -1.5215
  109MOL   H26541521   0.163   4.782   0.809 -1.6546 -0.9115  1.1562
  109MOL   H26641522   0.224   4.634   0.756 -1.2615  1.4304 -0.9466
  109MOL   H26741523   0.182   4.657   0.930  0.8215  2.0896  1.4159
  109MOL   C26841524   0.500   5.139   1.037  0.4774  0.5378  0.2608
  109MOL   C26941525   0.582   5.201   0.927  0.3542 -0.3143  0.1057
  109MOL   C27041526   0.685   5.303   0.982 -0.2958 -0.7219 -0.3541
  109MOL   O27141527   0.691   5.410   0.931  1.0421 -0.0108 -0.4935
  109MOL   N27241528   0.761   5.257   1.084  0.1000 -0.3030  0.0022
  109MOL   C27341529   0.847   5.351   1.156 -0.4241 -0.3578 -0.5292
  109MOL   C27441530   0.812   5.361   1.311  0.4341 -0.5215 -0.4659
  109MOL   C27541531   0.995   5.307   1.141 -0.0610  0.3744  0.0251
  109MOL   H27641532   0.500   5.206   1.123  0.5727 -0.0625  0.7327
  109MOL   H27741533   0.541   5.047   1.079  0.5325  0.5972  0.3390
  109MOL   H27841534   0.514   5.261   0.867  1.0986  1.2485  0.8012
  109MOL   H27941535   0.735   5.166   1.118 -0.1994  0.6210  2.3366
  109MOL   H28041536   0.833   5.452   1.118  0.3790  0.4200  1.1948
  109MOL   H28141537   0.841   5.269   1.362 -2.6890 -0.3126  1.8435
  109MOL   H28241538   0.870   5.435   1.366  1.3352 -1.6844  0.1658
  109MOL   H28341539   0.709   5.389   1.333  0.6300  0.5869 -0.9168
  109MOL   H28441540   0.999   5.209   1.189  1.2415 -0.2714 -1.3563
  109MOL   H28541541   1.019   5.300   1.035 -0.1600 -1.7507  0.1228
  109MOL   H28641542   1.051   5.370   1.208  1.4403 -0.5861 -0.3007
  109MOL   C28741543   0.637   5.089   0.831 -0.0971  0.1326  0.4479
  109MOL   C28841544   0.644   5.144   0.682 -0.0600  0.2822 -0.5461
  109MOL   C28941545   0.569   5.054   0.590  0.4907 -0.0512  0.0832
  109MOL   O29041546   0.587   4.933   0.586 -0.6403  0.0674  0.1012
  109MOL   N29141547   0.463   5.104   0.522  0.4227 -0.7063 -0.2961
  109MOL   C29241548   0.371   5.034   0.439 -0.5246 -0.8164 -0.5283
  109MOL   C29341549   0.270   4.947   0.513  0.6361 -0.2639  0.0838
  109MOL   C29441550   0.297   5.133   0.343 -0.4986 -0.1057 -0.6184
  109MOL   H29541551   0.732   5.045   0.862  0.1193 -0.1343 -0.5839
  109MOL   H29641552   0.570   5.003   0.837  0.2210 -0.0535  1.3797
  109MOL   H29741553   0.593   5.240   0.677  2.2911  1.7287  1.6577
  109MOL   H29841554   0.438   5.201   0.541  3.8183  0.3508 -0.9359
  109MOL   H29941555   0.436   4.971   0.378 -0.9210 -0.8308 -0.9314
  109MOL   H30041556   0.331   4.899   0.590  1.6381  0.3622 -0.3232
  109MOL   H30141557   0.182   4.997   0.553 -0.9362 -2.3820 -0.6028
  109MOL   H30241558   0.227   4.866   0.454  0.1484 -0.1393  0.2665
  109MOL   H30341559   0.249   5.215   0.397  1.6971 -0.0954  1.3649
  109MOL   H30441560   0.373   5.173   0.276 -0.2481 -1.0345 -0.8859
  109MOL   H30541561   0.217   5.080   0.291 -2.0812 -0.8199  2.4304
  109MOL   C30641562   0.788   5.178   0.627  0.0663  0.0226  0.4148
  109MOL   C30741563   0.835   5.326   0.652  0.0763 -0.0192  0.3828
  109MOL   C30841564   0.741   5.427   0.580 -0.8550  0.5106 -0.5030
  109MOL   O30941565   0.726   5.418   0.458  0.3251 -0.3661 -0.3544
  109MOL   N31041566   0.684   5.517   0.662  0.1972  0.4104  0.4107
  109MOL   C31141567   0.573   5.603   0.641  0.2256  0.0013 -0.0702
  109MOL   C31241568   0.598   5.693   0.514  0.5947  0.2468 -0.6294
  109MOL   C31341569   0.435   5.527   0.636  0.1485  0.2097  0.3965
  109MOL   H31441570   0.854   5.108   0.678  1.6873  1.3835  0.2302
  109MOL   H31541571   0.784   5.146   0.523 -1.4538  1.3005  0.0716
  109MOL   H31641572   0.846   5.353   0.757  2.0258 -0.7937  0.3996
  109MOL   H31741573   0.702   5.479   0.754  0.9658 -1.4256 -0.4695
  109MOL   H31841574   0.575   5.680   0.719  1.7882  0.9952 -1.0399
  109MOL   H31941575   0.595   5.628   0.426  0.9547 -0.4099 -0.1546
  109MOL   H32041576   0.689   5.753   0.505  0.9661 -0.3979 -1.2477
  109MOL   H32141577   0.516   5.762   0.493 -0.0011 -1.5450 -4.8369
  109MOL   H32241578   0.417   5.472   0.544  0.8375  0.2828  0.2172
  109MOL   H32341579   0.353   5.595   0.658 -0.8253 -0.3813 -1.2749
  109MOL   H32441580   0.431   5.462   0.723  0.5365  0.6715  0.7665
  109MOL   C32541581   0.974   5.343   0.594 -0.7466  0.7288  0.2324
  109MOL   C32641582   1.039   5.489   0.593  0.3162  0.1454 -0.5730
  109MOL   C32741583   1.059   5.549   0.736  0.0010  0.6129  0.2681
  109MOL   O32841584   1.096   5.483   0.832  0.4633 -0.1414 -0.3504
  109MOL   N32941585   1.057   5.682   0.745  0.5443  0.2198 -0.3485
  109MOL   C33041586   1.090   5.769   0.855  0.4764 -0.0667 -0.0482
  109MOL   C33141587   0.970   5.754   0.960 -0.6143 -0.6307  0.6458
  109MOL   C33241588   1.110   5.907   0.795 -0.1457 -0.3113  0.1237
  109MOL   H33341589   0.977   5.291   0.499 -1.1047  0.7913  0.1876
  109MOL   H33441590   1.050   5.284   0.647  0.8848  1.4328 -1.2698
  109MOL   H33541591   0.983   5.566   0.540  1.9253  1.1509 -0.8435
  109MOL   H33641592   1.027   5.734   0.664 -0.0643 -0.0573 -0.3039
  109MOL   H33741593   1.183   5.734   0.901 -0.7664 -3.0790  0.2932
  109MOL   H33841594   0.966   5.654   1.003 -3.0176 -1.2102 -0.8092
  109MOL   H33941595   0.991   5.832   1.033  2.6644  1.8361 -2.7280
  109MOL   H34041596   0.873   5.769   0.912 -1.0378 -1.3047  1.2810
  109MOL   H34141597   1.205   5.912   0.742  0.8321  0.4041  1.9188
  109MOL   H34241598   1.119   5.976   0.878 -3.8434 -0.6600  0.9149
  109MOL   H34341599   1.028   5.934   0.728 -0.0543  2.1843  0.9786
  109MOL   C34441600   1.181   5.476   0.530  0.3912 -0.3546  0.5753
  109MOL   C34541601   1.197   5.413   0.391  0.2038 -0.1080  0.4527
  109MOL   C34641602   1.150   5.517   0.287 -0.0658  0.5241  0.4287
  109MOL   O34741603   1.192   5.635   0.293 -0.3049 -0.5718 -0.2158
  109MOL   N34841604   1.070   5.478   0.187 -0.0092  0.0504 -0.1172
  109MOL   C34941605   1.035   5.568   0.076  0.5747  0.3551  0.2552
  109MOL   C35041606   1.130   5.556   7.795  0.5808 -0.6614 -0.0728
  109MOL   C35141607   0.895   5.527   0.036  0.1487 -0.0150  0.4925
  109MOL   H35241608   1.228   5.413   0.606  2.0042 -0.0841 -0.1890
  109MOL   H35341609   1.222   5.576   0.543 -2.7494  0.9264  1.2190
  109MOL   H35441610   1.138   5.321   0.391  1.6044 -1.0520  2.1470
  109MOL   H35541611   1.038   5.383   0.180  1.6869 -0.6752  1.6802
  109MOL   H35641612   1.033   5.669   0.118  1.0703 -0.4493  2.2746
  109MOL   H35741613   1.233   5.587   7.807  0.9371 -1.8886  0.1448
  109MOL   H35841614   1.154   5.460   7.748  1.3042  0.1194 -1.3026
  109MOL   H35941615   1.097   5.617   7.711 -0.8885 -2.9739 -1.2222
  109MOL   H36041616   0.823   5.556   0.112  1.1306 -0.4655  1.6185
  109MOL   H36141617   0.874   5.577   7.778  1.4914 -0.5708 -0.1264
  109MOL   H36241618   0.885   5.420   0.015 -1.4395  0.3248 -0.6079
  109MOL   C36341619   1.342   5.387   0.359  0.0662 -0.1740 -0.3307
  109MOL   C36441620   1.375   5.241   0.323  0.6836  0.4045 -0.3085
  109MOL   C36541621   1.348   5.210   0.172 -0.5907 -0.3604  0.4904
  109MOL   O36641622   1.238   5.234   0.122  0.0729 -0.1607 -0.0563
  109MOL   N36741623   1.444   5.137   0.112 -0.1835 -0.1034  0.0536
  109MOL   C36841624   1.426   5.069   7.823  0.4917 -0.1393 -0.1992
  109MOL   C36941625   1.514   5.128   7.710  0.0090  0.0008 -0.1599
  109MOL   C37041626   1.468   4.923   0.001  0.4058  0.0910 -0.4004
  109MOL   H37141627   1.410   5.412   0.441 -1.0085  0.1545  0.4704
  109MOL   H37241628   1.384   5.450   0.281  1.2478  0.3314  0.6919
  109MOL   H37341629   1.326   5.166   0.384  1.5426  1.2445  1.4514
  109MOL   H37441630   1.525   5.114   0.169 -0.9828  2.5339  2.3699
  109MOL   H37541631   1.324   5.076   7.786  0.3273 -1.0796  0.0717
  109MOL   H37641632   1.507   5.236   7.700 -1.7984 -0.0233  0.5939
  109MOL   H37741633   1.620   5.111   7.727  0.3792  2.8624  0.6620
  109MOL   H37841634   1.486   5.085   7.614  0.2887  1.5395 -0.9381
  109MOL   H37941635   1.419   4.874   0.086  0.1053  0.6031 -0.2796
  109MOL   H38041636   1.440   4.874   7.744  1.1828 -0.1205 -0.5310
  109MOL   H38141637   1.577   4.917   0.003  0.3371 -1.4939 -0.2443
  109MOL   H38241638   1.480   5.226   0.349  0.0548 -1.2683  1.3609
  110MOL     C141639   5.689   1.219   6.550  0.0473 -0.3200  1.0559
  110MOL     C241640   5.568   1.141   6.622  0.2525 -0.0203 -0.1523
  110MOL     C341641   5.545   1.203   6.753  0.0912  0.4746 -0.1738
  110MOL     O441642   5.560   1.136   6.858  0.6639 -0.3603 -0.4430
  110MOL     N541643   5.521   1.329   6.754 -0.0400  0.6211 -0.4861
  110MOL     C641644   5.518   1.413   6.876  0.0890  0.2192  0.2200
  110MOL     C741645   5.568   1.553   6.845  0.0893  0.2562  0.6901
  110MOL     C841646   5.376   1.420   6.942  0.7312 -0.4938 -0.0916
  110MOL     H941647   5.783   1.216   6.605  0.5770 -1.2465  0.1064
  110MOL    H1041648   5.662   1.324   6.535 -1.6512 -0.8754  0.0850
  110MOL    H1141649   5.584   1.035   6.642 -0.4357 -0.0846  0.0889
  110MOL    H1241650   5.510   1.368   6.661  1.3190  0.9145 -0.5292
  110MOL    H1341651   5.592   1.380   6.949  0.6827 -1.4006 -1.0938
  110MOL    H1441652   5.547   1.620   6.928  1.5996 -0.8450  2.0034
  110MOL    H1541653   5.528   1.582   6.748 -0.6532 -2.3716  0.1783
  110MOL    H1641654   5.677   1.554   6.832  0.0978 -3.2279 -0.1843
  110MOL    H1741655   5.394   1.464   7.040  0.9023  2.6867 -1.4939
  110MOL    H1841656   5.308   1.484   6.887  1.0459  0.9164  1.1348
  110MOL    H1941657   5.341   1.318   6.958 -2.0963  0.2333 -1.3616
  110MOL    H2041658   5.713   1.172   6.455  0.2727 -0.3655  1.1348
  110MOL    C2141659   5.434   1.127   6.544 -0.0075 -0.2880 -0.1793
  110MOL    C2241660   5.405   0.982   6.489  0.2103  0.0179 -0.1470
  110MOL    C2341661   5.504   0.920   6.387  0.0443  0.4753 -0.2354
  110MOL    O2441662   5.534   0.981   6.282 -0.7759 -0.3844 -0.1939
  110MOL    N2541663   5.536   0.790   6.408 -0.3513  0.0015 -0.5451
  110MOL    C2641664   5.589   0.702   6.297 -0.2265  0.0920  0.2258
  110MOL    C2741665   5.511   0.566   6.304  0.8240 -0.5277 -0.7247
  110MOL    C2841666   5.747   0.687   6.301  0.6006  0.4405 -0.3710
  110MOL    H2941667   5.435   1.200   6.464 -2.0182 -1.4887 -1.3390
  110MOL    H3041668   5.344   1.140   6.604 -2.0349  2.7951 -3.6884
  110MOL    H3141669   5.398   0.925   6.581  0.8824 -0.3060 -0.2938
  110MOL    H3241670   5.506   0.741   6.490  0.0170 -1.0420 -1.0181
  110MOL    H3341671   5.563   0.745   6.200 -3.1061  0.8381  1.3022
  110MOL    H3441672   5.405   0.581   6.324  0.5980 -2.3437 -0.4810
  110MOL    H3541673   5.550   0.514   6.391  0.4835 -0.1046 -0.3186
  110MOL    H3641674   5.527   0.517   6.208  0.9794  3.0757 -2.6249
  110MOL    H3741675   5.783   0.645   6.395  0.3942  2.0690  0.4644
  110MOL    H3841676   5.788   0.633   6.216  2.9188 -0.3303  1.1608
  110MOL    H3941677   5.783   0.790   6.296 -1.6053  1.2879  0.6074
  110MOL    C4041678   5.262   0.983   6.430 -0.0361  0.2473  0.3472
  110MOL    C4141679   5.226   1.099   6.330  0.2799 -0.6457 -0.6530
  110MOL    C4241680   5.132   1.200   6.404 -0.5042  0.1234 -0.4076
  110MOL    O4341681   5.012   1.164   6.416  0.3683 -0.4077 -0.1055
  110MOL    N4441682   5.179   1.316   6.456 -0.2700  0.1064  0.0213
  110MOL    C4541683   5.106   1.414   6.538 -0.0224 -0.1774  0.4413
  110MOL    C4641684   5.095   1.379   6.681 -0.3207 -0.0659  0.3202
  110MOL    C4741685   5.165   1.553   6.519 -0.1541  0.2246  0.5303
  110MOL    H4841686   5.191   0.973   6.513  1.8872 -2.8958  1.7407
  110MOL    H4941687   5.246   0.885   6.384  0.1005  0.5690 -0.3869
  110MOL    H5041688   5.315   1.152   6.294  2.4575 -3.3823  0.4447
  110MOL    H5141689   5.272   1.348   6.431  0.1346 -0.9101  0.2096
  110MOL    H5241690   5.002   1.421   6.505  0.6612  0.5220 -1.6811
  110MOL    H5341691   5.193   1.359   6.726 -0.4500 -2.5641 -0.4452
  110MOL    H5441692   5.028   1.294   6.692  0.5424 -0.9007 -0.8644
  110MOL    H5541693   5.045   1.457   6.739  2.0860  2.0950 -0.4432
  110MOL    H5641694   5.199   1.568   6.416  1.0085 -2.2095  0.5311
  110MOL    H5741695   5.248   1.579   6.584 -0.0755  1.5353 -0.0630
  110MOL    H5841696   5.099   1.636   6.545  0.0482  0.8305 -0.8239
  110MOL    C5941697   5.155   1.042   6.204  0.1175  0.3412  0.2180
  110MOL    C6041698   5.250   0.971   6.103 -0.5718  0.1519 -0.2669
  110MOL    C6141699   5.320   1.077   6.019  0.6291 -0.1147 -0.7088
  110MOL    O6241700   5.275   1.101   5.906  0.2612  0.5915 -0.2196
  110MOL    N6341701   5.433   1.132   6.071  0.9710  0.0961  0.5457
  110MOL    C6441702   5.500   1.246   6.026  0.1228 -0.1298 -0.0592
  110MOL    C6541703   5.422   1.374   6.035 -0.4714 -0.2669 -0.3668
  110MOL    C6641704   5.629   1.265   6.102  0.1545  1.0490 -0.3436
  110MOL    H6741705   5.077   0.972   6.233  0.1475  0.5053  0.6996
  110MOL    H6841706   5.105   1.121   6.148 -0.4141  0.0875  0.3272
  110MOL    H6941707   5.319   0.916   6.167 -0.1781  1.4505  0.4313
  110MOL    H7041708   5.474   1.086   6.151 -0.4527 -0.0948  1.1717
  110MOL    H7141709   5.520   1.220   5.922 -0.3461 -0.2943 -0.1070
  110MOL    H7241710   5.462   1.454   5.972 -1.5999  0.4541 -0.1892
  110MOL    H7341711   5.317   1.358   6.009 -0.9085 -0.2606  1.3179
  110MOL    H7441712   5.424   1.411   6.138  2.1481  0.6778 -0.7295
  110MOL    H7541713   5.606   1.256   6.208 -0.8920 -0.0797 -0.6562
  110MOL    H7641714   5.693   1.179   6.080 -1.2396 -0.8261  2.6647
  110MOL    H7741715   5.671   1.356   6.059 -0.1577  0.9065 -0.9574
  110MOL    C7841716   5.175   0.856   6.027  0.6215 -0.7853 -1.1652
  110MOL    C7941717   5.236   0.784   5.914 -0.0782 -0.3133  0.1919
  110MOL    C8041718   5.371   0.732   5.949  0.7382 -0.6390 -0.0131
  110MOL    O8141719   5.380   0.636   6.024 -0.6478 -0.0245 -0.1460
  110MOL    N8241720   5.478   0.801   5.901  0.3437 -0.0877  0.2401
  110MOL    C8341721   5.615   0.746   5.916  0.7113 -0.1526 -0.1042
  110MOL    C8441722   5.651   0.696   5.775  0.3400 -0.1400  0.3484
  110MOL    C8541723   5.719   0.846   5.968 -0.5019 -0.4484 -0.0898
  110MOL    H8641724   5.086   0.912   5.999  0.7048  0.0385  0.1590
  110MOL    H8741725   5.155   0.781   6.104 -1.3774  1.3714  0.4671
  110MOL    H8841726   5.247   0.848   5.827 -1.0008 -2.1840 -1.3547
  110MOL    H8941727   5.468   0.882   5.842  0.1925  1.2648  2.0871
  110MOL    H9041728   5.615   0.659   5.982 -1.4999 -0.6345 -0.7034
  110MOL    H9141729   5.600   0.601   5.757 -2.0224  0.8258  1.8224
  110MOL    H9241730   5.628   0.772   5.701  1.7504  0.4296  0.4842
  110MOL    H9341731   5.759   0.683   5.772  0.2785 -0.4862 -0.4650
  110MOL    H9441732   5.722   0.934   5.904 -1.5760  2.5874  3.8465
  110MOL    H9541733   5.818   0.802   5.981 -0.3581 -0.6210 -1.6751
  110MOL    H9641734   5.695   0.894   6.063 -0.7890  0.5673 -0.6654
  110MOL    C9741735   5.143   0.669   5.860 -1.0302 -0.2690 -0.3046
  110MOL    C9841736   5.059   0.716   5.736  0.7123 -0.3450  0.2384
  110MOL    C9941737   4.964   0.828   5.775  0.4406  0.0774 -0.2133
  110MOL   O10041738   4.878   0.803   5.858  0.4700  0.2719  0.0279
  110MOL   N10141739   4.979   0.957   5.722  0.0971  0.1629 -0.3421
  110MOL   C10241740   4.903   1.081   5.764 -0.5801  0.2980  0.6006
  110MOL   C10341741   4.986   1.195   5.701  0.6005 -0.2007 -0.4678
  110MOL   C10441742   4.754   1.079   5.742 -0.1310 -0.5387  0.6159
  110MOL   H10541743   5.087   0.623   5.942  1.7267 -1.6198  0.8928
  110MOL   H10641744   5.208   0.591   5.820  0.1531 -0.7190  2.3551
  110MOL   H10741745   5.127   0.767   5.668  0.8992  1.6510  1.8862
  110MOL   H10841746   5.049   0.961   5.649  1.8275  0.9866  1.2997
  110MOL   H10941747   4.902   1.094   5.872  0.3547 -4.9536  1.3499
  110MOL   H11041748   5.088   1.186   5.736  0.3855  0.3307  0.3199
  110MOL   H11141749   4.976   1.183   5.593 -0.5564 -0.1404 -0.3792
  110MOL   H11241750   4.959   1.299   5.721 -0.4355 -0.5857  0.1877
  110MOL   H11341751   4.705   0.997   5.795  0.8976 -2.0855 -0.7413
  110MOL   H11441752   4.726   1.079   5.637  2.1519  2.0600 -0.0695
  110MOL   H11541753   4.726   1.176   5.782 -2.3216 -0.4735 -0.9815
  110MOL   C11641754   4.974   0.591   5.692  0.5589 -0.3441  0.2387
  110MOL   C11741755   5.043   0.478   5.628  0.2231  0.0973 -0.4317
  110MOL   C11841756   5.119   0.531   5.505 -0.3436  0.2256  0.3026
  110MOL   O11941757   5.057   0.592   5.421 -0.3213 -1.0088  1.0702
  110MOL   N12041758   5.248   0.539   5.511 -0.5328  0.2281  0.4387
  110MOL   C12141759   5.341   0.608   5.416 -0.5154 -0.2641  0.2201
  110MOL   C12241760   5.329   0.764   5.429 -0.2389 -0.3229 -0.0461
  110MOL   C12341761   5.483   0.549   5.451 -0.6597 -0.0947 -0.0698
  110MOL   H12441762   4.900   0.633   5.625  0.7157  0.9787  0.8702
  110MOL   H12541763   4.912   0.556   5.774 -0.1212  1.0696  0.3429
  110MOL   H12641764   5.118   0.429   5.690 -0.3950 -0.4301 -0.0888
  110MOL   H12741765   5.287   0.511   5.600  0.2283 -0.1336 -0.0070
  110MOL   H12841766   5.317   0.581   5.313  1.9075 -0.2037 -0.3936
  110MOL   H12941767   5.383   0.805   5.514 -0.3029 -0.6444  0.1524
  110MOL   H13041768   5.223   0.786   5.442 -0.3170 -2.1331  2.8006
  110MOL   H13141769   5.367   0.820   5.344  1.3694  0.4863  1.1765
  110MOL   H13241770   5.480   0.443   5.476 -0.3711  0.7071  3.5597
  110MOL   H13341771   5.559   0.569   5.375 -1.0460 -1.5119 -0.8421
  110MOL   H13441772   5.506   0.593   5.548 -0.5690 -0.9746  0.3134
  110MOL   C13541773   4.934   0.384   5.578 -0.0436  0.1794  0.2957
  110MOL   C13641774   4.982   0.250   5.504 -0.3665  0.2986  0.0538
  110MOL   C13741775   5.071   0.168   5.602 -0.1543  0.5496 -0.0231
  110MOL   O13841776   5.031   0.099   5.692  0.1963  0.7530 -0.0359
  110MOL   N13941777   5.202   0.190   5.588 -0.0951 -0.6686 -0.3966
  110MOL   C14041778   5.295   0.137   5.681  0.2117  0.4529 -0.0649
  110MOL   C14141779   5.419   0.218   5.661 -0.3750 -0.0798 -0.0807
  110MOL   C14241780   5.315   7.826   5.645 -0.1619  0.1997 -0.0414
  110MOL   H14341781   4.871   0.441   5.510  0.4593  0.9309  0.4568
  110MOL   H14441782   4.861   0.368   5.658 -0.4923  0.0051 -0.1448
  110MOL   H14541783   5.050   0.282   5.425 -1.7337  1.8890 -0.5156
  110MOL   H14641784   5.242   0.257   5.524  1.2584 -1.6342 -0.5800
  110MOL   H14741785   5.257   0.142   5.783  0.7108  0.0307  0.1444
  110MOL   H14841786   5.406   0.324   5.682  0.2360  0.0065 -0.1350
  110MOL   H14941787   5.496   0.174   5.725  0.6382 -0.1696 -1.3466
  110MOL   H15041788   5.460   0.213   5.560  0.7387 -2.6369  0.4669
  110MOL   H15141789   5.220   7.772   5.640 -1.4447  2.3934  0.0801
  110MOL   H15241790   5.372   7.779   5.726 -0.3686 -0.7209 -0.4233
  110MOL   H15341791   5.365   7.807   5.550 -0.9715  0.2963 -0.4863
  110MOL   C15441792   4.873   0.163   5.434  0.0457  0.0519 -0.0407
  110MOL   C15541793   4.762   0.110   5.532 -0.2378  0.6684 -0.0820
  110MOL   C15641794   4.770   7.787   5.545 -0.0860  0.4869 -0.0156
  110MOL   O15741795   4.751   7.717   5.446 -0.1970 -0.1338 -0.3483
  110MOL   N15841796   4.806   7.739   5.662 -0.1393  0.4036 -0.1384
  110MOL   C15941797   4.812   7.604   5.708 -0.0906 -0.3914  0.2520
  110MOL   C16041798   4.786   7.592   5.855 -0.6305 -0.3872  0.3519
  110MOL   C16141799   4.941   7.538   5.665  0.1725 -0.0381  0.0630
  110MOL   H16241800   4.904   0.081   5.369 -0.9309  0.1400 -0.6247
  110MOL   H16341801   4.829   0.235   5.364  0.3611  0.1211 -0.1672
  110MOL   H16441802   4.767   0.155   5.631 -2.6575 -1.9117  1.2829
  110MOL   H16541803   4.861   7.800   5.721  0.6203  0.0172 -0.4501
  110MOL   H16641804   4.728   7.558   5.656  0.5109  0.6066 -1.6829
  110MOL   H16741805   4.683   7.611   5.886 -0.8335 -3.4796  1.7712
  110MOL   H16841806   4.810   7.489   5.884 -1.0986 -0.3973  0.7102
  110MOL   H16941807   4.858   7.651   5.911 -0.1147  0.5874 -1.3314
  110MOL   H17041808   4.924   7.431   5.661  1.8718 -0.3552  0.9863
  110MOL   H17141809   5.018   7.556   5.740 -0.6376 -1.2137  1.1813
  110MOL   H17241810   4.977   7.573   5.568  1.4717  0.5088  0.7278
  110MOL   C17341811   4.622   0.146   5.476 -0.6808  0.3699 -0.1352
  110MOL   C17441812   4.498   0.088   5.552 -0.4732  0.3374 -0.7282
  110MOL   C17541813   4.486   0.123   5.699  0.3129 -0.4303  0.1976
  110MOL   O17641814   4.482   0.239   5.733  0.2757 -0.0759  0.2933
  110MOL   N17741815   4.478   0.018   5.779 -0.4700  0.3440 -0.2656
  110MOL   C17841816   4.447   0.026   5.921 -0.6517  0.3493  0.0799
  110MOL   C17941817   4.571   0.043   6.001 -0.4479  0.5966 -0.6879
  110MOL   C18041818   4.361   7.744   5.960 -0.1233  0.7752  0.6955
  110MOL   H18141819   4.616   0.101   5.377 -1.8975  0.0186  0.0940
  110MOL   H18241820   4.609   0.254   5.468 -1.2919  0.3420  0.4135
  110MOL   H18341821   4.504   7.816   5.538 -0.9903 -0.0895  2.1158
  110MOL   H18441822   4.497   7.760   5.748  2.3511  0.2331  1.6359
  110MOL   H18541823   4.375   0.107   5.931  1.3887  1.9939  1.7361
  110MOL   H18641824   4.642   0.121   5.974 -0.1161  0.4586 -0.2160
  110MOL   H18741825   4.638   7.795   6.014  0.5395  1.4288 -0.3255
  110MOL   H18841826   4.543   0.070   6.103 -1.1508 -1.7280 -0.2344
  110MOL   H18941827   4.333   7.732   6.064 -2.8608  0.7267 -0.0223
  110MOL   H19041828   4.402   7.649   5.924  2.2104  1.8240  0.4687
  110MOL   H19141829   4.263   7.751   5.912 -0.0457 -1.1108  0.1970
  110MOL   C19241830   4.358   0.132   5.484  0.0573 -0.1416 -0.1310
  110MOL   C19341831   4.224   0.055   5.526 -0.0834 -0.0498  0.1285
  110MOL   C19441832   4.237   7.749   5.488 -0.8468 -0.7680 -0.2182
  110MOL   O19541833   4.231   7.718   5.369  0.2949 -0.0381  0.3914
  110MOL   N19641834   4.252   7.660   5.588  1.1596 -0.3435  0.2730
  110MOL   C19741835   4.277   7.519   5.571 -0.7974  0.4713 -0.3764
  110MOL   C19841836   4.404   7.480   5.643  0.4910  0.0921  0.2668
  110MOL   C19941837   4.159   7.439   5.623  0.2262  0.3535  0.2831
  110MOL   H20041838   4.362   0.118   5.376 -1.0090 -2.6079  0.1130
  110MOL   H20141839   4.335   0.236   5.508 -1.3997 -0.2780 -0.9285
  110MOL   H20241840   4.217   0.057   5.635 -0.7272 -0.9560  0.1119
  110MOL   H20341841   4.261   7.697   5.682 -0.5305 -1.0155  0.7168
  110MOL   H20441842   4.293   7.501   5.465  1.9058 -1.9628  0.3849
  110MOL   H20541843   4.452   7.384   5.623  2.2254  0.6439  1.5915
  110MOL   H20641844   4.390   7.493   5.750  0.9778 -0.2070  0.3722
  110MOL   H20741845   4.482   7.554   5.624  0.3104 -0.1220 -1.3944
  110MOL   H20841846   4.172   7.331   5.614 -0.7759  0.3762 -1.7333
  110MOL   H20941847   4.064   7.460   5.575 -0.1295 -0.1475  0.7667
  110MOL   H21041848   4.145   7.467   5.728  0.0572  0.1216  0.3217
  110MOL   C21141849   4.092   0.128   5.483  0.3625  0.4760  0.4834
  110MOL   C21241850   4.058   0.140   5.333  0.1049 -0.9750 -0.0581
  110MOL   C21341851   3.950   0.043   5.284  0.7328 -0.1723 -0.5737
  110MOL   O21441852   3.829   0.065   5.289  0.1393  0.0821  0.5346
  110MOL   N21541853   3.993   7.762   5.235 -0.2190  0.2769  0.8134
  110MOL   C21641854   3.920   7.654   5.159 -0.1597  0.5132 -0.4570
  110MOL   C21741855   3.923   7.524   5.236 -0.8263 -0.8319  1.0706
  110MOL   C21841856   3.982   7.662   5.021 -0.4611 -0.3346  0.2391
  110MOL   H21941857   4.085   0.217   5.545  0.4125  0.3439  0.6793
  110MOL   H22041858   4.010   0.071   5.526  0.4487 -0.8376 -1.0195
  110MOL   H22141859   4.149   0.124   5.275 -0.1507 -0.1473 -0.6940
  110MOL   H22241860   4.081   7.737   5.277  0.1398 -2.8745 -1.5764
  110MOL   H22341861   3.817   7.689   5.158 -0.4386 -0.3352 -1.8612
  110MOL   H22441862   3.885   7.532   5.337  0.1931 -0.1362  1.4068
  110MOL   H22541863   3.857   7.451   5.188 -0.3336 -0.1623 -0.6931
  110MOL   H22641864   4.024   7.490   5.255 -0.8159 -1.5634 -0.2010
  110MOL   H22741865   4.091   7.663   5.017 -0.4672 -1.8694 -0.8643
  110MOL   H22841866   3.954   7.758   4.978 -2.3699 -1.1390 -0.3494
  110MOL   H22941867   3.961   7.570   4.965  0.2220  0.9709 -2.2536
  110MOL   C23041868   4.023   0.286   5.299 -0.0045  0.8359 -0.0350
  110MOL   C23141869   4.138   0.387   5.294  0.6459  0.3904 -0.0245
  110MOL   C23241870   4.215   0.375   5.161 -0.3965  0.9624 -0.2716
  110MOL   O23341871   4.167   0.394   5.051  1.1148  0.1015  0.0154
  110MOL   N23441872   4.343   0.353   5.176  0.4060 -1.2414  0.1918
  110MOL   C23541873   4.454   0.360   5.075  0.0318  0.6318  0.2401
  110MOL   C23641874   4.488   0.511   5.050  0.2294 -0.1258 -0.0441
  110MOL   C23741875   4.565   0.275   5.123  0.2907 -0.2994  0.1325
  110MOL   H23841876   3.955   0.326   5.375 -0.1334 -2.3511  1.6228
  110MOL   H23941877   3.964   0.297   5.209  0.5475  1.4380 -0.3258
  110MOL   H24041878   4.207   0.373   5.377  0.9242  0.6222 -0.2180
  110MOL   H24141879   4.369   0.336   5.273  1.2121 -2.2039 -0.1900
  110MOL   H24241880   4.427   0.311   4.981 -0.6640  1.3804  0.0407
  110MOL   H24341881   4.511   0.570   5.139 -1.6245 -0.0790  0.4177
  110MOL   H24441882   4.568   0.530   4.978 -0.5733 -0.8199 -1.1208
  110MOL   H24541883   4.398   0.556   5.009  1.4859  1.2289 -1.4117
  110MOL   H24641884   4.536   0.173   5.148  0.8600 -0.3879  0.4298
  110MOL   H24741885   4.615   0.319   5.209 -1.0475 -0.3008  0.9309
  110MOL   H24841886   4.637   0.252   5.045 -0.3957 -0.8188 -0.3604
  110MOL   C24941887   4.093   0.532   5.302 -0.0188  0.1687 -0.4098
  110MOL   C25041888   4.197   0.645   5.313 -0.3824 -0.5402  0.0127
  110MOL   C25141889   4.287   0.637   5.440  0.3067 -0.0897 -0.7762
  110MOL   O25241890   4.236   0.608   5.547 -0.2277 -0.1491  0.2795
  110MOL   N25341891   4.416   0.670   5.427 -0.1286  0.1883  0.2436
  110MOL   C25441892   4.519   0.678   5.528  0.2355  0.4872 -1.1786
  110MOL   C25541893   4.583   0.546   5.567 -0.0883  0.5451  0.0496
  110MOL   C25641894   4.621   0.784   5.487 -0.1648 -0.9613  0.2944
  110MOL   H25741895   4.025   0.549   5.385  1.3697  1.4759  0.5029
  110MOL   H25841896   4.034   0.545   5.211 -0.5468  1.6332  0.1167
  110MOL   H25941897   4.277   0.622   5.243 -0.3773 -0.7691  0.0935
  110MOL   H26041898   4.440   0.704   5.335  1.7040  1.1842  1.0739
  110MOL   H26141899   4.468   0.724   5.612 -1.0952 -0.3034 -1.5496
  110MOL   H26241900   4.660   0.557   5.643 -1.1590  2.9143  0.8561
  110MOL   H26341901   4.507   0.487   5.618 -0.8351  2.1739  0.8421
  110MOL   H26441902   4.607   0.475   5.488  0.5968 -0.2647  0.9820
  110MOL   H26541903   4.709   0.782   5.551 -0.6272  2.4261  1.1222
  110MOL   H26641904   4.654   0.757   5.386 -0.0698 -0.7229  0.2610
  110MOL   H26741905   4.576   0.883   5.488  0.2258 -0.7708 -0.4194
  110MOL   C26841906   4.151   0.787   5.283  0.8687 -0.0071  0.5032
  110MOL   C26941907   4.186   0.846   5.141  0.0311 -0.5309 -0.1052
  110MOL   C27041908   4.332   0.862   5.111 -0.2177 -0.0723  0.4011
  110MOL   O27141909   4.415   0.788   5.165 -0.0841 -0.2454  0.9500
  110MOL   N27241910   4.362   0.965   5.038  0.8669  0.5368  0.3382
  110MOL   C27341911   4.502   0.996   4.989  0.1206  0.0066  0.2166
  110MOL   C27441912   4.554   0.873   4.900  0.0311  0.2601 -0.6453
  110MOL   C27541913   4.504   1.126   4.924 -0.2602 -0.7621  0.5808
  110MOL   H27641914   4.042   0.793   5.293  0.4331 -1.7045 -2.5827
  110MOL   H27741915   4.180   0.858   5.360 -1.3816  0.6242  0.8090
  110MOL   H27841916   4.140   0.945   5.139 -1.1732 -1.0748  0.4273
  110MOL   H27941917   4.282   1.016   5.002  0.7203  1.5647  2.0622
  110MOL   H28041918   4.566   1.009   5.077  1.8903 -2.3024 -0.6515
  110MOL   H28141919   4.565   0.779   4.954 -0.6914 -0.5647 -1.9170
  110MOL   H28241920   4.503   0.878   4.804  0.1311  0.6161 -0.6798
  110MOL   H28341921   4.659   0.882   4.871  0.6570 -2.0718  0.7721
  110MOL   H28441922   4.427   1.193   4.961  0.7357  0.2106  0.8979
  110MOL   H28541923   4.602   1.171   4.933 -0.4460 -0.3513  0.5265
  110MOL   H28641924   4.490   1.121   4.816  0.0957 -0.7953  0.5375
  110MOL   C28741925   4.131   0.756   5.036  0.3559 -0.1777  0.8227
  110MOL   C28841926   4.122   0.786   4.879  0.8599 -0.0228  0.8585
  110MOL   C28941927   4.073   0.924   4.837  0.1274  0.5616 -0.0002
  110MOL   O29041928   4.115   1.023   4.895 -0.1427 -0.1782  0.8331
  110MOL   N29141929   3.982   0.926   4.743 -0.0262 -0.3861 -0.0140
  110MOL   C29241930   3.925   1.041   4.679  0.6280  0.2540 -0.3822
  110MOL   C29341931   3.834   0.995   4.559  0.1056 -0.1985  0.3174
  110MOL   C29441932   3.824   1.123   4.765 -0.9316  0.7096 -0.7819
  110MOL   H29541933   4.192   0.666   5.037  0.8186  0.1213  0.2030
  110MOL   H29641934   4.029   0.727   5.062 -0.0859 -0.6457 -1.2801
  110MOL   H29741935   4.226   0.783   4.847  0.8227  0.2812  0.7022
  110MOL   H29841936   3.969   0.831   4.712 -0.7606 -0.0721 -0.6885
  110MOL   H29941937   4.001   1.108   4.640 -0.8734  1.4076 -1.3742
  110MOL   H30041938   3.901   0.948   4.487  2.3766  1.6285  1.1668
  110MOL   H30141939   3.749   0.930   4.578 -3.1178  2.7821 -3.1078
  110MOL   H30241940   3.790   1.082   4.510  0.1570  1.2705  2.7741
  110MOL   H30341941   3.880   1.158   4.851  1.8465  0.6212 -2.5165
  110MOL   H30441942   3.775   1.205   4.712  0.2447  0.5412 -2.1455
  110MOL   H30541943   3.746   1.057   4.804  0.0012 -0.2182 -0.4829
  110MOL   C30641944   4.068   0.659   4.801 -0.3233 -0.5090  0.0462
  110MOL   C30741945   3.938   0.599   4.856  0.0293 -0.0302  0.0010
  110MOL   C30841946   3.908   0.476   4.769 -1.2959  0.4690 -0.1411
  110MOL   O30941947   3.837   0.479   4.672 -0.3731  0.4759  0.0003
  110MOL   N31041948   3.973   0.362   4.810 -0.7343  0.4174  0.0625
  110MOL   C31141949   3.945   0.223   4.770  0.1116  0.5387  0.6695
  110MOL   C31241950   4.066   0.136   4.811 -0.0291  0.6595  0.2317
  110MOL   C31341951   3.819   0.171   4.847 -0.0865  0.2516  0.9906
  110MOL   H31441952   4.042   0.679   4.697 -1.8075 -1.4617  0.2109
  110MOL   H31541953   4.142   0.581   4.782  0.6503  0.2673  0.5899
  110MOL   H31641954   3.952   0.561   4.957  1.1124 -1.7224 -0.7555
  110MOL   H31741955   4.027   0.374   4.894 -0.3966  0.5487 -0.1757
  110MOL   H31841956   3.929   0.210   4.663 -0.6826  1.5103  0.6659
  110MOL   H31941957   4.042   0.033   4.787 -1.8479  0.8119  1.2599
  110MOL   H32041958   4.075   0.147   4.919 -1.1461  0.7540  0.3270
  110MOL   H32141959   4.157   0.160   4.756  0.1310 -1.1187 -0.2949
  110MOL   H32241960   3.736   0.214   4.792 -0.5572  0.4268  1.8338
  110MOL   H32341961   3.813   0.194   4.953 -0.1974  1.1456  0.7922
  110MOL   H32441962   3.812   0.062   4.838 -4.3388  0.5940 -0.7295
  110MOL   C32541963   3.814   0.694   4.859  0.5650  0.1872 -0.8969
  110MOL   C32641964   3.683   0.642   4.928  0.3961  0.0089 -0.3373
  110MOL   C32741965   3.707   0.577   5.065 -0.3339  0.3376  0.0989
  110MOL   O32841966   3.794   0.622   5.147  0.6382  0.0464  0.0304
  110MOL   N32941967   3.620   0.474   5.091 -0.0750 -0.2986 -0.7661
  110MOL   C33041968   3.633   0.398   5.217  0.5845  0.2362 -0.4683
  110MOL   C33141969   3.567   0.259   5.189  0.0744  0.0755  0.3134
  110MOL   C33241970   3.554   0.478   5.332 -0.0983 -0.4242 -0.2221
  110MOL   H33341971   3.794   0.724   4.756 -0.8677 -0.2522 -0.7529
  110MOL   H33441972   3.836   0.782   4.920  0.2316 -0.8695  0.7674
  110MOL   H33541973   3.645   0.558   4.870 -2.2045  0.7860  0.1515
  110MOL   H33641974   3.548   0.460   5.023 -1.6126 -0.1715  0.7906
  110MOL   H33741975   3.739   0.384   5.238  0.4992 -1.6629 -1.2646
  110MOL   H33841976   3.565   0.203   5.282  1.9317 -0.8334 -0.1657
  110MOL   H33941977   3.460   0.264   5.167  0.0440  2.3737  0.8688
  110MOL   H34041978   3.613   0.193   5.114 -2.0269  0.7254 -1.6109
  110MOL   H34141979   3.555   0.425   5.428  0.8087 -0.6832 -0.3768
  110MOL   H34241980   3.449   0.485   5.304 -0.5804  0.4264  1.6974
  110MOL   H34341981   3.590   0.580   5.347  0.3729 -0.8663  1.7939
  110MOL   C34441982   3.572   0.748   4.947  0.0381  0.0119  0.0164
  110MOL   C34541983   3.491   0.798   4.824 -0.7333  0.0143  0.2525
  110MOL   C34641984   3.452   0.686   4.721 -0.2883  0.5020 -0.5719
  110MOL   O34741985   3.399   0.584   4.764  0.0430  0.4024 -0.4410
  110MOL   N34841986   3.494   0.707   4.600 -0.9137  0.0818  0.1584
  110MOL   C34941987   3.522   0.602   4.495  0.3538 -0.7733  0.1735
  110MOL   C35041988   3.392   0.529   4.451  0.2250 -0.4524 -1.1007
  110MOL   C35141989   3.612   0.665   4.379  0.1007  0.0507  0.1423
  110MOL   H35241990   3.616   0.832   5.001 -0.7401 -0.0819  0.7976
  110MOL   H35341991   3.496   0.706   5.012  0.3297 -1.1745 -0.3997
  110MOL   H35441992   3.557   0.870   4.776  1.6851 -2.3127 -0.0642
  110MOL   H35541993   3.536   0.798   4.589 -0.1414 -0.3073 -0.0946
  110MOL   H35641994   3.576   0.514   4.529  1.2060 -0.2111  0.3016
  110MOL   H35741995   3.301   0.584   4.473  0.5211  0.2331 -1.6100
  110MOL   H35841996   3.402   0.525   4.343 -1.5496 -2.8505 -1.2300
  110MOL   H35941997   3.381   0.429   4.494  3.1624 -0.1583  0.4936
  110MOL   H36041998   3.709   0.683   4.427  0.0291 -0.3542  0.4500
  110MOL   H36141999   3.632   0.602   4.293 -2.3882  0.5010 -0.7954
  110MOL   H36242000   3.570   0.760   4.348  1.2676  1.0428  1.4868
  110MOL   C36342001   3.369   0.876   4.870 -0.0445 -0.0688  0.0324
  110MOL   C36442002   3.387   1.031   4.885  0.3128  0.6875 -0.4956
  110MOL   C36542003   3.372   1.106   4.754 -0.4839 -0.7068  1.1054
  110MOL   O36642004   3.305   1.062   4.662  0.3853  0.7105  0.5865
  110MOL   N36742005   3.425   1.230   4.741 -0.3520  0.2244  0.1344
  110MOL   C36842006   3.420   1.310   4.618  0.0943  0.7272  0.0712
  110MOL   C36942007   3.374   1.458   4.652  0.5685  0.0824  0.4165
  110MOL   C37042008   3.559   1.325   4.557  0.0732  0.2334 -0.7359
  110MOL   H37142009   3.333   0.833   4.964  0.8988  0.2095  0.5294
  110MOL   H37242010   3.291   0.861   4.797  1.3011  2.5172 -2.0038
  110MOL   H37342011   3.477   1.055   4.942 -1.0065  1.3673  1.3649
  110MOL   H37442012   3.471   1.262   4.826 -3.1802  4.1049  0.3439
  110MOL   H37542013   3.352   1.266   4.544  0.3256 -0.7796  0.7216
  110MOL   H37642014   3.439   1.498   4.730  1.0177  0.1229  0.0275
  110MOL   H37742015   3.358   1.518   4.563 -1.2651 -0.6295  0.2463
  110MOL   H37842016   3.274   1.454   4.694  0.9125 -1.5849  1.1186
  110MOL   H37942017   3.546   1.378   4.462  1.8810  0.8041 -0.6939
  110MOL   H38042018   3.631   1.382   4.616  0.0714  0.2871 -0.7855
  110MOL   H38142019   3.611   1.234   4.528 -0.5398  0.2395 -1.9108
  110MOL   H38242020   3.307   1.080   4.941 -0.2948  0.0015 -0.7493
  111MOL     C142021   6.629   3.543   2.183  0.7264 -0.4684  0.1042
  111MOL     C242022   6.779   3.554   2.218 -0.0715  0.5306 -0.8060
  111MOL     C342023   6.833   3.408   2.238 -0.2010 -0.4842  0.1628
  111MOL     O442024   6.905   3.361   2.149  0.0210  0.1199 -0.1118
  111MOL     N542025   6.802   3.351   2.351 -0.2811  0.6435 -0.4225
  111MOL     C642026   6.844   3.218   2.400 -0.1426  0.1301 -0.0192
  111MOL     C742027   6.759   3.105   2.344  0.1065  0.2101  0.6066
  111MOL     C842028   6.996   3.196   2.383  0.5285  0.0636  0.2726
  111MOL     H942029   6.587   3.643   2.189  2.9187  0.4138  1.2111
  111MOL    H1042030   6.585   3.483   2.263 -0.2619  0.2996  0.1507
  111MOL    H1142031   6.792   3.612   2.310  0.4645 -2.5615  1.1329
  111MOL    H1242032   6.737   3.406   2.406 -0.0464  0.2535  0.2577
  111MOL    H1342033   6.835   3.231   2.508 -3.3338  3.8593 -0.6374
  111MOL    H1442034   6.651   3.118   2.358  0.2416  2.8287 -0.5328
  111MOL    H1542035   6.784   3.011   2.393 -0.7023 -0.5139 -0.3503
  111MOL    H1642036   6.773   3.090   2.237  2.8713  1.4826  0.7539
  111MOL    H1742037   7.025   3.138   2.296 -2.1160  0.1087 -0.6617
  111MOL    H1842038   7.053   3.288   2.373  0.4290  0.0620 -0.3197
  111MOL    H1942039   7.040   3.135   2.463  0.3910 -2.5763 -1.5910
  111MOL    H2042040   6.603   3.499   2.086 -0.9415  0.5240  0.0774
  111MOL    C2142041   6.839   3.639   2.103 -0.5119 -0.1601  0.3817
  111MOL    C2242042   6.998   3.635   2.079 -0.5823 -0.4604  0.1096
  111MOL    C2342043   7.071   3.672   2.209 -0.6148  0.5629 -0.5613
  111MOL    O2442044   7.093   3.792   2.232  0.2145 -0.3651 -0.3799
  111MOL    N2542045   7.116   3.566   2.282  0.5490  0.7971 -0.2194
  111MOL    C2642046   7.195   3.573   2.399 -0.4973 -0.0511  0.1743
  111MOL    C2742047   7.320   3.491   2.372 -0.3134 -0.2273  0.5094
  111MOL    C2842048   7.121   3.525   2.518 -0.5524 -0.0236  0.9270
  111MOL    H2942049   6.802   3.741   2.116 -1.1883 -0.2526 -0.7737
  111MOL    H3042050   6.787   3.608   2.012  1.7478 -0.6870 -0.7681
  111MOL    H3142051   7.028   3.535   2.049 -0.1512 -0.3828  0.2904
  111MOL    H3242052   7.087   3.476   2.245  0.9019  0.4196  0.4147
  111MOL    H3342053   7.236   3.672   2.418  2.6929 -1.4738  0.9860
  111MOL    H3442054   7.300   3.384   2.378  1.9087 -0.6441  0.8489
  111MOL    H3542055   7.385   3.522   2.454 -0.5333  0.0161  0.5920
  111MOL    H3642056   7.373   3.514   2.280  3.6109 -1.1392  2.4360
  111MOL    H3742057   7.096   3.420   2.535  1.3686 -0.3643  1.7239
  111MOL    H3842058   7.184   3.548   2.604  0.3338 -2.3057  0.9213
  111MOL    H3942059   7.028   3.581   2.531 -1.2811 -1.0531  0.2377
  111MOL    C4042060   7.040   3.726   1.962 -0.9306  0.6604  0.2351
  111MOL    C4142061   7.183   3.682   1.893  0.0919 -0.2911 -0.0084
  111MOL    C4242062   7.307   3.720   1.975  0.0066  0.0106  0.3260
  111MOL    O4342063   7.408   3.647   1.969  0.1655 -0.1780  0.0640
  111MOL    N4442064   7.309   3.843   2.036  0.8683 -0.1529 -0.2825
  111MOL    C4542065   7.425   3.915   2.091 -0.0399 -0.4136  0.7939
  111MOL    C4642066   7.405   4.069   2.108 -0.5247  0.6932  0.4248
  111MOL    C4742067   7.478   3.847   2.216 -0.1053  0.0118  0.9736
  111MOL    H4842068   7.049   3.829   1.995  1.2364  0.8556 -0.8933
  111MOL    H4942069   6.962   3.726   1.885 -1.6757 -1.0294  0.9558
  111MOL    H5042070   7.186   3.574   1.878  1.6136  0.0460 -2.4314
  111MOL    H5142071   7.226   3.901   2.042  1.8332  1.1205  1.2860
  111MOL    H5242072   7.501   3.905   2.014 -2.6980 -1.3032 -1.7798
  111MOL    H5342073   7.307   4.087   2.151 -0.9482  1.1782 -0.7079
  111MOL    H5442074   7.396   4.106   2.006 -2.0646 -0.3013  0.1777
  111MOL    H5542075   7.480   4.130   2.158  1.4157  0.1944 -1.7813
  111MOL    H5642076   7.500   3.742   2.198  1.0877  0.2255  1.0969
  111MOL    H5742077   7.411   3.863   2.300 -1.2102 -1.5320  0.3967
  111MOL    H5842078   7.576   3.892   2.236 -0.3357  0.6846  0.6118
  111MOL    C5942079   7.190   3.731   1.742 -0.0610  0.2539 -0.3393
  111MOL    C6042080   7.249   3.868   1.701  0.7788  0.2081 -0.0340
  111MOL    C6142081   7.172   3.982   1.770 -0.5247 -0.5775  0.7967
  111MOL    O6242082   7.238   4.079   1.809  0.4840 -0.0403  0.5913
  111MOL    N6342083   7.037   3.974   1.782 -0.0006  0.2166 -0.5357
  111MOL    C6442084   6.956   4.065   1.855  0.1643  0.1663  0.0315
  111MOL    C6542085   6.930   4.191   1.762 -0.5716 -0.2933  0.6792
  111MOL    C6642086   6.816   4.012   1.908 -0.5916  0.4096  0.5787
  111MOL    H6742087   7.252   3.658   1.690  1.4630  1.8356 -0.7970
  111MOL    H6842088   7.093   3.723   1.693  0.9643 -1.2133 -2.1867
  111MOL    H6942089   7.346   3.862   1.750  1.2467  0.6684 -0.8877
  111MOL    H7042090   6.993   3.893   1.740  1.9236  0.1637 -2.5320
  111MOL    H7142091   7.017   4.102   1.938  0.8194  0.7682 -0.7162
  111MOL    H7242092   6.869   4.259   1.822  0.9307  1.0255  0.7555
  111MOL    H7342093   7.024   4.236   1.731 -0.6449  0.1246  1.0567
  111MOL    H7442094   6.881   4.157   1.671 -1.0589  0.1859  0.7596
  111MOL    H7542095   6.767   4.088   1.970 -2.7890  0.4371 -1.0957
  111MOL    H7642096   6.749   3.978   1.829 -0.3148  0.5292  0.2927
  111MOL    H7742097   6.832   3.921   1.966  1.4515  0.0379 -0.5406
  111MOL    C7842098   7.265   3.881   1.542  0.3004  0.0375 -0.1782
  111MOL    C7942099   7.359   4.002   1.501 -0.2820  0.5486 -0.4952
  111MOL    C8042100   7.503   4.000   1.551 -0.2224  0.3199 -0.1691
  111MOL    O8142101   7.598   3.952   1.486 -0.4462  0.2677  0.0511
  111MOL    N8242102   7.522   4.052   1.670  0.0758  0.4761  0.0989
  111MOL    C8342103   7.638   4.044   1.752  0.3537 -0.0549  0.2741
  111MOL    C8442104   7.676   3.891   1.771 -0.7424  0.7249 -0.3095
  111MOL    C8542105   7.764   4.115   1.691  0.0760  0.2805  0.0328
  111MOL    H8642106   7.168   3.895   1.493  0.1043  1.2905  0.5391
  111MOL    H8742107   7.313   3.790   1.505 -1.4343 -2.4075  3.2052
  111MOL    H8842108   7.311   4.093   1.539 -1.3006  0.4459 -1.5164
  111MOL    H8942109   7.434   4.068   1.719  0.0060 -0.5773  0.3136
  111MOL    H9042110   7.609   4.097   1.843  0.4181  0.2599  0.1131
  111MOL    H9142111   7.604   3.824   1.817 -0.6720 -0.3301 -1.6967
  111MOL    H9242112   7.692   3.845   1.673  1.0028 -1.2321  0.8720
  111MOL    H9342113   7.765   3.870   1.829 -1.5853  0.5618  0.9441
  111MOL    H9442114   7.834   4.146   1.769  1.4290 -0.1383 -1.0032
  111MOL    H9542115   7.734   4.203   1.634  1.7470 -0.7087 -2.4399
  111MOL    H9642116   7.819   4.053   1.620  0.8827  1.4740 -0.3966
  111MOL    C9742117   7.356   4.024   1.350 -0.0703  0.2045  0.1289
  111MOL    C9842118   7.445   4.127   1.287  0.1907 -0.0463 -0.1066
  111MOL    C9942119   7.385   4.262   1.306  0.3084 -1.0072 -0.1060
  111MOL   O10042120   7.277   4.292   1.248  0.4763  0.2597  0.7358
  111MOL   N10142121   7.436   4.346   1.400 -0.5176  0.0972 -1.1508
  111MOL   C10242122   7.357   4.461   1.457  0.1144  0.0150  0.0898
  111MOL   C10342123   7.258   4.424   1.569 -0.0868  0.3474  0.3306
  111MOL   C10442124   7.458   4.568   1.502 -0.3786 -0.4702 -0.2063
  111MOL   H10542125   7.253   4.051   1.325  0.3670  2.6224  0.8127
  111MOL   H10642126   7.375   3.923   1.315  1.9892  0.3619  0.7134
  111MOL   H10742127   7.548   4.130   1.323 -0.1384 -0.7782  0.9090
  111MOL   H10842128   7.522   4.320   1.446 -0.7384  0.2044 -0.6850
  111MOL   H10942129   7.294   4.502   1.378 -0.3537  0.4214  0.6763
  111MOL   H11042130   7.170   4.488   1.577  0.0361  0.5000  0.4593
  111MOL   H11142131   7.211   4.327   1.556  2.4687 -0.8167 -0.6127
  111MOL   H11242132   7.310   4.404   1.662  1.7075 -0.5278 -0.8417
  111MOL   H11342133   7.397   4.656   1.524 -1.6543 -1.1369 -0.9999
  111MOL   H11442134   7.536   4.589   1.429  0.9901  1.9861  1.8564
  111MOL   H11542135   7.515   4.539   1.591  0.7759  1.0051 -0.4528
  111MOL   C11642136   7.461   4.097   1.139  0.5436 -0.1450 -0.2922
  111MOL   C11742137   7.544   3.973   1.108 -0.0222 -0.2735  0.0171
  111MOL   C11842138   7.694   4.000   1.103  0.5817 -0.2941 -0.4938
  111MOL   O11942139   7.754   4.030   0.998 -0.3344  0.0652 -0.1545
  111MOL   N12042140   7.757   3.989   1.223 -0.4170 -0.3578 -1.0582
  111MOL   C12142141   0.060   4.003   1.239  0.3257 -0.2211 -0.5003
  111MOL   C12242142   0.096   4.046   1.377  0.1849 -0.6788  0.5497
  111MOL   C12342143   0.127   3.865   1.210 -0.4728 -0.4558 -0.2633
  111MOL   H12442144   7.509   4.178   1.085 -0.3536 -1.3613 -3.0149
  111MOL   H12542145   7.364   4.091   1.089  0.3074  0.8152  0.0367
  111MOL   H12642146   7.529   3.893   1.181 -1.8228 -0.5749 -0.6533
  111MOL   H12742147   7.697   3.955   1.297  2.7884 -0.2316  1.7249
  111MOL   H12842148   0.098   4.085   1.179 -1.5104  3.0169  2.6085
  111MOL   H12942149   0.056   4.142   1.408 -1.0060 -1.3521  1.1447
  111MOL   H13042150   0.205   4.047   1.376  0.2478 -2.6464  2.1354
  111MOL   H13142151   0.057   3.972   1.447 -0.3782 -1.4542 -0.5754
  111MOL   H13242152   0.076   3.784   1.262 -1.2435 -0.1379 -0.5083
  111MOL   H13342153   0.132   3.841   1.103  0.1275  0.5216 -0.4668
  111MOL   H13442154   0.233   3.861   1.235 -0.3093 -0.6530 -0.9557
  111MOL   C13542155   7.498   3.914   0.967  0.1269  0.1770  0.7132
  111MOL   C13642156   7.383   3.814   0.956  0.0551 -0.4551  0.3405
  111MOL   C13742157   7.401   3.685   1.024  0.6044  0.1293 -0.0879
  111MOL   O13842158   7.411   3.680   1.149  0.5766  0.0186  0.1649
  111MOL   N13942159   7.409   3.579   0.949 -0.0079  0.1249  0.1009
  111MOL   C14042160   7.403   3.435   1.000  0.6407 -0.8486 -0.0427
  111MOL   C14142161   7.517   3.348   0.936 -0.5545 -0.0867  0.1073
  111MOL   C14242162   7.264   3.386   0.959 -0.5309 -0.0310  0.1346
  111MOL   H14342163   7.588   3.864   0.931  0.2500 -0.2148  1.5401
  111MOL   H14442164   7.481   4.000   0.904  1.6251 -0.1255 -0.1251
  111MOL   H14542165   7.370   3.805   0.848 -1.3983  0.7303  0.3956
  111MOL   H14642166   7.404   3.582   0.848  1.0524  0.6132  0.0575
  111MOL   H14742167   7.414   3.440   1.109 -0.0555 -1.6056  0.0640
  111MOL   H14842168   7.505   3.344   0.827  2.0947  0.5092 -0.2378
  111MOL   H14942169   7.615   3.389   0.957  0.3757 -2.1922 -0.0449
  111MOL   H15042170   7.518   3.246   0.975 -2.5568  0.3574  1.4102
  111MOL   H15142171   7.252   3.282   0.988 -1.6948  0.2953  0.8998
  111MOL   H15242172   7.260   3.394   0.850  0.8338 -1.2008  0.0003
  111MOL   H15342173   7.183   3.442   1.007 -0.4815  0.0030  0.1798
  111MOL   C15442174   7.244   3.861   1.008  0.1142  0.2031 -0.0729
  111MOL   C15542175   7.125   3.771   0.971 -0.9390  0.0202 -0.2910
  111MOL   C15642176   7.082   3.760   0.814 -0.0493 -0.1049 -0.4476
  111MOL   O15742177   7.121   3.852   0.741  0.0865  0.2748 -0.0613
  111MOL   N15842178   7.004   3.654   0.779 -0.2704  0.0179 -0.0466
  111MOL   C15942179   6.928   3.649   0.656 -0.0352  0.3488  0.5627
  111MOL   C16042180   6.813   3.752   0.634  0.2765  0.2497  0.2052
  111MOL   C16142181   6.887   3.510   0.618  0.2366  0.0876  0.7478
  111MOL   H16242182   7.230   3.959   0.963  0.8587  0.3649  0.0290
  111MOL   H16342183   7.248   3.887   1.114  0.9878  0.1758 -0.0924
  111MOL   H16442184   7.147   3.668   0.998  2.3846 -0.0149 -2.7980
  111MOL   H16542185   6.981   3.591   0.855 -2.6227  1.5947  0.6328
  111MOL   H16642186   7.007   3.670   0.584  1.9636  1.0483  2.8853
  111MOL   H16742187   6.775   3.752   0.532  1.1593  1.1588 -0.1293
  111MOL   H16842188   6.729   3.724   0.699 -1.2609  0.7789 -1.4979
  111MOL   H16942189   6.858   3.849   0.652  1.3512 -0.0888 -0.6537
  111MOL   H17042190   6.972   3.443   0.631  0.3751  0.5607  2.2908
  111MOL   H17142191   6.849   3.518   0.516 -2.0350  1.3639  1.6595
  111MOL   H17242192   6.805   3.466   0.674  0.3055 -1.7953 -0.5557
  111MOL   C17342193   6.993   3.812   1.043 -0.4666 -0.5253 -0.7362
  111MOL   C17442194   6.933   3.709   1.148 -0.5821  0.4807 -0.1403
  111MOL   C17542195   6.866   3.580   1.095  0.8531  0.4110  0.5329
  111MOL   O17642196   6.915   3.512   1.007  0.0526  0.4578  0.0181
  111MOL   N17742197   6.751   3.543   1.151  0.3176  0.2548  0.3955
  111MOL   C17842198   6.664   3.425   1.124 -0.3317 -0.3556  0.8016
  111MOL   C17942199   6.520   3.455   1.154 -0.0370 -0.3456 -1.1813
  111MOL   C18042200   6.716   3.308   1.205  0.5236  0.2674  0.5651
  111MOL   H18142201   6.914   3.849   0.979 -0.0997 -0.8531 -1.3911
  111MOL   H18242202   7.017   3.901   1.102  0.6864 -0.6527 -0.9960
  111MOL   H18342203   6.863   3.777   1.197  0.7286  1.3593  0.5713
  111MOL   H18442204   6.709   3.608   1.216  0.5352  0.5020  0.2928
  111MOL   H18542205   6.673   3.407   1.017  1.7282  2.0006  0.5295
  111MOL   H18642206   6.467   3.363   1.178  0.2614  0.2813  2.1581
  111MOL   H18742207   6.464   3.518   1.084 -0.1801  2.3139  1.2090
  111MOL   H18842208   6.509   3.514   1.246 -2.0897 -0.9920 -0.9810
  111MOL   H18942209   6.697   3.316   1.312  0.1778 -1.9845  0.6918
  111MOL   H19042210   6.823   3.288   1.197  0.0734 -1.9985 -0.3437
  111MOL   H19142211   6.678   3.218   1.156 -1.0127  1.2474 -0.0869
  111MOL   C19242212   7.048   3.674   1.252  0.5257  0.1082 -0.3085
  111MOL   C19342213   7.014   3.583   1.374 -0.1310  0.2269  0.2444
  111MOL   C19442214   6.914   3.643   1.472 -0.7826 -0.2644  0.4720
  111MOL   O19542215   6.930   3.757   1.518 -0.6219  0.3919 -0.3843
  111MOL   N19642216   6.821   3.554   1.513 -0.2590 -0.1649  0.0256
  111MOL   C19742217   6.706   3.566   1.599  0.0017  0.3417 -0.6124
  111MOL   C19842218   6.752   3.586   1.747  1.0867 -0.4561 -0.0465
  111MOL   C19942219   6.593   3.663   1.543  0.4412 -0.8397 -0.1715
  111MOL   H20042220   7.091   3.770   1.278 -0.7081  0.1004  1.8200
  111MOL   H20142221   7.126   3.622   1.196 -0.1713 -0.6164 -0.6354
  111MOL   H20242222   6.964   3.493   1.339 -1.1088  0.4510  1.0612
  111MOL   H20342223   6.829   3.464   1.469  0.3741  0.5728 -1.4078
  111MOL   H20442224   6.651   3.472   1.592 -2.2941  1.3085  2.9524
  111MOL   H20542225   6.835   3.519   1.771  0.9622 -0.6185 -0.0750
  111MOL   H20642226   6.670   3.570   1.817  0.6444 -0.8086 -0.6524
  111MOL   H20742227   6.780   3.691   1.759  2.0195 -0.7293  0.2844
  111MOL   H20842228   6.571   3.653   1.437 -0.5447 -3.7152  0.2706
  111MOL   H20942229   6.622   3.766   1.563  0.1260 -0.6611 -0.6315
  111MOL   H21042230   6.498   3.649   1.594 -0.3036 -1.5535 -1.7310
  111MOL   C21142231   7.138   3.530   1.444 -0.3989 -0.1588  0.3827
  111MOL   C21242232   7.239   3.448   1.354 -0.1452  0.2981  0.2229
  111MOL   C21342233   7.361   3.432   1.439 -0.5107 -0.3675 -0.7775
  111MOL   O21442234   7.362   3.346   1.525  0.2822  0.3895 -0.4553
  111MOL   N21542235   7.469   3.500   1.408 -0.0119  0.7475 -0.2437
  111MOL   C21642236   7.595   3.512   1.489 -0.2114  0.7432  0.5525
  111MOL   C21742237   7.581   3.570   1.628  0.1114  0.4457  0.5923
  111MOL   C21842238   7.689   3.592   1.392 -0.4661  0.4283  0.2028
  111MOL   H21942239   7.113   3.478   1.536  1.9032  0.3205  1.3217
  111MOL   H22042240   7.189   3.622   1.471 -2.6228  0.7545  1.5653
  111MOL   H22142241   7.273   3.511   1.272 -1.7708  0.3140 -0.4395
  111MOL   H22242242   7.460   3.556   1.324 -0.8736 -0.8159 -1.2258
  111MOL   H22342243   7.637   3.412   1.497  0.1165  0.7155 -1.2790
  111MOL   H22442244   7.521   3.516   1.701  0.4709 -0.9830 -0.1483
  111MOL   H22542245   7.678   3.587   1.674  0.8221  1.4155 -1.2346
  111MOL   H22642246   7.536   3.669   1.624  0.4711  0.6147  0.7937
  111MOL   H22742247   7.782   3.620   1.442  1.2499 -1.9477 -1.5951
  111MOL   H22842248   7.645   3.685   1.355 -2.5549 -1.7243 -2.8700
  111MOL   H22942249   7.710   3.520   1.313  2.5654 -0.3677  1.6873
  111MOL   C23042250   7.188   3.307   1.298  0.5466  0.4731  0.3603
  111MOL   C23142251   7.143   3.185   1.379  0.0074 -0.1107 -0.4364
  111MOL   C23242252   7.032   3.216   1.476  0.0539  0.6238  0.3001
  111MOL   O23342253   6.926   3.276   1.449  0.7101 -0.4565 -0.3844
  111MOL   N23442254   7.060   3.196   1.604  0.3349 -0.2063  0.4479
  111MOL   C23542255   6.979   3.235   1.725  0.3341  0.1889 -0.3372
  111MOL   C23642256   6.841   3.173   1.743 -0.8005 -0.0857  0.4861
  111MOL   C23742257   7.070   3.208   1.855 -0.3467  0.5279  0.8541
  111MOL   H23842258   7.258   3.270   1.222 -0.5944 -0.1473 -0.4013
  111MOL   H23942259   7.106   3.336   1.234  1.3724  1.2327 -0.3663
  111MOL   H24042260   7.229   3.154   1.437  1.1095  2.3972 -0.6690
  111MOL   H24142261   7.143   3.147   1.635  0.4311  0.0985  0.6755
  111MOL   H24242262   6.972   3.344   1.725  0.2282  0.1849 -0.0363
  111MOL   H24342263   6.798   3.226   1.828 -0.8294 -0.8018  0.9236
  111MOL   H24442264   6.767   3.169   1.663  0.2591  1.2781 -0.5954
  111MOL   H24542265   6.850   3.069   1.775 -1.4468 -0.0906  0.6546
  111MOL   H24642266   7.176   3.196   1.835 -0.6779 -0.4880 -0.3187
  111MOL   H24742267   7.049   3.106   1.888 -0.3850  0.2931  0.1055
  111MOL   H24842268   7.042   3.271   1.940 -0.9908 -0.8065  1.6596
  111MOL   C24942269   7.101   3.071   1.285 -0.3689  0.1890  0.1138
  111MOL   C25042270   7.105   2.928   1.343 -0.1764 -0.7406  0.2701
  111MOL   C25142271   7.240   2.872   1.392 -0.8818  0.4914  0.2953
  111MOL   O25242272   7.237   2.798   1.486 -0.2448  0.0994 -0.0333
  111MOL   N25342273   7.352   2.894   1.324  0.0467 -0.0250  0.3059
  111MOL   C25442274   7.488   2.854   1.356 -0.0377  0.5149 -0.6505
  111MOL   C25542275   7.551   2.763   1.248 -0.2780 -0.6392  0.1526
  111MOL   C25642276   7.572   2.984   1.358  0.8834 -0.4219  0.2319
  111MOL   H25742277   7.164   3.075   1.196  1.0552  1.9578  1.1549
  111MOL   H25842278   6.997   3.088   1.258 -0.8382 -1.1778  1.0141
  111MOL   H25942279   7.043   2.921   1.432 -0.8428  0.3662 -0.0995
  111MOL   H26042280   7.342   2.934   1.231 -0.8928 -0.2905  0.2877
  111MOL   H26142281   7.493   2.809   1.455  0.2775  1.3727 -0.2697
  111MOL   H26242282   7.658   2.748   1.264 -0.5038 -2.1514  0.3490
  111MOL   H26342283   7.509   2.663   1.258 -4.2079  0.9541  0.4845
  111MOL   H26442284   7.541   2.803   1.147  0.1666  1.1294  0.7946
  111MOL   H26542285   7.583   3.015   1.254 -0.3130  0.6800  0.4239
  111MOL   H26642286   7.533   3.069   1.415 -3.6717 -2.2606  0.0647
  111MOL   H26742287   7.673   2.955   1.388  0.3568 -3.4642 -0.8011
  111MOL   C26842288   7.024   2.846   1.246  0.6456  0.2149 -0.0585
  111MOL   C26942289   7.007   2.694   1.272 -0.1269 -0.1961  0.2176
  111MOL   C27042290   6.923   2.662   1.402  0.8176 -1.3581 -0.5118
  111MOL   O27142291   6.810   2.625   1.386  0.4016  0.0543  0.1043
  111MOL   N27242292   6.980   2.673   1.521  0.1639 -0.2183  0.5066
  111MOL   C27342293   6.898   2.670   1.645 -0.2053 -0.3442 -0.3713
  111MOL   C27442294   6.875   2.528   1.696  0.1710  0.4241 -0.3487
  111MOL   C27542295   6.971   2.749   1.754 -0.4449  0.5426 -0.3305
  111MOL   H27642296   6.925   2.886   1.228  1.6849  2.5073 -0.8116
  111MOL   H27742297   7.074   2.850   1.149  0.9544  1.7556  0.1468
  111MOL   H27842298   7.100   2.641   1.291  0.1591  0.0036 -0.6200
  111MOL   H27942299   7.079   2.692   1.518  0.1134  0.1100  0.8659
  111MOL   H28042300   6.803   2.722   1.634  0.4472  0.8640 -0.4701
  111MOL   H28142301   6.840   2.463   1.615 -1.4460 -1.0340  1.4793
  111MOL   H28242302   6.969   2.487   1.733 -0.5588 -2.0351 -1.0675
  111MOL   H28342303   6.799   2.515   1.774  1.8687 -1.7635  0.9939
  111MOL   H28442304   6.916   2.752   1.848 -0.2403  2.0835 -0.2437
  111MOL   H28542305   7.068   2.701   1.771  0.3442  2.2495  0.0822
  111MOL   H28642306   6.984   2.850   1.716  0.3826  0.3784 -0.4852
  111MOL   C28742307   6.949   2.622   1.144  0.4822 -0.9042 -0.1471
  111MOL   C28842308   6.973   2.467   1.150  0.5073  0.1824 -0.5945
  111MOL   C28942309   7.127   2.450   1.120 -0.1490  0.6507  0.1227
  111MOL   O29042310   7.184   2.479   1.015 -0.1437  0.8056  0.3531
  111MOL   N29142311   7.206   2.400   1.224 -0.3100  0.4382 -0.2260
  111MOL   C29242312   7.351   2.372   1.232  0.4869  0.3757  0.4203
  111MOL   C29342313   7.396   2.415   1.373 -0.2362 -0.1223 -0.4291
  111MOL   C29442314   7.388   2.227   1.193  0.0654  0.1429 -0.5956
  111MOL   H29542315   6.844   2.651   1.133  0.9483  1.1307  0.6304
  111MOL   H29642316   6.979   2.665   1.049  1.1307  1.0333  0.9194
  111MOL   H29742317   6.941   2.426   1.246  2.5187 -1.3706 -0.5462
  111MOL   H29842318   7.154   2.372   1.306  0.6271 -0.9848 -0.0957
  111MOL   H29942319   7.409   2.435   1.164  0.2604 -0.1040 -0.2186
  111MOL   H30042320   7.341   2.358   1.448 -0.9557 -1.0079 -1.6142
  111MOL   H30142321   7.499   2.410   1.407 -0.2796 -0.3092 -0.3248
  111MOL   H30242322   7.370   2.519   1.392  0.0600  0.2209 -1.8472
  111MOL   H30342323   7.482   2.202   1.243 -0.8266 -0.7991  0.6474
  111MOL   H30442324   7.319   2.156   1.240 -0.0560  1.1508  0.7717
  111MOL   H30542325   7.397   2.204   1.087 -1.6649 -0.8721 -0.5398
  111MOL   C30642326   6.887   2.395   1.043  0.1421 -0.0967 -0.3290
  111MOL   C30742327   6.878   2.241   1.061 -0.7169 -0.3010 -0.6944
  111MOL   C30842328   6.853   2.172   0.924  0.4010  0.1181  0.0314
  111MOL   O30942329   6.769   2.210   0.849  0.2171 -0.6377 -0.1157
  111MOL   N31042330   6.930   2.060   0.903  0.4931 -0.4985  0.3828
  111MOL   C31142331   6.912   1.966   0.791  0.1887  0.4433  0.4195
  111MOL   C31242332   7.011   2.009   0.675  0.7929 -0.4345 -0.3308
  111MOL   C31342333   6.929   1.823   0.844 -0.3667  0.3345  0.3650
  111MOL   H31442334   6.787   2.438   1.032 -0.2276 -1.1921 -1.2713
  111MOL   H31542335   6.933   2.416   0.947  0.8280  0.4907  0.1171
  111MOL   H31642336   6.978   2.209   1.089  1.0485  3.0173 -2.7915
  111MOL   H31742337   6.994   2.040   0.979  0.2646  0.9931  0.9935
  111MOL   H31842338   6.811   1.959   0.750 -0.0928 -0.2488  1.2024
  111MOL   H31942339   6.962   2.092   0.625 -0.3525 -0.6916  0.3646
  111MOL   H32042340   7.038   1.936   0.599  3.1275 -2.1649  2.0690
  111MOL   H32142341   7.102   2.059   0.709 -0.0753  0.4681  0.6812
  111MOL   H32242342   6.934   1.748   0.765  0.7494 -0.9385  1.6204
  111MOL   H32342343   6.849   1.801   0.914 -0.2799 -0.6289  0.1750
  111MOL   H32442344   7.024   1.820   0.896 -0.9108  0.7764  1.3858
  111MOL   C32542345   6.769   2.203   1.165 -0.8201  0.2035 -0.3286
  111MOL   C32642346   6.799   2.076   1.238  0.0607  0.0675  0.2490
  111MOL   C32742347   6.925   2.092   1.323  0.5516 -0.2841 -0.1988
  111MOL   O32842348   6.940   2.182   1.403  0.4161 -0.6552  0.4461
  111MOL   N32942349   7.018   1.995   1.302 -0.3310 -0.5060 -0.6628
  111MOL   C33042350   7.147   1.983   1.369  0.2884 -0.0767 -0.4624
  111MOL   C33142351   7.254   1.906   1.293  0.0672 -0.9483 -0.2973
  111MOL   C33242352   7.132   1.911   1.503  0.4289  1.0524 -0.2165
  111MOL   H33342353   6.678   2.174   1.112 -1.6272  2.6552 -0.3395
  111MOL   H33442354   6.729   2.288   1.219  0.2357  0.2125  0.4445
  111MOL   H33542355   6.817   1.991   1.173 -1.0128  0.8818 -1.1297
  111MOL   H33642356   6.991   1.916   1.245 -1.3028  1.1218 -2.5250
  111MOL   H33742357   7.182   2.084   1.391 -1.4825  0.6647 -0.8857
  111MOL   H33842358   7.240   1.800   1.272 -2.7564 -0.8893  0.9506
  111MOL   H33942359   7.286   1.942   1.196 -0.9480 -0.3031 -0.4032
  111MOL   H34042360   7.346   1.920   1.349 -0.7037 -0.5779  0.8992
  111MOL   H34142361   7.048   1.938   1.566  0.9258  0.2249  0.8126
  111MOL   H34242362   7.225   1.933   1.556  1.1385 -0.9323 -0.5639
  111MOL   H34342363   7.130   1.802   1.496 -1.1296  1.0870 -0.5780
  111MOL   C34442364   6.678   2.052   1.333  1.1289  0.2619 -0.3177
  111MOL   C34542365   6.678   1.917   1.415  0.0813 -0.2511  0.5525
  111MOL   C34642366   6.618   1.921   1.556 -0.0155  0.2375 -1.3580
  111MOL   O34742367   6.504   1.881   1.582 -0.9495  0.2967  0.6997
  111MOL   N34842368   6.694   1.968   1.655  0.1349 -0.3248 -0.5622
  111MOL   C34942369   6.659   1.969   1.799  0.5220 -0.1161 -0.9970
  111MOL   C35042370   6.684   1.838   1.877  0.3978  0.4735 -0.8141
  111MOL   C35142371   6.707   2.091   1.872 -0.4082 -0.1752 -0.5670
  111MOL   H35242372   6.586   2.058   1.274  0.5739  1.0163  0.6076
  111MOL   H35342373   6.675   2.146   1.388  1.2014 -0.4911  0.9825
  111MOL   H35442374   6.783   1.906   1.443  0.8922 -0.6895 -2.4886
  111MOL   H35542375   6.783   2.012   1.634 -0.6177  0.6012 -1.8577
  111MOL   H35642376   6.550   1.970   1.798  0.4002 -3.9449  0.1375
  111MOL   H35742377   6.622   1.834   1.967  1.8977 -3.1293  0.1344
  111MOL   H35842378   6.660   1.739   1.839  0.6279 -1.2575  3.3179
  111MOL   H35942379   6.788   1.828   1.906  0.1102 -0.4455 -0.0451
  111MOL   H36042380   6.666   2.103   1.972  0.3050 -0.4328 -0.2462
  111MOL   H36142381   6.812   2.089   1.901  0.0649 -0.5260 -2.2388
  111MOL   H36242382   6.706   2.182   1.812  2.0294  0.3777  0.1693
  111MOL   C36342383   6.632   1.798   1.329  0.7544 -0.3123 -0.5272
  111MOL   C36442384   6.683   1.661   1.369 -0.3117 -0.4416  0.9178
  111MOL   C36542385   6.827   1.631   1.344 -0.9430 -0.0259 -0.2949
  111MOL   O36642386   6.902   1.714   1.290  0.1724  0.2015  0.3863
  111MOL   N36742387   6.870   1.510   1.373 -0.0624 -0.3358  0.4526
  111MOL   C36842388   7.003   1.465   1.366  0.1433  0.6735 -0.2210
  111MOL   C36942389   7.031   1.385   1.497 -0.7082 -0.4519 -0.3874
  111MOL   C37042390   7.023   1.381   1.247 -0.6805 -0.6039 -0.0137
  111MOL   H37142391   6.654   1.818   1.224  0.0686  1.4492 -0.3552
  111MOL   H37242392   6.524   1.797   1.339  0.8946 -0.7721  0.9587
  111MOL   H37342393   6.618   1.586   1.323 -1.5666  0.7416  0.7143
  111MOL   H37442394   6.798   1.440   1.380 -0.7203  0.1048 -1.5992
  111MOL   H37542395   7.072   1.550   1.360  0.2080  0.6447  0.0931
  111MOL   H37642396   7.105   1.308   1.476  0.0878  0.2590 -0.1883
  111MOL   H37742397   7.063   1.453   1.576  0.6726  0.5044 -1.7448
  111MOL   H37842398   6.944   1.348   1.552  1.8749 -0.0591  4.1507
  111MOL   H37942399   7.029   1.446   1.159 -1.2932  0.2566  0.5686
  111MOL   H38042400   7.114   1.324   1.259  1.1496  2.2665  0.3533
  111MOL   H38142401   6.936   1.324   1.215 -1.5094  1.5982 -1.8902
  111MOL   H38242402   6.678   1.646   1.476  2.0585  0.1269  1.1436
  112MOL     C142403   7.738   6.168   0.201  0.3649  0.6720  0.1513
  112MOL     C242404   0.013   6.193   0.105 -0.1221  0.7910 -0.0116
  112MOL     C342405   0.153   6.201   0.168  0.1951  0.0818 -0.5001
  112MOL     O442406   0.180   6.119   0.255  0.2940  0.4736 -0.3367
  112MOL     N542407   0.237   6.290   0.116 -0.4563  0.0090 -0.2904
  112MOL     C642408   0.378   6.274   0.129 -0.5287 -0.0292  0.0377
  112MOL     C742409   0.445   6.319   0.002 -0.6752  0.7603 -0.0137
  112MOL     C842410   0.436   6.343   0.255 -0.2953  0.9672  0.7746
  112MOL     H942411   7.641   6.151   0.154  0.6829  0.7825 -0.5566
  112MOL    H1042412   7.729   6.248   0.274  1.8439  1.1387 -0.1589
  112MOL    H1142413   7.831   6.288   0.055  1.7160  0.8913 -0.5475
  112MOL    H1242414   0.211   6.332   0.028 -1.0788  1.2743  0.4683
  112MOL    H1342415   0.405   6.170   0.146  0.1990  0.0527 -0.6227
  112MOL    H1442416   0.548   6.286   0.007 -0.4768  1.3647 -0.0476
  112MOL    H1542417   0.440   6.428   0.002 -1.4196  0.7310 -0.3076
  112MOL    H1642418   0.395   6.292   7.745 -2.0395  0.8103  0.6962
  112MOL    H1742419   0.541   6.316   0.263 -0.9458 -1.5239  1.1957
  112MOL    H1842420   0.410   6.449   0.249 -0.2468  0.9160 -0.6400
  112MOL    H1942421   0.390   6.299   0.343 -0.0750 -0.4080  0.2175
  112MOL    H2042422   7.749   6.078   0.261  1.2892  0.7366  0.0839
  112MOL    C2142423   0.019   6.091   7.825  0.8581 -0.8106  0.1679
  112MOL    C2242424   7.794   6.133   7.691 -0.3082 -0.1301  0.4961
  112MOL    C2342425   0.046   6.235   7.613  0.3874 -0.2052  0.6304
  112MOL    O2442426   0.108   6.329   7.667  0.2782 -0.1016  0.0892
  112MOL    N2542427   0.054   6.212   7.485  0.5035 -1.0233  0.1175
  112MOL    C2642428   0.135   6.275   7.381 -0.7722 -0.0050 -0.1240
  112MOL    C2742429   0.079   6.409   7.334  0.0907 -0.1438 -0.0318
  112MOL    C2842430   0.157   6.186   7.266 -0.4169  0.8999  1.0513
  112MOL    H2942431   7.808   5.997   0.018 -0.8867 -0.4916 -1.5647
  112MOL    H3042432   0.126   6.072   7.812  0.8932  1.8301 -4.5200
  112MOL    H3142433   7.795   6.043   7.630  0.6718  0.4609 -0.3739
  112MOL    H3242434   7.834   6.137   7.449 -1.3794  0.1190  0.5827
  112MOL    H3342435   0.229   6.285   7.434  0.3967  0.2632 -2.2167
  112MOL    H3442436   0.092   6.491   7.405  1.1968  0.1109 -0.5206
  112MOL    H3542437   7.811   6.403   7.303 -0.4295  0.9217  1.4620
  112MOL    H3642438   0.135   6.453   7.251 -0.4745  0.6453 -0.0048
  112MOL    H3742439   0.178   6.090   7.312 -1.7789 -0.2352 -0.6611
  112MOL    H3842440   0.069   6.154   7.211 -0.7155  1.1944  1.3532
  112MOL    H3942441   0.238   6.219   7.201  0.4579 -0.3289  1.5047
  112MOL    C4042442   7.639   6.166   7.705  0.7173 -0.5222  0.6490
  112MOL    C4142443   7.571   6.225   7.574 -0.1378 -0.5731  0.5093
  112MOL    C4242444   7.542   6.372   7.603 -0.0918  0.5868 -1.0235
  112MOL    O4342445   7.427   6.416   7.634  0.6220 -0.4687 -0.4942
  112MOL    N4442446   7.648   6.456   7.589 -0.8860  1.0221  0.0382
  112MOL    C4542447   7.651   6.596   7.628 -0.3584  0.1138  0.3878
  112MOL    C4642448   7.771   6.631   7.714  0.2020  1.0308 -0.3052
  112MOL    C4742449   7.649   6.674   7.494 -0.2275  0.0918  0.0028
  112MOL    H4842450   7.619   6.250   7.772 -0.8820  0.6029 -1.1622
  112MOL    H4942451   7.585   6.080   7.744  0.5552 -0.0626  1.4503
  112MOL    H5042452   7.643   6.213   7.493  1.6057 -1.3432  2.1228
  112MOL    H5142453   7.728   6.430   7.534 -1.0214  0.3969  0.1352
  112MOL    H5242454   7.556   6.612   7.680  0.0401  1.5895  0.7103
  112MOL    H5342455   7.764   6.730   7.759 -1.0706  1.1574 -0.7574
  112MOL    H5442456   0.032   6.619   7.666 -0.8957  0.9790 -2.5807
  112MOL    H5542457   7.777   6.560   7.797  0.7781  2.2088  0.6864
  112MOL    H5642458   7.731   6.665   7.423  0.7338  0.0835  1.1037
  112MOL    H5742459   7.639   6.779   7.522  0.9357  0.2783 -0.2720
  112MOL    H5842460   7.560   6.644   7.439  0.1232 -1.2518  0.1478
  112MOL    C5942461   7.445   6.154   7.532 -0.2712 -0.4333  0.2008
  112MOL    C6042462   7.453   6.010   7.493  0.4492 -0.1471 -0.0323
  112MOL    C6142463   7.562   5.971   7.387 -0.1664  0.0004  0.0805
  112MOL    O6242464   7.627   6.050   7.319  0.3068  0.2025  0.0780
  112MOL    N6342465   7.574   5.839   7.374  0.0999  0.9902 -0.3566
  112MOL    C6442466   7.679   5.778   7.287 -0.2677 -0.7114 -0.9048
  112MOL    C6542467   7.807   5.758   7.364  0.1796 -0.2339  0.6601
  112MOL    C6642468   7.640   5.644   7.229  0.2915 -0.1341  0.6761
  112MOL    H6742469   7.378   6.160   7.617 -2.8204  0.0727 -1.7863
  112MOL    H6842470   7.405   6.200   7.441  1.1563 -1.3759 -0.9227
  112MOL    H6942471   7.473   5.958   7.587 -0.3576 -0.5322 -0.0622
  112MOL    H7042472   7.517   5.775   7.428  0.4997 -2.4948 -3.8814
  112MOL    H7142473   7.691   5.846   7.203  0.1641 -0.4396 -0.6218
  112MOL    H7242474   0.048   5.734   7.291 -1.4378 -3.7487  0.0030
  112MOL    H7342475   7.834   5.856   7.404  0.6362 -0.6950  1.5038
  112MOL    H7442476   7.786   5.696   7.451 -0.2417  0.0615  0.7721
  112MOL    H7542477   7.610   5.574   7.307  0.6235 -1.9760 -0.8243
  112MOL    H7642478   7.551   5.663   7.168  0.2092  3.7821  1.8485
  112MOL    H7742479   7.723   5.595   7.178  0.2816 -0.7205  1.2131
  112MOL    C7842480   7.312   5.967   7.450  0.4474 -0.7233  0.6140
  112MOL    C7942481   7.263   6.002   7.314  0.0965 -0.0954 -0.0515
  112MOL    C8042482   7.187   5.895   7.236 -0.2387  0.2326 -0.1045
  112MOL    O8142483   7.111   5.818   7.295  0.1638 -0.0044 -0.5304
  112MOL    N8242484   7.202   5.894   7.106 -0.0487  0.5097 -0.0698
  112MOL    C8342485   7.121   5.818   7.007 -0.9700  0.0457 -0.4166
  112MOL    C8442486   7.151   5.873   6.867  0.0339  0.1336 -0.1047
  112MOL    C8542487   7.144   5.658   7.018  0.6336  0.0094 -0.3292
  112MOL    H8642488   7.240   5.997   7.526 -0.6722  0.8593 -1.0272
  112MOL    H8742489   7.317   5.858   7.449 -0.7473 -0.8002  1.9228
  112MOL    H8842490   7.346   6.026   7.247 -1.6726 -1.6500 -2.8521
  112MOL    H8942491   7.280   5.949   7.072  2.2074 -2.8312 -0.4472
  112MOL    H9042492   7.016   5.844   7.012 -1.6128 -2.0917 -2.4127
  112MOL    H9142493   7.105   5.971   6.851  0.0308 -0.1038 -1.6729
  112MOL    H9242494   7.257   5.874   6.840  0.8774 -0.0968  2.9983
  112MOL    H9342495   7.108   5.806   6.792 -0.8917  0.0650  0.4865
  112MOL    H9442496   7.137   5.615   7.118  2.2773 -1.0873 -0.6664
  112MOL    H9542497   7.238   5.617   6.981 -1.0828 -2.9565 -1.5557
  112MOL    H9642498   7.075   5.606   6.952  0.9466 -2.2503  1.0989
  112MOL    C9742499   7.170   6.129   7.318 -0.4945  0.3903 -0.2806
  112MOL    C9842500   7.144   6.199   7.177  0.3476 -0.7700 -0.7910
  112MOL    C9942501   7.278   6.248   7.116 -0.0960 -0.0254  0.8637
  112MOL   O10042502   7.329   6.186   7.022 -0.0229  0.8914 -0.4207
  112MOL   N10142503   7.340   6.348   7.175 -0.2429  0.0343  0.1854
  112MOL   C10242504   7.454   6.414   7.122  0.2286  0.0599 -0.5748
  112MOL   C10342505   7.445   6.570   7.129  0.4092 -0.2056  0.6110
  112MOL   C10442506   7.583   6.351   7.178 -0.4921  0.3314  0.2117
  112MOL   H10542507   7.209   6.200   7.391  1.0247  0.2282 -0.9156
  112MOL   H10642508   7.074   6.093   7.354  0.3336  0.1162  1.7031
  112MOL   H10742509   7.089   6.139   7.105  0.8362 -1.8293 -0.2986
  112MOL   H10842510   7.312   6.376   7.268  0.5836  2.1898 -0.1892
  112MOL   H10942511   7.473   6.390   7.017  0.8425 -0.0881 -0.4309
  112MOL   H11042512   7.342   6.606   7.139  0.7299  0.1202  2.9528
  112MOL   H11142513   7.505   6.602   7.214  0.9069  0.0289  0.1753
  112MOL   H11242514   7.500   6.616   7.047  5.1225 -0.4766  3.4706
  112MOL   H11342515   7.665   6.404   7.129  0.4733 -0.7897  0.5949
  112MOL   H11442516   7.591   6.243   7.165 -1.6390  0.2883 -0.1926
  112MOL   H11542517   7.587   6.386   7.281 -0.1876  0.5859  0.1149
  112MOL   C11642518   7.034   6.313   7.181  0.1975 -0.0382  0.0682
  112MOL   C11742519   6.982   6.373   7.043 -0.4362 -0.0896 -0.1793
  112MOL   C11842520   6.884   6.489   7.072  0.2831  0.0254  0.0603
  112MOL   O11942521   6.780   6.463   7.130  0.0976  0.2010  0.3050
  112MOL   N12042522   6.917   6.615   7.027  0.3284 -0.8392 -0.0626
  112MOL   C12142523   6.816   6.723   7.025  0.5257  0.2591  0.8869
  112MOL   C12242524   6.834   6.803   7.152 -0.2567  0.4569  0.4403
  112MOL   C12342525   6.839   6.813   6.899 -0.7003  0.1325  0.2413
  112MOL   H12442526   7.064   6.398   7.242  2.7528 -1.2853  0.6358
  112MOL   H12542527   6.946   6.282   7.237 -0.8991  1.5408 -0.7235
  112MOL   H12642528   7.063   6.417   6.985 -1.0045 -0.1209 -1.0146
  112MOL   H12742529   7.008   6.645   6.997 -0.4138 -0.6927 -2.3155
  112MOL   H12842530   6.716   6.681   7.019  0.5490  0.1525  1.2206
  112MOL   H12942531   6.767   6.890   7.156  1.5195  1.9484 -0.9137
  112MOL   H13042532   6.937   6.837   7.161  0.7769 -2.0205 -1.4179
  112MOL   H13142533   6.816   6.742   7.240  0.1960  1.1366  1.0140
  112MOL   H13242534   6.787   6.908   6.903  1.5764  1.4023  0.7145
  112MOL   H13342535   6.944   6.839   6.886 -0.6762 -1.4258 -3.2155
  112MOL   H13442536   6.812   6.755   6.811  1.2191  0.6056 -0.6868
  112MOL   C13542537   6.921   6.258   6.956 -0.3820  0.3005  0.1418
  112MOL   C13642538   6.845   6.311   6.821 -0.4373 -0.3417 -0.5532
  112MOL   C13742539   6.898   6.220   6.701 -0.8226  0.1956  0.1311
  112MOL   O13842540   6.979   6.263   6.617 -1.1351 -0.2121 -0.0649
  112MOL   N13942541   6.836   6.102   6.689  0.3288 -0.1636  0.5110
  112MOL   C14042542   6.871   5.998   6.590 -0.4917  0.0029  0.1175
  112MOL   C14142543   6.817   6.036   6.453  0.3218  0.1645  0.4170
  112MOL   C14242544   6.816   5.864   6.640  0.1638  0.1748 -0.3010
  112MOL   H14342545   6.851   6.202   7.018 -1.3498 -0.7291 -1.8388
  112MOL   H14442546   7.009   6.202   6.924 -1.8201 -1.9041 -0.0338
  112MOL   H14542547   6.886   6.409   6.795 -0.0528 -0.4906 -0.5144
  112MOL   H14642548   6.760   6.078   6.751  0.6933 -1.0041  0.6396
  112MOL   H14742549   6.980   5.995   6.583 -0.5023  0.6896 -0.4117
  112MOL   H14842550   6.821   5.947   6.391 -0.6088  0.8312 -0.6061
  112MOL   H14942551   6.710   6.057   6.458  0.2750  0.2032 -0.6708
  112MOL   H15042552   6.875   6.117   6.410  0.7497 -0.5120 -0.3029
  112MOL   H15142553   6.709   5.857   6.661  0.6300  1.0672  2.7547
  112MOL   H15242554   6.860   5.823   6.732 -1.3680 -0.5698  0.1164
  112MOL   H15342555   6.845   5.774   6.585 -0.2045 -0.4042  0.4368
  112MOL   C15442556   6.689   6.320   6.826 -0.1315  0.0188 -0.1118
  112MOL   C15542557   6.599   6.394   6.723  0.4522 -0.1862 -0.0438
  112MOL   C15642558   6.538   6.531   6.775  0.6579  0.3391 -0.7740
  112MOL   O15742559   6.476   6.546   6.881 -0.6690  0.0451 -0.0957
  112MOL   N15842560   6.548   6.635   6.691  0.3219 -0.1978 -0.4974
  112MOL   C15942561   6.505   6.769   6.729 -0.1763 -0.6902  0.4831
  112MOL   C16042562   6.357   6.799   6.711  0.6887  0.6852 -0.4064
  112MOL   C16142563   6.586   6.865   6.641 -0.0750  0.4712 -0.7162
  112MOL   H16242564   6.671   6.370   6.921  0.0098 -0.0255 -0.0624
  112MOL   H16342565   6.652   6.223   6.856 -0.5986  0.0880 -0.4669
  112MOL   H16442566   6.663   6.437   6.647 -1.5891  0.7887 -1.2632
  112MOL   H16542567   6.596   6.615   6.605 -1.5666  0.7875 -1.8117
  112MOL   H16642568   6.545   6.783   6.830 -0.4685 -1.0598  0.6515
  112MOL   H16742569   6.310   6.758   6.622  0.0739 -0.8063  0.5973
  112MOL   H16842570   6.300   6.740   6.783 -0.0125 -0.4348 -1.8663
  112MOL   H16942571   6.328   6.904   6.712 -1.6101  0.0715  0.1592
  112MOL   H17042572   6.587   6.847   6.533 -0.7134  2.9527 -1.1664
  112MOL   H17142573   6.692   6.856   6.664 -0.7292 -1.7147  1.6599
  112MOL   H17242574   6.551   6.967   6.656 -2.3863 -0.2499 -0.9084
  112MOL   C17342575   6.494   6.297   6.667 -0.9719 -0.3344  0.2874
  112MOL   C17442576   6.411   6.203   6.770  0.4595  0.0614  0.2805
  112MOL   C17542577   6.261   6.240   6.755 -0.2915  0.6521  0.5227
  112MOL   O17642578   6.181   6.164   6.704 -0.6817  0.0801 -0.3464
  112MOL   N17742579   6.229   6.361   6.806  0.1153 -0.1916 -0.1210
  112MOL   C17842580   6.100   6.424   6.810  0.1757  0.2861  0.0264
  112MOL   C17942581   6.080   6.505   6.683 -0.4273 -0.7403  0.1105
  112MOL   C18042582   6.093   6.505   6.941 -0.2809 -0.5556  0.0456
  112MOL   H18142583   6.553   6.222   6.615 -2.0037  0.0053 -1.3775
  112MOL   H18242584   6.433   6.356   6.599  0.0326  0.9318  0.4609
  112MOL   H18342585   6.436   6.236   6.871  1.1515 -2.2266  0.8837
  112MOL   H18442586   6.304   6.404   6.858  1.5688  0.9974 -3.0768
  112MOL   H18542587   6.020   6.350   6.818  1.9110 -1.5729  0.8368
  112MOL   H18642588   6.150   6.588   6.678 -0.2306 -0.9999 -1.8001
  112MOL   H18742589   5.979   6.548   6.679 -0.4508 -0.2945  3.7147
  112MOL   H18842590   6.095   6.444   6.594  1.4891  0.8798 -0.6949
  112MOL   H18942591   6.111   6.442   7.029 -0.1272 -0.5737  0.0017
  112MOL   H19042592   5.995   6.541   6.972  0.3140 -0.0998  1.4745
  112MOL   H19142593   6.159   6.593   6.936 -0.6813 -0.1557  1.4829
  112MOL   C19242594   6.451   6.046   6.762  1.4073  0.4114 -0.5336
  112MOL   C19342595   6.445   5.957   6.890 -0.3032  0.2720  0.4390
  112MOL   C19442596   6.570   5.997   6.966 -0.0302 -0.8861  0.1991
  112MOL   O19542597   6.680   5.988   6.919 -0.5229  0.0882 -0.1714
  112MOL   N19642598   6.551   6.028   7.098 -0.1958  0.0227  0.5243
  112MOL   C19742599   6.654   6.053   7.202  0.0887  0.1200 -0.0657
  112MOL   C19842600   6.617   6.188   7.265  0.0834 -0.1618 -0.1415
  112MOL   C19942601   6.653   5.936   7.311  0.2424 -0.1279  0.1171
  112MOL   H20042602   6.540   6.035   6.700  1.2267 -0.6479 -0.6275
  112MOL   H20142603   6.385   6.013   6.682 -0.2508  0.9256  0.5973
  112MOL   H20242604   6.351   5.989   6.934 -1.3325 -3.1588  0.8245
  112MOL   H20342605   6.453   6.022   7.123 -0.9420 -2.2621 -2.6732
  112MOL   H20442606   6.756   6.052   7.164  0.3303  1.4057  0.5328
  112MOL   H20542607   6.629   6.268   7.191  1.4739 -0.5036 -0.2991
  112MOL   H20642608   6.688   6.212   7.344  0.8876 -3.3417  0.1376
  112MOL   H20742609   6.522   6.193   7.318  0.1999  0.9494 -0.0155
  112MOL   H20842610   6.685   5.845   7.260 -1.6599 -0.3053 -0.7995
  112MOL   H20942611   6.554   5.921   7.353  0.3123  2.9657  1.5003
  112MOL   H21042612   6.715   5.957   7.398 -0.4374 -2.4924  1.2310
  112MOL   C21142613   6.444   5.804   6.850 -0.7331  0.3998  0.5325
  112MOL   C21242614   6.367   5.706   6.942  1.2061  0.3873  0.5584
  112MOL   C21342615   6.390   5.566   6.887 -0.6243 -0.2722 -0.4862
  112MOL   O21442616   6.500   5.506   6.901  0.0204  0.3780 -0.5218
  112MOL   N21542617   6.283   5.509   6.837  0.3753 -0.2384 -0.0069
  112MOL   C21642618   6.260   5.370   6.801 -0.1382 -0.8273 -0.4904
  112MOL   C21742619   6.159   5.362   6.689 -0.1551  0.8204 -0.1875
  112MOL   C21842620   6.232   5.285   6.927 -0.3529  0.6221  0.4760
  112MOL   H21942621   6.550   5.779   6.843 -0.9441  0.0427 -1.8085
  112MOL   H22042622   6.404   5.782   6.751  1.0041 -1.5381  0.2351
  112MOL   H22142623   6.263   5.738   6.946  0.2816 -2.2538 -1.0097
  112MOL   H22242624   6.203   5.571   6.837  1.3464  1.0439 -0.2713
  112MOL   H22342625   6.351   5.335   6.752 -1.8259 -2.3545 -2.6261
  112MOL   H22442626   6.134   5.260   6.658  0.6412  0.6188 -0.1890
  112MOL   H22542627   6.064   5.400   6.726  0.7644  2.3072  0.6928
  112MOL   H22642628   6.185   5.426   6.604 -2.2706  1.1866 -0.5763
  112MOL   H22742629   6.205   5.184   6.897 -0.7579  0.7193  0.5083
  112MOL   H22842630   6.156   5.321   6.997  1.7237 -0.1914  3.2482
  112MOL   H22942631   6.321   5.285   6.990 -0.2535 -0.3465  0.3397
  112MOL   C23042632   6.414   5.721   7.088  0.1432  0.3732 -0.4689
  112MOL   C23142633   6.338   5.629   7.188 -0.6090 -0.1289  0.1340
  112MOL   C23242634   6.442   5.526   7.249 -0.3899  0.7293  0.2187
  112MOL   O23342635   6.427   5.494   7.366  0.1215  0.9447 -0.4474
  112MOL   N23442636   6.531   5.466   7.168  0.4687 -1.3621  0.1107
  112MOL   C23542637   6.632   5.371   7.207 -0.2362 -0.1654  0.6260
  112MOL   C23642638   6.659   5.288   7.084  0.0418  0.7434 -0.7008
  112MOL   C23742639   6.756   5.448   7.263 -0.0512  0.0826  0.0504
  112MOL   H23842640   6.389   5.823   7.118  0.8739 -0.0860  1.8560
  112MOL   H23942641   6.523   5.712   7.092 -0.0447 -1.2663  3.2957
  112MOL   H24042642   6.272   5.563   7.131 -0.3385 -0.3403  0.0621
  112MOL   H24142643   6.520   5.482   7.069  1.2498 -0.2529  0.1787
  112MOL   H24242644   6.576   5.307   7.275 -1.4102  0.1257 -0.0727
  112MOL   H24342645   6.733   5.216   7.121  1.9496  2.4164 -1.1644
  112MOL   H24442646   6.576   5.228   7.046  0.4769  0.9514 -2.0092
  112MOL   H24542647   6.705   5.345   7.004 -0.3423  1.2259 -0.5770
  112MOL   H24642648   6.800   5.483   7.169 -2.0334  0.5034 -0.7508
  112MOL   H24742649   6.834   5.392   7.315  0.6969 -0.0249 -1.1672
  112MOL   H24842650   6.732   5.544   7.309  0.4617  0.1472  0.1891
  112MOL   C24942651   6.241   5.702   7.272  0.2351  0.0439 -0.3678
  112MOL   C25042652   6.157   5.630   7.384 -0.5035 -0.2233 -0.1563
  112MOL   C25142653   6.098   5.500   7.325 -0.0876 -0.1938 -0.4005
  112MOL   O25242654   6.012   5.503   7.236 -0.7921  0.0233 -0.6698
  112MOL   N25342655   6.150   5.382   7.362  0.2277  0.3513 -0.3475
  112MOL   C25442656   6.100   5.256   7.318  0.4722  0.4008 -0.4240
  112MOL   C25542657   6.213   5.153   7.312  0.3072  0.2327  0.6703
  112MOL   C25642658   5.992   5.201   7.411  0.6049  0.0191 -0.2719
  112MOL   H25742659   6.173   5.758   7.208  0.4995  1.0981  0.2599
  112MOL   H25842660   6.294   5.780   7.327 -0.7723 -0.2931  1.1240
  112MOL   H25942661   6.235   5.604   7.456  1.3347  1.4766 -1.4728
  112MOL   H26042662   6.231   5.394   7.420  0.2854 -2.0867  0.1384
  112MOL   H26142663   6.049   5.260   7.222 -0.4117  1.6955  0.0800
  112MOL   H26242664   6.165   5.057   7.295  0.5242  0.5942 -2.1495
  112MOL   H26342665   6.295   5.185   7.248 -1.3158 -0.3052 -1.7110
  112MOL   H26442666   6.258   5.135   7.410  3.4671 -0.9652 -0.9386
  112MOL   H26542667   6.034   5.177   7.508 -1.2446  0.0061  0.5421
  112MOL   H26642668   5.914   5.276   7.420  0.6039 -0.3783  4.3593
  112MOL   H26742669   5.941   5.116   7.366 -0.0727  1.4099 -2.2064
  112MOL   C26842670   6.050   5.725   7.456 -0.3990  0.6103  0.0240
  112MOL   C26942671   5.978   5.666   7.579  0.1917  0.0213 -0.0347
  112MOL   C27042672   6.074   5.646   7.692 -0.3346 -0.6668 -0.5889
  112MOL   O27142673   6.099   5.734   7.772 -0.3332 -0.5973 -0.1226
  112MOL   N27242674   6.120   5.522   7.709 -0.3940 -0.0523 -0.2987
  112MOL   C27342675   6.216   5.487   7.815  0.3885  0.1489 -0.6505
  112MOL   C27442676   6.141   5.475   0.110  0.3730 -0.2368 -0.1770
  112MOL   C27542677   6.280   5.359   7.777  0.0513 -0.5064  0.0252
  112MOL   H27642678   6.099   5.817   7.490  0.5307  0.3168 -0.5166
  112MOL   H27742679   5.984   5.752   7.374  1.3792 -0.1931 -1.7123
  112MOL   H27842680   5.950   5.566   7.547 -0.3867  0.1384  0.0987
  112MOL   H27942681   6.074   5.452   7.653  0.3624  0.1698 -1.2114
  112MOL   H28042682   6.288   5.568   7.823 -0.1086  0.6298 -0.9880
  112MOL   H28142683   6.106   5.575   0.134 -0.7917 -0.7659  0.3540
  112MOL   H28242684   6.051   5.414   0.122 -1.5014  2.7206  1.6038
  112MOL   H28342685   6.202   5.435   0.192 -1.8972 -2.8996  0.3054
  112MOL   H28442686   6.338   5.314   0.021  0.1934 -1.1643 -0.4448
  112MOL   H28542687   6.209   5.276   7.776  0.0882 -0.6239  2.8572
  112MOL   H28642688   6.332   5.348   7.681 -0.2663 -3.0965  0.1222
  112MOL   C28742689   5.848   5.738   7.631  0.0008 -0.6529 -0.6752
  112MOL   C28842690   5.781   5.671   7.751  0.1246 -0.1020  0.2381
  112MOL   C28942691   5.745   5.524   7.714  0.1808 -0.9708 -0.1832
  112MOL   O29042692   5.700   5.497   7.604  0.5337  0.4377 -0.0910
  112MOL   N29142693   5.769   5.439   7.810  0.0546 -0.6697 -0.5564
  112MOL   C29242694   5.750   5.293   7.804  0.2847  0.2277 -0.0071
  112MOL   C29342695   5.876   5.207   7.789  0.1918  0.3998  0.7435
  112MOL   C29442696   5.667   5.249   0.090  0.4837  0.4859 -0.0407
  112MOL   H29542697   5.877   5.838   7.665  1.1063 -1.1327 -0.1939
  112MOL   H29642698   5.777   5.755   7.549 -2.3893  3.0446  2.0073
  112MOL   H29742699   5.860   5.667   7.826  0.1064 -2.3402  0.1682
  112MOL   H29842700   5.832   5.477   0.044  1.0037  0.0520 -1.7679
  112MOL   H29942701   5.685   5.272   7.719 -2.0030  0.0489  1.7554
  112MOL   H30042702   5.857   5.101   7.779  3.8274 -0.2096 -0.5247
  112MOL   H30142703   5.916   5.236   7.692 -0.4748 -0.0761  0.3260
  112MOL   H30242704   5.951   5.231   0.029 -0.5807 -0.8145  1.9057
  112MOL   H30342705   5.640   5.145   0.072  0.8291  0.3993 -0.0592
  112MOL   H30442706   5.717   5.258   0.186 -1.1257  0.1865  0.8479
  112MOL   H30542707   5.579   5.312   0.102  0.8436  0.4790  3.0642
  112MOL   C30642708   5.657   5.747   7.803 -0.5404  0.5436 -0.0184
  112MOL   C30742709   5.600   5.715   0.107 -0.4447  0.5763  0.1447
  112MOL   C30842710   5.724   5.697   0.208  0.7245  0.1368  0.4454
  112MOL   O30942711   5.760   5.587   0.238 -0.0193 -0.2759  0.0718
  112MOL   N31042712   5.765   5.806   0.270  0.2662  0.3360 -0.3961
  112MOL   C31142713   5.883   5.835   0.343 -0.7248 -0.3556 -0.2819
  112MOL   C31242714   5.966   5.933   0.259 -0.4160 -0.4747 -1.0370
  112MOL   C31342715   5.843   5.895   0.482 -0.0446  0.2255  0.4590
  112MOL   H31442716   5.678   5.854   7.803  2.9512 -0.0618  1.5831
  112MOL   H31542717   5.573   5.733   7.735  0.1557 -2.5165 -0.2885
  112MOL   H31642718   5.552   5.809   0.135  1.0352  1.5870 -0.5830
  112MOL   H31742719   5.700   5.883   0.257 -2.5691 -1.8390  0.2809
  112MOL   H31842720   5.943   5.746   0.354 -0.0019 -0.1657 -2.4506
  112MOL   H31942721   6.010   5.885   0.172  0.7235 -0.8554 -0.2631
  112MOL   H32042722   6.047   5.975   0.320 -1.9583  0.1695  0.6112
  112MOL   H32142723   5.905   6.014   0.219  0.7436  1.0034  0.0993
  112MOL   H32242724   5.935   5.905   0.539  0.4338 -0.4336 -0.1923
  112MOL   H32342725   5.765   5.832   0.527  1.8322 -0.7011  2.5297
  112MOL   H32442726   5.805   5.996   0.465 -1.5069 -0.3609  0.1123
  112MOL   C32542727   5.497   5.599   0.114  0.2343 -0.4611 -0.3946
  112MOL   C32642728   5.350   5.647   0.144 -0.0647  0.0459  0.5405
  112MOL   C32742729   5.283   5.700   0.014  0.1592  0.0790 -0.3062
  112MOL   O32842730   5.237   5.813   0.018  0.4279 -0.0380  0.5157
  112MOL   N32942731   5.279   5.616   7.743 -0.2656 -0.3023  0.1311
  112MOL   C33042732   5.206   5.626   7.613 -0.4006 -0.1453 -0.1642
  112MOL   C33142733   5.120   5.509   7.576  0.0167  0.9869  0.0288
  112MOL   C33242734   5.305   5.675   7.515  0.0456 -0.2461  0.9280
  112MOL   H33342735   5.533   5.537   0.196  0.4219 -0.6283 -0.6041
  112MOL   H33442736   5.498   5.536   0.026 -1.5676 -0.9504 -0.0835
  112MOL   H33542737   5.348   5.738   0.203 -0.6210  0.1680  0.3392
  112MOL   H33642738   5.311   5.526   7.777 -1.4175 -0.0162  2.0395
  112MOL   H33742739   5.124   5.696   7.627 -1.2417 -0.8677 -1.4300
  112MOL   H33842740   5.069   5.526   7.482  0.8855 -2.4545 -1.1742
  112MOL   H33942741   5.182   5.423   7.548  0.8245  0.7721  2.3654
  112MOL   H34042742   5.052   5.480   7.656 -1.1833  1.3249 -0.8599
  112MOL   H34142743   5.257   5.696   7.419 -0.3346 -1.0050  0.9442
  112MOL   H34242744   5.386   5.607   7.489  0.7768  1.2260 -0.8016
  112MOL   H34342745   5.349   5.764   7.561  3.6522 -1.7318  0.5315
  112MOL   C34442746   5.256   5.546   0.214 -0.0515  0.9616 -0.1883
  112MOL   C34542747   5.132   5.601   0.295 -0.3951 -0.4379 -0.5158
  112MOL   C34642748   5.020   5.602   0.186 -0.1525 -0.6703  0.1886
  112MOL   O34742749   4.976   5.500   0.140  0.2937  0.6955 -0.1016
  112MOL   N34842750   4.962   5.719   0.146  0.0983 -0.3598  0.3279
  112MOL   C34942751   4.857   5.739   0.053 -0.0923 -0.5639  0.2495
  112MOL   C35042752   4.717   5.734   0.112  0.2686  0.4456 -0.2354
  112MOL   C35142753   4.884   5.858   7.802  0.0830 -0.2388  0.6910
  112MOL   H35242754   5.316   5.512   0.299 -2.4754  0.8268  1.5246
  112MOL   H35342755   5.229   5.453   0.164 -1.3632  1.6596 -0.7817
  112MOL   H35442756   5.160   5.701   0.329  1.5858 -1.1822  0.1236
  112MOL   H35542757   5.005   5.800   0.189 -0.6717 -0.0760  0.5655
  112MOL   H35642758   4.867   5.646   7.834  1.7828 -1.0914  1.4527
  112MOL   H35742759   4.651   5.784   0.042 -1.5814 -0.3320  0.9206
  112MOL   H35842760   4.667   5.638   0.108  1.2442 -0.0530 -0.5464
  112MOL   H35942761   4.709   5.778   0.212  1.9052  0.4332 -0.0858
  112MOL   H36042762   4.888   5.944   0.032  0.5751 -0.2039  0.6194
  112MOL   H36142763   4.979   5.843   7.750  0.4726 -0.9211  1.5885
  112MOL   H36242764   4.807   5.879   7.728  0.4402  1.3763  0.7577
  112MOL   C36342765   5.101   5.505   0.412  0.3210 -0.1882 -0.3502
  112MOL   C36442766   4.988   5.547   0.503  0.8262 -0.2877 -0.2773
  112MOL   C36542767   5.027   5.659   0.601 -0.9365  0.0779 -0.0930
  112MOL   O36642768   5.139   5.650   0.661 -0.5254  0.0610  0.5337
  112MOL   N36742769   4.935   5.756   0.614  0.1366  0.1587  0.2431
  112MOL   C36842770   4.911   5.845   0.725 -0.1930  0.1601 -0.7126
  112MOL   C36942771   4.974   5.990   0.696  0.5055  0.1893  0.6945
  112MOL   C37042772   4.757   5.853   0.758  0.0434 -0.3312  0.3859
  112MOL   H37142773   5.196   5.491   0.465 -0.9218  2.6438  2.8250
  112MOL   H37242774   5.060   5.415   0.366 -0.5560 -0.3631  0.7649
  112MOL   H37342775   4.959   5.470   0.574 -0.9401 -0.7066 -1.4238
  112MOL   H37442776   4.887   5.771   0.526  2.6278  0.3021 -1.1375
  112MOL   H37542777   4.966   5.813   0.814 -0.3289  1.7172 -0.0508
  112MOL   H37642778   4.919   6.049   0.623 -0.8396 -2.2005 -0.2754
  112MOL   H37742779   4.969   6.044   0.791 -0.9403  0.6487  0.3739
  112MOL   H37842780   5.079   5.990   0.670  0.0039  1.0882 -1.4109
  112MOL   H37942781   4.729   5.950   0.800 -1.6760 -0.6915  0.0974
  112MOL   H38042782   4.691   5.823   0.676 -0.7296  2.7297 -0.1985
  112MOL   H38142783   4.745   5.780   0.838 -0.2487 -1.7084 -0.9042
  112MOL   H38242784   4.898   5.585   0.455  2.0397  2.0199 -0.8171
  113MOL     C142785   2.467   1.856   6.839  0.0426 -0.3683  0.0908
  113MOL     C242786   2.621   1.821   6.832  0.0807  0.8902  0.1822
  113MOL     C342787   2.688   1.887   6.948  0.4351  0.8732  0.2772
  113MOL     O442788   2.655   1.858   7.062 -0.3300 -0.1575 -0.6682
  113MOL     N542789   2.771   1.977   6.925  0.3210 -0.2424 -0.3656
  113MOL     C642790   2.839   2.076   7.014 -0.3492 -0.4523 -0.5025
  113MOL     C742791   2.966   2.121   6.949 -0.3196 -0.0501  1.0293
  113MOL     C842792   2.746   2.181   7.065  0.2609  0.2541  0.1246
  113MOL     H942793   2.439   1.957   6.869  0.1266  0.3107 -1.9991
  113MOL    H1042794   2.420   1.795   6.915  1.4220 -3.0131 -1.0969
  113MOL    H1142795   2.654   1.861   6.736  1.1440 -1.0625 -0.2957
  113MOL    H1242796   2.786   2.000   6.828  0.5968 -2.5563 -0.8986
  113MOL    H1342797   2.877   2.010   7.092  1.5552  0.7585 -0.3822
  113MOL    H1442798   2.958   2.158   6.846 -1.3271 -2.5274  0.1837
  113MOL    H1542799   3.040   2.042   6.937  0.4266  0.7456  0.3316
  113MOL    H1642800   3.022   2.199   6.999  1.4627 -1.4660  1.2697
  113MOL    H1742801   2.791   2.279   7.078  0.2290  0.4196 -0.9497
  113MOL    H1842802   2.658   2.206   7.004 -2.4125 -2.5533  2.6747
  113MOL    H1942803   2.699   2.160   7.161  0.4430  0.2412  0.2114
  113MOL    H2042804   2.420   1.837   6.742 -3.1885 -0.6940  1.6644
  113MOL    C2142805   2.659   1.667   6.832  0.3350  0.0538  0.0167
  113MOL    C2242806   2.622   1.581   6.706  0.4570 -0.1250  0.8154
  113MOL    C2342807   2.472   1.578   6.682  0.1164  0.7251  0.2170
  113MOL    O2442808   2.394   1.534   6.768 -0.4306  0.0413 -0.2104
  113MOL    N2542809   2.424   1.625   6.565  0.0598 -0.1985 -0.1420
  113MOL    C2642810   2.292   1.606   6.509  0.4312  0.5945  0.3812
  113MOL    C2742811   2.293   1.562   6.360 -0.2895 -1.1219  0.0921
  113MOL    C2842812   2.183   1.714   6.538  0.6827 -0.5411 -0.0472
  113MOL    H2942813   2.625   1.626   6.928 -2.8566 -0.9468 -1.4534
  113MOL    H3042814   2.767   1.670   6.839  0.3299  1.9462 -0.5991
  113MOL    H3142815   2.675   1.633   6.625  1.2145 -2.4934 -0.2446
  113MOL    H3242816   2.491   1.663   6.500  0.2425 -1.4667 -0.7132
  113MOL    H3342817   2.246   1.526   6.567 -2.1013  1.8722  0.2004
  113MOL    H3442818   2.190   1.543   6.331 -1.2638  4.5449 -0.6080
  113MOL    H3542819   2.351   1.470   6.352  2.8385  0.7863 -0.1416
  113MOL    H3642820   2.334   1.632   6.288  1.0640 -0.8845  1.0648
  113MOL    H3742821   2.213   1.809   6.494  0.3415 -0.6010 -0.4091
  113MOL    H3842822   2.082   1.693   6.504  1.6023 -1.6604 -2.2418
  113MOL    H3942823   2.174   1.726   6.646 -0.4702  2.1814 -0.4129
  113MOL    C4042824   2.684   1.437   6.716  0.3596  0.2822  0.3773
  113MOL    C4142825   2.643   1.317   6.621 -0.3797  0.3765  0.7267
  113MOL    C4242826   2.702   1.187   6.676 -0.0481 -0.3848 -1.2038
  113MOL    O4342827   2.827   1.164   6.663  0.3866 -0.9617  0.3863
  113MOL    N4442828   2.618   1.102   6.730 -0.0870 -0.0753  0.5894
  113MOL    C4542829   2.640   0.962   6.766  0.4568  0.3787 -0.3272
  113MOL    C4642830   2.572   0.928   6.902 -0.0615 -0.1140 -0.0283
  113MOL    C4742831   2.583   0.865   6.668  0.0631 -0.7108  0.2207
  113MOL    H4842832   2.639   1.406   6.811 -0.4918  0.2529 -0.0271
  113MOL    H4942833   2.791   1.437   6.733  0.5419  0.0343 -0.7397
  113MOL    H5042834   2.534   1.314   6.630 -0.8426  1.9720 -3.2801
  113MOL    H5142835   2.523   1.132   6.745  0.1161  0.9775 -0.1104
  113MOL    H5242836   2.747   0.943   6.779  0.9056  0.6386 -3.4071
  113MOL    H5342837   2.467   0.959   6.895  0.6166  2.3722  0.5609
  113MOL    H5442838   2.616   0.992   6.978  0.8320  0.1408 -0.7614
  113MOL    H5542839   2.572   0.824   6.935 -0.2017  0.5483  2.1123
  113MOL    H5642840   2.623   0.765   6.684  0.8056 -0.6049 -0.8837
  113MOL    H5742841   2.617   0.893   6.568  1.6032 -0.9504  0.6671
  113MOL    H5842842   2.474   0.857   6.670 -0.0341  0.5557  0.3465
  113MOL    C5942843   2.671   1.345   6.473 -0.6204 -0.4786  0.3292
  113MOL    C6042844   2.621   1.236   6.378  0.0037  0.0961 -0.0202
  113MOL    C6142845   2.632   1.279   6.232  0.3614  0.3736  0.1943
  113MOL    O6242846   2.554   1.364   6.185  0.6673 -0.2461 -0.1397
  113MOL    N6342847   2.730   1.226   6.155 -0.6593  0.0988  0.2235
  113MOL    C6442848   2.730   1.217   6.007 -0.2221 -0.6732 -0.2667
  113MOL    C6542849   2.775   1.350   5.948  0.0441 -0.4998 -0.2224
  113MOL    C6642850   2.828   1.102   5.968  0.9595 -0.0438 -0.6645
  113MOL    H6742851   2.614   1.431   6.441 -0.8243 -1.3651 -1.8022
  113MOL    H6842852   2.776   1.372   6.462 -0.7623  0.6969  1.7048
  113MOL    H6942853   2.686   1.151   6.398 -0.4180  0.1255  1.5488
  113MOL    H7042854   2.794   1.161   6.198 -2.0825 -0.4093  1.6312
  113MOL    H7142855   2.631   1.186   5.972 -0.5123  1.3335 -1.3125
  113MOL    H7242856   2.851   1.399   6.009 -1.6538  1.8947  0.0114
  113MOL    H7342857   2.821   1.333   5.850 -2.2693  2.9553 -2.0348
  113MOL    H7442858   2.694   1.418   5.923  0.7442  0.5708  0.3686
  113MOL    H7542859   2.824   1.025   6.045 -0.3062  1.4117  0.7745
  113MOL    H7642860   2.797   1.048   5.879 -1.2185  2.6812 -1.6209
  113MOL    H7742861   2.933   1.131   5.967  0.9978 -0.0753  0.6765
  113MOL    C7842862   2.476   1.187   6.411  0.1771  0.1280  0.4026
  113MOL    C7942863   2.382   1.116   6.314  0.0515  0.3647  0.1841
  113MOL    C8042864   2.454   0.997   6.256  0.2005  0.4746 -0.0180
  113MOL    O8142865   2.525   0.923   6.327 -0.7604  0.2294  0.4582
  113MOL    N8242866   2.440   0.971   6.121  0.1726 -0.3146 -0.2173
  113MOL    C8342867   2.504   0.869   6.047 -0.0457 -0.6696  0.2635
  113MOL    C8442868   2.451   0.727   6.086  0.3604 -0.0504  0.5770
  113MOL    C8542869   2.482   0.889   5.897  0.1362  0.1637 -0.3516
  113MOL    H8642870   2.418   1.265   6.461 -1.2094  0.5097 -1.7089
  113MOL    H8742871   2.491   1.114   6.490  1.3208 -2.1552 -1.8423
  113MOL    H8842872   2.349   1.181   6.233  2.3132 -0.0860 -1.1550
  113MOL    H8942873   2.391   1.043   6.070  0.1259 -0.4566 -0.3706
  113MOL    H9042874   2.610   0.871   6.070 -0.0127 -2.2287  0.3303
  113MOL    H9142875   2.347   0.718   6.053  0.1033  0.3217  1.2682
  113MOL    H9242876   2.507   0.651   6.031 -2.6282 -2.4039  0.6536
  113MOL    H9342877   2.449   0.705   6.193 -0.6282  0.7086  0.7228
  113MOL    H9442878   2.532   0.812   5.838 -0.3108 -0.6408  0.3029
  113MOL    H9542879   2.521   0.985   5.863 -1.8599  0.5331 -1.6825
  113MOL    H9642880   2.378   0.900   5.867  0.3350  0.5334 -0.9144
  113MOL    C9742881   2.256   1.087   6.399 -0.6250  0.2818 -0.1701
  113MOL    C9842882   2.142   1.010   6.325  0.1192 -0.2603  0.0145
  113MOL    C9942883   2.087   1.089   6.203 -0.0107  0.3885 -0.2593
  113MOL   O10042884   2.053   1.207   6.212 -0.2262 -0.1979 -0.0394
  113MOL   N10142885   2.081   1.025   6.086  0.1516  0.6115 -0.4298
  113MOL   C10242886   2.017   1.086   5.967 -0.2188 -0.0363  0.2146
  113MOL   C10342887   2.080   1.017   5.846 -0.2711  0.1496  0.8491
  113MOL   C10442888   1.863   1.077   5.962  0.3572 -0.8269 -0.4372
  113MOL   H10542889   2.218   1.186   6.425 -0.5473  0.6495 -1.4171
  113MOL   H10642890   2.290   1.025   6.482  0.0091  0.5948 -0.1848
  113MOL   H10742891   2.180   0.915   6.288 -2.3842 -1.2424 -0.0723
  113MOL   H10842892   2.109   0.928   6.087  2.2800  1.1860  2.2590
  113MOL   H10942893   2.044   1.192   5.971  1.2699 -0.3913  0.1296
  113MOL   H11042894   2.187   1.033   5.835 -0.2469  0.4964  1.5874
  113MOL   H11142895   2.067   0.909   5.847  2.5734 -0.2427  0.3853
  113MOL   H11242896   2.037   1.056   5.753  0.1971 -2.0595 -0.3375
  113MOL   H11342897   1.835   1.164   6.023  1.0458 -1.2716  0.5260
  113MOL   H11442898   1.817   0.991   6.011  0.6578 -0.7293  0.0197
  113MOL   H11542899   1.822   1.091   5.862  0.9387  0.0238 -0.5665
  113MOL   C11642900   2.024   0.970   6.426 -0.4940 -0.0342  0.2887
  113MOL   C11742901   1.930   0.868   6.372 -0.8118  0.3512  0.4389
  113MOL   C11842902   1.784   0.918   6.384  0.4789  0.3178 -0.1620
  113MOL   O11942903   1.732   0.925   6.495 -0.4036 -0.7779  0.1248
  113MOL   N12042904   1.725   0.943   6.266 -0.1277  0.2955 -0.3439
  113MOL   C12142905   1.588   0.983   6.240 -0.1529 -0.2169  0.4467
  113MOL   C12242906   1.574   1.099   6.143 -0.5571 -0.4102  0.2067
  113MOL   C12342907   1.519   0.859   6.190  0.5578  1.1784  0.4276
  113MOL   H12442908   1.971   1.061   6.455 -0.3202  0.5526 -1.2107
  113MOL   H12542909   2.070   0.939   6.520  1.6642 -1.3404 -1.1418
  113MOL   H12642910   1.958   0.862   6.267 -0.7183 -0.9097  0.5272
  113MOL   H12742911   1.792   0.933   6.191  1.2232 -1.4996  1.0856
  113MOL   H12842912   1.542   1.013   6.334 -0.2345 -2.8773  1.2900
  113MOL   H12942913   1.586   1.069   6.039 -0.4824  0.9045 -0.1785
  113MOL   H13042914   1.647   1.178   6.161 -1.4091  0.6910 -0.9898
  113MOL   H13142915   1.479   1.146   6.170 -0.6556 -0.4806 -0.0204
  113MOL   H13242916   1.419   0.881   6.153 -0.5958 -1.9080  1.5171
  113MOL   H13342917   1.567   0.816   6.102  0.8578  0.7067  0.8183
  113MOL   H13442918   1.509   0.776   6.261  0.4671 -0.3422 -1.3253
  113MOL   C13542919   1.945   0.726   6.435  0.5037 -0.6394  0.0975
  113MOL   C13642920   2.053   0.624   6.383  0.6986 -0.1189  0.6875
  113MOL   C13742921   2.060   0.610   6.232 -0.0104  0.1624  0.1180
  113MOL   O13842922   2.122   0.693   6.161  0.0047 -0.2390 -0.4106
  113MOL   N13942923   1.995   0.514   6.173  0.6524 -0.1566  0.5125
  113MOL   C14042924   1.975   0.503   6.024 -0.5748 -0.7633 -0.4623
  113MOL   C14142925   1.861   0.595   5.971  0.5233  0.4212 -0.4466
  113MOL   C14242926   1.954   0.354   5.989  0.1738  0.7293  0.1489
  113MOL   H14342927   1.852   0.673   6.414  0.8146 -1.6615  1.2739
  113MOL   H14442928   1.947   0.742   6.543  0.9804  1.2571 -0.1599
  113MOL   H14542929   2.018   0.525   6.412  0.1468  0.0798  0.7053
  113MOL   H14642930   1.937   0.453   6.229  1.0145 -0.7588  0.2371
  113MOL   H14742931   2.074   0.519   5.983  0.0795 -0.6759  1.1020
  113MOL   H14842932   1.887   0.701   5.969  0.5340  0.4837  1.8412
  113MOL   H14942933   1.838   0.574   5.867  0.3347 -2.5815  0.1793
  113MOL   H15042934   1.766   0.590   6.023  0.9621  1.2793  0.4695
  113MOL   H15142935   1.993   0.279   6.058 -2.2711 -1.6583 -0.9461
  113MOL   H15242936   1.984   0.329   5.887  0.3792 -2.3625  0.8974
  113MOL   H15342937   1.847   0.333   5.997 -0.4352  2.6616 -2.2270
  113MOL   C15442938   2.188   0.650   6.447  0.1672 -0.2843 -0.0406
  113MOL   C15542939   2.298   0.536   6.437 -0.9631 -0.1307  0.1797
  113MOL   C15642940   2.251   0.419   6.529 -0.8879  0.5453 -0.2472
  113MOL   O15742941   2.169   0.336   6.488  0.2864  0.2347 -0.6976
  113MOL   N15842942   2.309   0.417   6.647  0.6721 -0.3019 -0.3022
  113MOL   C15942943   2.303   0.309   6.743 -0.1633 -0.5786 -0.2468
  113MOL   C16042944   2.364   0.371   6.873 -0.7673  0.0437  1.2869
  113MOL   C16142945   2.378   0.186   6.690 -0.4493  0.1888 -1.1283
  113MOL   H16242946   2.179   0.678   6.552  0.2954  0.3176 -0.1885
  113MOL   H16342947   2.235   0.744   6.418  0.5113 -0.6633 -0.7296
  113MOL   H16442948   2.292   0.498   6.335 -1.1308 -3.1887  1.2760
  113MOL   H16542949   2.388   0.480   6.652  0.9918 -0.8347  3.7442
  113MOL   H16642950   2.198   0.293   6.769 -0.3763  0.3501 -0.5032
  113MOL   H16742951   2.469   0.398   6.861 -0.8537  1.3574  3.3701
  113MOL   H16842952   2.308   0.458   6.904 -1.7755  0.2734 -1.0313
  113MOL   H16942953   2.353   0.300   6.955  2.0483 -1.1057  0.7449
  113MOL   H17042954   2.316   0.140   6.612 -1.1743 -0.1763 -0.3515
  113MOL   H17142955   2.380   0.115   6.773 -2.3093  0.1415 -1.0986
  113MOL   H17242956   2.482   0.198   6.662 -0.0611 -1.0803 -0.2802
  113MOL   C17342957   2.440   0.589   6.474 -0.3065  0.1101 -0.5414
  113MOL   C17442958   2.552   0.488   6.458  0.4902  0.0622  0.1174
  113MOL   C17542959   2.543   0.418   6.317  0.2192 -0.7727  0.3468
  113MOL   O17642960   2.599   0.471   6.217 -0.0513 -0.5182 -0.4167
  113MOL   N17742961   2.472   0.307   6.313 -0.6462  0.0764 -0.3854
  113MOL   C17842962   2.445   0.225   6.198  0.1406  0.5901  0.1231
  113MOL   C17942963   2.296   0.241   6.154  0.5498  0.5783  0.1406
  113MOL   C18042964   2.454   0.081   6.222 -0.4099 -0.4347  0.4410
  113MOL   H18142965   2.438   0.631   6.574 -0.7041 -0.5011 -0.2920
  113MOL   H18242966   2.465   0.670   6.405  2.4870  0.8315  1.2176
  113MOL   H18342967   2.546   0.411   6.535  1.5183 -0.5666 -0.3998
  113MOL   H18442968   2.434   0.288   6.404 -1.1847  2.5061 -0.0538
  113MOL   H18542969   2.506   0.260   6.115 -1.4629 -1.8640 -2.1687
  113MOL   H18642970   2.265   0.160   6.088  0.6762 -0.0567  0.8434
  113MOL   H18742971   2.293   0.338   6.105 -2.1619  1.0251  1.0903
  113MOL   H18842972   2.226   0.246   6.238  0.2216  0.7165 -0.1425
  113MOL   H18942973   2.556   0.055   6.252  0.5647  0.2423 -2.2109
  113MOL   H19042974   2.431   0.031   6.128  0.5103  1.4233 -0.8114
  113MOL   H19142975   2.404   0.044   6.311 -0.0302 -1.5588  0.1988
  113MOL   C19242976   2.698   0.538   6.479  0.0516 -0.6954 -0.4430
  113MOL   C19342977   2.801   0.452   6.553  0.6166 -0.7311  0.4401
  113MOL   C19442978   2.831   0.320   6.478 -0.8221 -0.2907 -0.4078
  113MOL   O19542979   2.755   0.220   6.486  1.2482  0.1143  0.6873
  113MOL   N19642980   2.944   0.308   6.422 -0.8735  0.5927 -0.1954
  113MOL   C19742981   3.007   0.194   6.371  0.0888  0.7903 -0.4413
  113MOL   C19842982   3.122   0.244   6.285 -0.9667 -0.1922 -0.2906
  113MOL   C19942983   3.043   0.087   6.483 -0.1067 -0.0717 -0.1900
  113MOL   H20042984   2.698   0.637   6.525 -1.0989 -0.4945 -0.8563
  113MOL   H20142985   2.751   0.559   6.386  1.9323 -0.3757  0.6666
  113MOL   H20242986   2.888   0.516   6.541 -1.5471  2.0641 -0.6924
  113MOL   H20342987   3.004   0.390   6.427 -0.3573  0.2042  0.0512
  113MOL   H20442988   2.936   0.144   6.305  0.5474  0.7242 -0.8938
  113MOL   H20542989   3.183   0.165   6.241  2.0366  0.6859  2.1083
  113MOL   H20642990   3.189   0.310   6.339 -2.1276  0.8457 -0.1043
  113MOL   H20742991   3.080   0.298   6.200 -1.7600 -1.8701 -1.0032
  113MOL   H20842992   3.146   0.052   6.478 -0.0899 -0.3339  1.5907
  113MOL   H20942993   2.970   0.007   6.477 -1.1126  0.9430 -2.0149
  113MOL   H21042994   3.034   0.129   6.583 -1.6151 -0.8507  0.0100
  113MOL   C21142995   2.756   0.432   6.701 -0.2409 -0.6168  0.1326
  113MOL   C21242996   2.861   0.369   6.794  0.0558  0.3346 -0.1537
  113MOL   C21342997   2.981   0.464   6.810 -0.2455  0.5321  0.5576
  113MOL   O21442998   2.973   0.574   6.869  0.5528  0.3705 -0.0279
  113MOL   N21542999   3.096   0.415   6.760  0.6218  0.2764 -0.0900
  113MOL   C21643000   3.224   0.477   6.764 -0.0098 -0.9780  0.1184
  113MOL   C21743001   3.262   0.497   6.618  0.1731 -0.1239  0.5496
  113MOL   C21843002   3.314   0.405   6.865 -0.5935 -0.2239  0.0461
  113MOL   H21943003   2.674   0.360   6.699  0.7791 -1.8441  1.5613
  113MOL   H22043004   2.705   0.516   6.749 -1.0087 -2.5554  2.8639
  113MOL   H22143005   2.889   0.275   6.748  0.6208  0.2430  0.3707
  113MOL   H22243006   3.106   0.318   6.731  0.4535 -0.7611  3.1657
  113MOL   H22343007   3.218   0.575   6.810 -0.5488 -1.3063  0.7450
  113MOL   H22443008   3.178   0.550   6.572  1.1273  1.3651  0.4794
  113MOL   H22543009   3.352   0.556   6.600 -0.6894  1.5233  1.5165
  113MOL   H22643010   3.273   0.407   6.559  0.2391  0.7715 -0.8393
  113MOL   H22743011   3.400   0.380   6.802 -0.3850  1.0406 -0.1701
  113MOL   H22843012   3.260   0.317   6.899 -0.5979 -0.4462 -0.5168
  113MOL   H22943013   3.353   0.472   6.941  2.5309  0.1300 -1.7909
  113MOL   C23043014   2.813   0.335   6.935  0.4020 -0.3768  0.3785
  113MOL   C23143015   2.734   0.198   6.953  0.5030 -0.1924  0.3302
  113MOL   C23243016   2.775   0.084   6.860  1.2558  0.1839  0.5762
  113MOL   O23343017   2.890   0.054   6.849  0.3234  0.3215  0.5351
  113MOL   N23443018   2.678   0.009   6.807  0.5643 -0.2658 -0.1256
  113MOL   C23543019   2.695   7.718   6.744  0.1380 -0.0382 -0.1678
  113MOL   C23643020   2.611   7.605   6.812 -0.4252 -0.2793 -0.2181
  113MOL   C23743021   2.652   7.742   6.599 -0.3794 -0.6122  0.6967
  113MOL   H23843022   2.746   0.413   6.972  0.3175 -1.5394  2.7738
  113MOL   H23943023   2.896   0.327   7.006  0.1666  0.8294  0.8105
  113MOL   H24043024   2.634   0.226   6.919  1.0931  1.5199 -0.0923
  113MOL   H24143025   2.584   0.034   6.833  0.2632 -0.3004 -1.1444
  113MOL   H24243026   2.801   7.692   6.746  0.2796  0.5046 -0.5003
  113MOL   H24343027   2.627   7.500   6.790 -2.0108 -1.4558  3.6563
  113MOL   H24443028   2.630   7.618   6.919 -1.5171 -0.4921  0.0095
  113MOL   H24543029   2.502   7.614   6.812 -0.5090 -1.0573 -2.3849
  113MOL   H24643030   2.543   7.740   6.592 -0.3362 -1.7866  0.2181
  113MOL   H24743031   2.696   7.671   6.530 -1.3944 -2.7152  2.1424
  113MOL   H24843032   2.682   0.006   6.568 -1.0334 -0.0956  1.6850
  113MOL   C24943033   2.732   0.152   7.107 -0.7559 -0.4774 -0.7216
  113MOL   C25043034   2.633   0.043   7.142 -0.4221  0.3465 -0.9604
  113MOL   C25143035   2.487   0.076   7.122  0.5509 -0.1446  0.0327
  113MOL   O25243036   2.439   0.051   7.014 -0.0944 -0.4545  0.1474
  113MOL   N25343037   2.421   0.126   7.225 -0.2257  0.3326  0.1106
  113MOL   C25443038   2.277   0.130   7.242 -0.4269 -0.8122 -0.0660
  113MOL   C25543039   2.240   0.060   7.368  0.5800 -0.1626  0.3253
  113MOL   C25643040   2.244   0.282   7.240  0.6650  0.2189 -0.1900
  113MOL   H25743041   2.698   0.233   7.172  1.9751  0.8784 -0.9221
  113MOL   H25843042   2.832   0.114   7.129 -0.7747  0.8593  1.8770
  113MOL   H25943043   2.659   7.796   7.077  0.1896  0.5185 -0.9434
  113MOL   H26043044   2.481   0.164   7.297 -0.8412  0.4197  0.5893
  113MOL   H26143045   2.232   0.076   7.159 -0.2128  1.1886 -1.5254
  113MOL   H26243046   2.134   0.061   7.390  0.1449 -1.1252 -1.6077
  113MOL   H26343047   2.283   7.796   7.366 -0.9890 -0.8236 -1.2680
  113MOL   H26443048   2.280   0.116   7.452  0.1943  0.9169 -0.2102
  113MOL   H26543049   2.138   0.303   7.253  1.2485  2.0194  2.0998
  113MOL   H26643050   2.279   0.346   7.321 -0.3127  0.6275 -0.0849
  113MOL   H26743051   2.265   0.318   7.140  0.2409 -1.0529 -0.7396
  113MOL   C26843052   2.654   7.821   7.292  0.6919  0.2671 -0.0300
  113MOL   C26943053   2.631   7.670   7.315 -0.9694  0.9373  0.4672
  113MOL   C27043054   2.757   7.594   7.252 -0.1261 -0.1726  0.3340
  113MOL   O27143055   2.869   7.620   7.291 -0.1093 -0.0863  0.0061
  113MOL   N27243056   2.729   7.511   7.154  0.4464 -0.0423  0.0080
  113MOL   C27343057   2.833   7.443   7.070 -0.0529  0.0179 -0.3325
  113MOL   C27443058   2.944   7.543   7.022  0.5353 -0.1052  0.1837
  113MOL   C27543059   2.901   7.323   7.133 -0.3017  0.4425 -1.6664
  113MOL   H27643060   2.753   0.013   7.329  1.2616 -2.0779  0.3332
  113MOL   H27743061   2.598   0.051   7.358  0.1314 -1.3751  1.1604
  113MOL   H27843062   2.545   7.622   7.269  1.8064 -3.6927 -0.2329
  113MOL   H27943063   2.636   7.494   7.119  0.2218  2.8140 -0.9454
  113MOL   H28043064   2.770   7.417   6.984 -1.5217  0.2641  0.6587
  113MOL   H28143065   2.901   7.640   6.998  0.6887 -0.0428  0.1551
  113MOL   H28243066   3.025   7.554   7.095 -0.5813  0.4277  1.3747
  113MOL   H28343067   2.999   7.500   6.938  2.0787  0.3111  0.9507
  113MOL   H28443068   2.927   7.337   7.238 -0.3734  0.1452 -1.6102
  113MOL   H28543069   2.831   7.240   7.142  1.1598 -0.5523  1.0787
  113MOL   H28643070   2.995   7.293   7.088  0.1303  3.8424 -3.2324
  113MOL   C28743071   2.605   7.646   7.466  0.5459  0.3274 -0.6857
  113MOL   C28843072   2.716   7.661   7.577  0.3622  0.5476 -0.3143
  113MOL   C28943073   2.751   7.515   7.620 -0.4872 -0.4896 -0.1275
  113MOL   O29043074   2.691   7.448   7.697 -0.0257  0.1011 -0.0831
  113MOL   N29143075   2.860   7.470   7.554 -0.3803  0.3648 -0.4087
  113MOL   C29243076   2.928   7.340   7.557 -0.4200  1.0018  0.5757
  113MOL   C29343077   2.867   7.228   7.477  0.4700 -0.2543 -0.4872
  113MOL   C29443078   3.081   7.369   7.520  0.4578  0.1730  0.1497
  113MOL   H29543079   2.518   7.707   7.493 -1.0562 -1.6769 -1.1786
  113MOL   H29643080   2.558   7.548   7.468  0.7060  0.2002 -2.1586
  113MOL   H29743081   2.800   7.705   7.523  0.9245  0.5332  0.5335
  113MOL   H29843082   2.901   7.543   7.498  2.7772 -1.5270 -0.6562
  113MOL   H29943083   2.916   7.312   7.661 -0.8433 -0.6185  0.1002
  113MOL   H30043084   2.947   7.163   7.441  0.6789 -0.3797  0.2019
  113MOL   H30143085   2.813   7.161   7.543 -0.7549 -0.6729 -1.8928
  113MOL   H30243086   2.805   7.269   7.397  0.9606 -1.5001 -1.5343
  113MOL   H30343087   3.076   7.389   7.413 -3.4580 -1.2756 -0.0088
  113MOL   H30443088   3.118   7.455   7.576  1.3911  1.0086 -1.7010
  113MOL   H30543089   3.147   7.286   7.541 -0.4802 -0.0719  2.3282
  113MOL   C30643090   2.668   7.745   7.698  0.0824  0.2778  0.5552
  113MOL   C30743091   2.695   0.062   7.672 -0.1798 -0.0850 -0.2191
  113MOL   C30843092   2.823   0.110   7.734  0.0822  0.1391 -0.4451
  113MOL   O30943093   2.853   0.075   0.010  0.1385  0.5108 -0.6516
  113MOL   N31043094   2.902   0.188   7.652  0.2005 -0.2028  0.3993
  113MOL   C31143095   3.031   0.249   7.690 -0.5177 -0.2292 -0.4461
  113MOL   C31243096   3.144   0.169   7.619  0.0283  0.4531 -0.1054
  113MOL   C31343097   3.050   0.397   7.642  0.1467 -0.2994  0.1954
  113MOL   H31443098   2.564   7.721   7.719 -1.0234  0.6227 -3.9293
  113MOL   H31543099   2.727   7.713   7.784  0.3045 -1.7210 -0.3121
  113MOL   H31643100   2.696   0.085   7.566 -2.7709  1.1722 -0.0148
  113MOL   H31743101   2.862   0.222   7.565 -0.6679  0.0790  0.9001
  113MOL   H31843102   3.052   0.240   7.797  3.6810  0.5558 -1.1010
  113MOL   H31943103   3.138   0.181   7.511 -1.9610 -1.8029 -0.3025
  113MOL   H32043104   3.156   0.063   7.642  1.9806  1.2565  2.8984
  113MOL   H32143105   3.242   0.209   7.645  0.3280 -0.5525  0.3453
  113MOL   H32243106   2.982   0.466   7.694  0.2439 -0.4902  0.5790
  113MOL   H32343107   3.024   0.410   7.537  0.7222 -1.3040 -0.0737
  113MOL   H32443108   3.152   0.433   7.651 -0.1076  0.9457 -1.7517
  113MOL   C32543109   2.582   0.146   7.740 -0.6460 -0.4727  0.1569
  113MOL   C32643110   2.575   0.302   7.721 -0.1204  0.3771  0.0742
  113MOL   C32743111   2.605   0.339   7.574  0.2375  0.7886  0.1181
  113MOL   O32843112   2.557   0.261   7.483 -0.7254 -0.0653 -0.4027
  113MOL   N32943113   2.675   0.444   7.546 -0.9398 -0.4660 -0.6373
  113MOL   C33043114   2.690   0.500   7.410 -0.0583 -0.0890  0.9872
  113MOL   C33143115   2.817   0.459   7.336  0.0761  0.3992 -0.5960
  113MOL   C33243116   2.695   0.647   7.416 -0.4194 -0.0473 -0.1303
  113MOL   H33343117   2.572   0.127   0.011  0.0980  1.6131  0.6188
  113MOL   H33443118   2.490   0.097   7.709 -1.4085  0.1789  1.3076
  113MOL   H33543119   2.662   0.346   7.768 -0.0355  0.3076 -0.0178
  113MOL   H33643120   2.715   0.497   7.622  0.6667 -1.1273 -1.0022
  113MOL   H33743121   2.605   0.464   7.352 -0.2598 -0.2635  1.3879
  113MOL   H33843122   2.841   0.354   7.353  0.9632  0.8598  1.1166
  113MOL   H33943123   2.798   0.465   7.229  1.4444 -1.8274 -0.9897
  113MOL   H34043124   2.905   0.514   7.370  0.4187 -0.8177  0.5329
  113MOL   H34143125   2.788   0.689   7.455  0.1248 -1.2683 -0.0979
  113MOL   H34243126   2.612   0.692   7.470 -0.6450 -0.0426 -0.4786
  113MOL   H34343127   2.687   0.694   7.318  0.9662 -0.0721 -0.2692
  113MOL   C34443128   2.443   0.371   7.768 -0.1942 -0.5552  0.0253
  113MOL   C34543129   2.441   0.524   7.766  0.3906  0.3320 -0.3814
  113MOL   C34643130   2.302   0.557   7.826 -0.2502  1.0354 -0.8720
  113MOL   O34743131   2.282   0.560   0.111 -0.1309 -0.2722  0.2266
  113MOL   N34843132   2.208   0.581   7.735  0.0446 -0.3292 -0.2462
  113MOL   C34943133   2.065   0.593   7.762 -0.4373 -0.5213 -0.9066
  113MOL   C35043134   2.018   0.741   7.751  0.0573 -0.5403  0.3407
  113MOL   C35143135   1.980   0.487   7.703  0.3992 -0.9551 -0.4275
  113MOL   H35243136   2.420   0.339   0.033 -0.4613  1.0678  0.4888
  113MOL   H35343137   2.352   0.331   7.725 -1.5392  1.5480  0.8612
  113MOL   H35443138   2.444   0.557   7.662  0.9218  0.1142 -0.4366
  113MOL   H35543139   2.245   0.598   7.643 -0.3908 -0.0323 -0.3672
  113MOL   H35643140   2.048   0.575   0.032  0.6882 -2.2531 -1.0044
  113MOL   H35743141   2.063   0.806   7.827 -1.7046  1.1514 -0.0451
  113MOL   H35843142   2.058   0.791   7.663 -4.3848  0.5280 -1.1622
  113MOL   H35943143   1.910   0.751   7.756  0.2004  1.3771 -0.1713
  113MOL   H36043144   1.989   0.484   7.594  0.7426 -0.8439 -0.4025
  113MOL   H36143145   2.011   0.389   7.738  1.6783  0.0851  1.4357
  113MOL   H36243146   1.874   0.486   7.728  0.3183 -2.2024 -0.7756
  113MOL   C36343147   2.558   0.593   0.002 -0.2247 -1.3735 -0.4920
  113MOL   C36443148   2.572   0.740   7.814  1.0854 -0.9956 -0.3578
  113MOL   C36543149   2.698   0.793   0.041 -0.6753 -0.6801  0.8535
  113MOL   O36643150   2.716   0.762   0.158 -0.1233 -0.1956 -0.0407
  113MOL   N36743151   2.787   0.864   7.810  0.7023 -0.1263 -0.1011
  113MOL   C36843152   2.916   0.907   0.033 -0.0585  0.0542  0.5833
  113MOL   C36943153   3.006   0.777   0.037 -0.1559 -0.1503  0.2033
  113MOL   C37043154   2.978   1.014   7.779  0.4876  0.4000 -0.1653
  113MOL   H37143155   2.653   0.546   7.811 -1.1454 -2.9205 -1.0932
  113MOL   H37243156   2.558   0.573   0.109  1.4016 -0.1967 -0.2566
  113MOL   H37343157   2.486   0.789   0.023  0.8040 -0.4459 -1.4631
  113MOL   H37443158   2.764   0.865   7.711  3.7652  0.7432 -0.8454
  113MOL   H37543159   2.892   0.948   0.131 -2.3005  1.3500 -0.4843
  113MOL   H37643160   2.952   0.702   0.094 -0.2398  1.2276  1.9806
  113MOL   H37743161   3.031   0.744   7.773  1.4670  1.3755  0.0781
  113MOL   H37843162   3.101   0.795   0.088 -0.6124 -0.4260  1.1725
  113MOL   H37943163   3.012   0.976   7.683  0.8214 -1.3599  0.6314
  113MOL   H38043164   2.916   1.104   7.774  1.3464  1.1454  1.9649
  113MOL   H38143165   3.066   1.056   7.829 -0.3993  1.0994  0.8392
  113MOL   H38243166   2.572   0.774   7.711  1.3984  0.1586  0.0251
  114MOL     C143167   5.018   2.067   6.407 -0.0241 -0.0019 -0.1908
  114MOL     C243168   4.997   2.039   6.559  0.7118  0.1042 -0.9454
  114MOL     C343169   4.928   2.161   6.632  0.0218  0.7880  0.3594
  114MOL     O443170   4.823   2.213   6.588 -0.2515  0.0535 -0.1663
  114MOL     N543171   4.974   2.203   6.750 -0.0014 -0.1338 -0.1199
  114MOL     C643172   4.916   2.293   6.846 -0.0800  0.4230 -0.3597
  114MOL     C743173   4.846   2.225   6.960 -0.0261 -0.0104 -0.0433
  114MOL     C843174   5.012   2.392   6.910 -0.5905 -1.1982 -0.4772
  114MOL     H943175   5.017   2.171   6.373  2.2255 -0.1638 -0.8114
  114MOL    H1043176   4.931   2.029   6.354 -1.0224  0.5981  0.9888
  114MOL    H1143177   5.093   2.011   6.603  0.2227  0.4431  0.3583
  114MOL    H1243178   5.057   2.153   6.780  0.0941  1.0672  1.6993
  114MOL    H1343179   4.840   2.359   6.804 -1.5999 -1.4174 -0.5140
  114MOL    H1443180   4.922   2.158   6.999  0.9730  0.3492 -1.3126
  114MOL    H1543181   4.765   2.162   6.924  1.3122 -1.3431 -0.7865
  114MOL    H1643182   4.808   2.279   7.046  1.3468 -1.6780  1.6411
  114MOL    H1743183   4.977   2.434   7.005 -0.0966 -1.4738 -0.1673
  114MOL    H1843184   5.102   2.338   6.940 -0.5896 -0.3603  1.1275
  114MOL    H1943185   5.032   2.472   6.838  1.6258 -2.3303 -1.1683
  114MOL    H2043186   5.110   2.032   6.361  2.9819  3.4737  2.8686
  114MOL    C2143187   4.902   1.919   6.584 -0.6913  0.7376  0.2344
  114MOL    C2243188   4.877   1.876   6.737 -0.2596 -0.4513 -0.1323
  114MOL    C2343189   5.003   1.831   6.812 -0.4549 -0.2450 -0.6312
  114MOL    O2443190   5.076   1.748   6.761  0.7793  0.1424  0.7023
  114MOL    N2543191   5.010   1.875   6.937  0.1749  0.2591 -0.0307
  114MOL    C2643192   5.131   1.850   7.019  0.4340 -0.5473  0.1772
  114MOL    C2743193   5.079   1.851   7.166 -0.8629  0.4576  0.0935
  114MOL    C2843194   5.238   1.950   7.002 -0.2570  0.1860 -0.3544
  114MOL    H2943195   4.943   1.830   6.537 -0.6413 -0.1869  2.0119
  114MOL    H3043196   4.805   1.945   6.541 -0.1864  0.6835 -0.9612
  114MOL    H3143197   4.833   1.963   6.786  1.0017  1.0674 -1.6174
  114MOL    H3243198   4.941   1.932   6.984 -0.7310  0.7836 -1.9401
  114MOL    H3343199   5.169   1.750   6.995  0.6298 -0.7578  1.3402
  114MOL    H3443200   5.005   1.774   7.189  0.4861 -0.8723  0.0574
  114MOL    H3543201   5.041   1.951   7.186 -1.6456  0.2567 -0.3582
  114MOL    H3643202   5.161   1.829   7.234 -1.1919 -0.0841  0.3128
  114MOL    H3743203   5.329   1.929   7.057 -0.8511 -1.6954 -0.0598
  114MOL    H3843204   5.266   1.963   6.897  0.2841  0.8467 -0.1302
  114MOL    H3943205   5.209   2.052   7.029  2.1451  0.6685  0.4890
  114MOL    C4043206   4.766   1.767   6.741 -0.1491 -0.2130 -0.8870
  114MOL    C4143207   4.694   1.733   6.875 -0.4726  0.6700 -0.1542
  114MOL    C4243208   4.646   1.864   6.956 -0.0414  0.3782  0.6056
  114MOL    O4343209   4.723   1.919   7.039  0.5219  0.0751 -0.5518
  114MOL    N4443210   4.520   1.897   6.940 -0.5838  0.4773 -0.4359
  114MOL    C4543211   4.472   2.014   7.011  0.3996 -0.0686  0.1502
  114MOL    C4643212   4.465   2.124   6.905  0.0877  0.0169 -0.8131
  114MOL    C4743213   4.334   1.984   7.072  1.0719  0.0819  0.5059
  114MOL    H4843214   4.799   1.667   6.712 -1.5294 -1.2494  1.0414
  114MOL    H4943215   4.687   1.792   6.669 -0.5338  1.4931  0.1106
  114MOL    H5043216   4.602   1.675   6.864  0.8971 -1.3645 -1.2200
  114MOL    H5143217   4.454   1.845   6.885 -0.6547 -0.3748  0.4378
  114MOL    H5243218   4.536   2.060   7.086 -0.1110  0.7922  0.0745
  114MOL    H5343219   4.405   2.091   6.820 -3.0913 -2.5311  2.2862
  114MOL    H5443220   4.565   2.153   6.871 -0.4736  0.7655 -1.8616
  114MOL    H5543221   4.416   2.213   6.944  1.2171  0.5507 -0.5932
  114MOL    H5643222   4.255   1.961   7.001  1.3217  1.0899 -0.1033
  114MOL    H5743223   4.290   2.061   7.135  1.1107  1.2515 -0.8908
  114MOL    H5843224   4.338   1.899   7.141 -3.5783  0.3852  1.3305
  114MOL    C5943225   4.783   1.638   6.966 -0.0494  0.1129 -0.2076
  114MOL    C6043226   4.717   1.494   6.976 -0.2417  0.4270 -0.1740
  114MOL    C6143227   4.791   1.419   7.095  0.6384  0.0868 -0.7239
  114MOL    O6243228   4.729   1.380   7.193 -0.4984  0.3419 -0.0723
  114MOL    N6343229   4.920   1.405   7.088 -0.5881 -0.0334  0.2727
  114MOL    C6443230   5.006   1.354   7.193 -0.0530  0.4849  0.4432
  114MOL    C6543231   5.066   1.226   7.129  0.6427 -0.3101 -0.6712
  114MOL    C6643232   5.122   1.457   7.218  0.4634 -0.0906  0.1005
  114MOL    H6743233   4.883   1.622   6.926 -0.9374 -1.4485 -1.8789
  114MOL    H6843234   4.789   1.686   7.064 -3.6199  0.3627 -0.0430
  114MOL    H6943235   4.615   1.501   7.014  0.3979 -3.4683  2.5612
  114MOL    H7043236   4.965   1.446   7.007  1.8263 -2.7855  0.1321
  114MOL    H7143237   4.954   1.331   7.286 -0.2493  1.4523  0.5765
  114MOL    H7243238   5.147   1.246   7.059 -0.2157 -0.6408 -1.7825
  114MOL    H7343239   5.110   1.161   7.204 -0.6084 -3.0130 -2.2069
  114MOL    H7443240   4.992   1.169   7.072  2.6374 -1.4125 -2.2116
  114MOL    H7543241   5.189   1.415   7.293  1.2110  0.3338 -0.3271
  114MOL    H7643242   5.172   1.491   7.128  0.0226 -3.6401 -1.5423
  114MOL    H7743243   5.088   1.549   7.268  1.0222  1.1067 -1.6850
  114MOL    C7843244   4.718   1.407   6.850 -0.0816 -0.6367 -0.0758
  114MOL    C7943245   4.647   1.263   6.862  0.5064 -0.3856 -0.3976
  114MOL    C8043246   4.494   1.275   6.883  1.1866 -0.9153  0.4007
  114MOL    O8143247   4.425   1.270   6.781 -0.7072  0.8723 -0.1248
  114MOL    N8243248   4.442   1.279   7.009 -0.0468  0.3676 -0.6712
  114MOL    C8343249   4.306   1.320   7.037  0.2655 -0.3277 -0.2152
  114MOL    C8443250   4.202   1.209   7.026  0.3533  0.5183  0.1487
  114MOL    C8543251   4.298   1.377   7.182  0.3397 -0.1826 -0.0034
  114MOL    H8643252   4.823   1.389   6.826  0.3343  1.3524  0.1249
  114MOL    H8743253   4.663   1.466   6.778 -0.0666 -0.0930  0.3566
  114MOL    H8843254   4.676   1.206   6.950  2.0982 -0.3743 -0.8915
  114MOL    H8943255   4.500   1.261   7.089 -1.7392  2.2668  1.0312
  114MOL    H9043256   4.278   1.395   6.963 -0.5897  0.8055  1.2142
  114MOL    H9143257   4.224   1.117   7.081 -2.9634  0.4888  1.5202
  114MOL    H9243258   4.110   1.247   7.070  0.3307  2.1083 -1.2160
  114MOL    H9343259   4.176   1.185   6.923  1.6487 -0.8926  0.1271
  114MOL    H9443260   4.305   1.304   7.261  2.1682  0.1607  0.1600
  114MOL    H9543261   4.205   1.428   7.207 -0.6321 -0.7311 -2.3263
  114MOL    H9643262   4.387   1.440   7.190 -2.2170  3.6621 -0.1739
  114MOL    C9743263   4.704   1.173   6.752 -0.2773  0.3833  0.2401
  114MOL    C9843264   4.661   1.026   6.741 -0.0935  1.2506  0.1560
  114MOL    C9943265   4.683   0.952   6.878 -0.0726 -0.3924  0.8571
  114MOL   O10043266   4.792   0.964   6.932  0.1079  0.2786  0.5980
  114MOL   N10143267   4.584   0.876   6.927  0.3929 -0.0670 -0.4938
  114MOL   C10243268   4.595   0.802   7.057 -0.5347  0.8074 -0.1026
  114MOL   C10343269   4.453   0.760   7.101  0.7904  0.3191  0.6778
  114MOL   C10443270   4.667   0.673   7.028 -0.3535 -0.1554  0.6050
  114MOL   H10543271   4.811   1.167   6.772 -0.7145 -1.5871  2.1476
  114MOL   H10643272   4.692   1.235   6.664  1.9862  1.6382  0.7841
  114MOL   H10743273   4.554   1.026   6.722 -0.1960 -3.3009  0.1216
  114MOL   H10843274   4.517   0.846   6.858  1.1097  0.4884 -1.4453
  114MOL   H10943275   4.655   0.855   7.132  2.2670 -1.7258 -0.4498
  114MOL   H11043276   4.438   0.688   7.182 -4.9018  0.8591  0.2807
  114MOL   H11143277   4.392   0.849   7.118  0.9992  0.2244  2.0308
  114MOL   H11243278   4.417   0.703   7.016 -0.5046  1.4296  0.4673
  114MOL   H11343279   4.768   0.699   6.995 -0.6920 -0.2909 -0.5739
  114MOL   H11443280   4.614   0.614   6.953  0.3769  3.0077 -2.5166
  114MOL   H11543281   4.673   0.603   7.112 -1.2328 -0.6402  0.2677
  114MOL   C11643282   4.729   0.950   6.624 -0.0923  0.4972  0.9879
  114MOL   C11743283   4.700   0.800   6.602 -0.0779 -0.3433  0.7217
  114MOL   C11843284   4.552   0.775   6.601  0.9729  0.7256 -0.2008
  114MOL   O11943285   4.503   0.729   6.707 -0.7781  0.3918 -0.0493
  114MOL   N12043286   4.480   0.797   6.494  0.3691  0.6983  0.3582
  114MOL   C12143287   4.340   0.769   6.476  0.4532  0.2311  0.4019
  114MOL   C12243288   4.287   0.894   6.417 -0.3814 -0.6413  0.5976
  114MOL   C12343289   4.312   0.648   6.390 -0.7935  0.7823 -0.3529
  114MOL   H12443290   4.836   0.960   6.642  0.4802 -4.4862  1.0242
  114MOL   H12543291   4.701   1.004   6.533  0.5618 -0.3719  0.2551
  114MOL   H12643292   4.729   0.776   6.499  0.3996  1.8422  0.3250
  114MOL   H12743293   4.530   0.824   6.411 -0.3260 -1.9033 -0.9485
  114MOL   H12843294   4.290   0.749   6.571 -0.7807  2.4910  0.2570
  114MOL   H12943295   4.336   0.907   6.321 -1.9929  2.6121  0.1215
  114MOL   H13043296   4.323   0.971   6.486 -1.0867  0.4338 -0.2230
  114MOL   H13143297   4.183   0.895   6.385  0.0958 -1.6945 -1.0477
  114MOL   H13243298   4.380   0.642   6.304 -0.4225 -1.7249  0.0838
  114MOL   H13343299   4.325   0.561   6.454 -0.3383  0.5723 -0.7261
  114MOL   H13443300   4.212   0.643   6.348 -0.9377  0.8917 -0.0244
  114MOL   C13543301   4.781   0.698   6.691 -0.1094  0.2825  0.5967
  114MOL   C13643302   4.912   0.643   6.628  0.3745 -0.1615 -0.3047
  114MOL   C13743303   5.032   0.742   6.662 -0.0337 -0.3736 -0.7145
  114MOL   O13843304   5.127   0.747   6.586 -0.5437 -0.3381 -0.3059
  114MOL   N13943305   5.028   0.820   6.774 -0.8907  1.2519  0.0999
  114MOL   C14043306   5.143   0.901   6.826  0.5825  0.0906  0.4090
  114MOL   C14143307   5.173   0.879   6.970  0.3452  0.1665  0.2138
  114MOL   C14243308   5.100   1.046   6.801  0.7164  0.9305 -0.1784
  114MOL   H14343309   4.722   0.612   6.721 -0.3820  0.1980 -0.1582
  114MOL   H14443310   4.799   0.752   6.784  5.2406 -1.1734  0.5548
  114MOL   H14543311   4.904   0.638   6.519  0.1623 -0.1788 -0.2894
  114MOL   H14643312   4.942   0.821   6.828 -0.5269  0.8347  0.6863
  114MOL   H14743313   5.237   0.878   6.777  0.6102 -1.0356  0.9941
  114MOL   H14843314   5.239   0.960   7.004  1.6632 -1.3487  1.3383
  114MOL   H14943315   5.083   0.898   7.029 -0.4068 -0.0167 -0.8488
  114MOL   H15043316   5.217   0.781   6.986  0.3027  0.1849  0.4461
  114MOL   H15143317   5.183   1.107   6.837 -0.6646  3.0094 -0.4466
  114MOL   H15243318   5.004   1.069   6.847 -0.1818 -2.0026 -0.4960
  114MOL   H15343319   5.095   1.057   6.692  1.0004 -0.8487 -0.3830
  114MOL   C15443320   4.949   0.507   6.688 -0.2308  0.5121  0.3199
  114MOL   C15543321   5.061   0.417   6.621 -0.1282  0.7389  0.0895
  114MOL   C15643322   5.020   0.379   6.480  0.0842 -0.2232 -0.2417
  114MOL   O15743323   4.903   0.345   6.461  0.1467 -0.1305  1.1531
  114MOL   N15843324   5.116   0.379   6.384  0.3889 -0.6765  0.0115
  114MOL   C15943325   5.090   0.381   6.241 -0.3363 -0.0604  0.1948
  114MOL   C16043326   5.229   0.357   6.171 -0.4159 -0.1247  0.2594
  114MOL   C16143327   5.022   0.516   6.212 -0.2025  0.1011 -0.5058
  114MOL   H16243328   4.860   0.447   6.701 -0.3006  0.9952  2.3400
  114MOL   H16343329   4.980   0.534   6.790  2.2888 -0.5183 -0.1229
  114MOL   H16443330   5.147   0.480   6.598 -0.1583  1.2335  1.3009
  114MOL   H16543331   5.215   0.387   6.404  0.5458 -0.7571 -0.7539
  114MOL   H16643332   5.017   0.305   6.214 -0.6202  0.2569  0.0611
  114MOL   H16743333   5.274   0.269   6.216 -0.6628 -0.4132 -0.0586
  114MOL   H16843334   5.229   0.348   6.062  3.1245  0.1776  0.1691
  114MOL   H16943335   5.304   0.435   6.187 -0.4492  0.8264 -3.6292
  114MOL   H17043336   4.932   0.526   6.273  0.6942  1.7145  0.5720
  114MOL   H17143337   5.005   0.525   6.105 -1.5661 -2.7372 -0.5907
  114MOL   H17243338   5.082   0.595   6.256 -0.4576 -0.2934  0.5596
  114MOL   C17343339   5.096   0.299   6.715 -0.5545 -0.5141 -0.8981
  114MOL   C17443340   4.986   0.192   6.759 -0.1365 -0.0922  0.3942
  114MOL   C17543341   4.982   0.076   6.661 -0.6204 -0.3910 -0.2416
  114MOL   O17643342   5.072   7.833   6.649 -0.2574 -0.0044  0.7808
  114MOL   N17743343   4.869   0.065   6.593  0.0826 -0.2301  0.5313
  114MOL   C17843344   4.829   7.799   6.499  0.6472 -0.5585 -0.1034
  114MOL   C17943345   4.759   0.019   6.374 -0.1462 -0.5717 -0.1291
  114MOL   C18043346   4.742   7.695   6.562  0.7207 -0.7661  0.3198
  114MOL   H18143347   5.139   0.350   6.801  0.8149 -1.6204 -0.9117
  114MOL   H18243348   5.175   0.244   6.663  1.2503 -0.4268  1.6372
  114MOL   H18343349   4.892   0.245   6.746  0.2170 -0.0809 -2.4468
  114MOL   H18443350   4.798   0.135   6.605 -1.0627 -1.5499  1.5699
  114MOL   H18543351   4.918   7.754   6.455 -0.6990 -2.0202 -1.4217
  114MOL   H18643352   4.658   0.052   6.398 -0.9211 -2.3614 -0.8415
  114MOL   H18743353   4.750   7.787   6.290 -0.1688  0.5120 -1.0228
  114MOL   H18843354   4.807   0.113   6.347  0.2200 -0.3272  1.3590
  114MOL   H18943355   4.682   7.660   6.478 -0.4320 -0.2727  0.9211
  114MOL   H19043356   4.672   7.737   6.635  1.4196  0.6345  0.1992
  114MOL   H19143357   4.795   7.608   6.601  0.8645 -1.5703 -1.6185
  114MOL   C19243358   4.988   0.148   6.907 -1.4298 -0.4153 -0.1283
  114MOL   C19343359   4.872   0.090   6.985 -0.1561 -0.7979  0.7026
  114MOL   C19443360   4.743   0.171   6.959  0.1567  0.4370  0.5816
  114MOL   O19543361   4.735   0.279   7.010 -0.1990  0.1569  0.1478
  114MOL   N19643362   4.643   0.116   6.889  0.4276  0.1972 -0.0931
  114MOL   C19743363   4.526   0.182   6.826 -0.0780 -0.2314 -0.2532
  114MOL   C19843364   4.556   0.217   6.682  0.1210  0.4887  0.7517
  114MOL   C19943365   4.390   0.106   6.826 -0.2090  0.3532 -0.1054
  114MOL   H20043366   5.030   0.227   6.969 -0.4870 -1.4864  0.6071
  114MOL   H20143367   5.050   0.059   6.910  0.3763  0.8380  0.5809
  114MOL   H20243368   4.857   7.833   6.931  0.2405 -0.6656  0.3664
  114MOL   H20343369   4.638   0.016   6.874 -0.7487 -0.0006  1.5416
  114MOL   H20443370   4.514   0.279   6.874  0.2250 -0.0654 -0.5096
  114MOL   H20543371   4.649   0.274   6.672 -0.3209  1.0432 -0.1642
  114MOL   H20643372   4.475   0.280   6.647 -1.3398 -0.6960  1.9633
  114MOL   H20743373   4.558   0.130   6.617 -2.5003  0.9134  0.0503
  114MOL   H20843374   4.394   0.007   6.779  0.3042 -0.2862  1.2551
  114MOL   H20943375   4.309   0.157   6.775 -0.2448  0.4737  0.0735
  114MOL   H21043376   4.348   0.119   6.926 -2.1128 -0.6011 -0.7603
  114MOL   C21143377   4.901   0.056   7.133  0.5340  0.1179 -0.5564
  114MOL   C21243378   4.798   7.825   7.219 -0.0132  0.6658  0.1426
  114MOL   C21343379   4.780   7.675   7.196  0.1057 -0.5058 -0.0771
  114MOL   O21443380   4.727   7.624   7.096  0.1438 -0.1059  0.2929
  114MOL   N21543381   4.841   7.595   7.291  0.5136  0.1438  0.3700
  114MOL   C21643382   4.834   7.450   7.302 -0.6666  1.2492 -0.5598
  114MOL   C21743383   4.746   7.419   7.421  0.2345  0.0443  0.2692
  114MOL   C21843384   4.979   7.396   7.328  0.3619 -0.1189  0.5328
  114MOL   H21943385   4.937   0.147   7.181 -0.1491 -0.3777  0.9090
  114MOL   H22043386   4.992   7.833   7.138  0.4888  0.0855 -0.1032
  114MOL   H22143387   4.700   0.027   7.191  0.3407  1.6284  0.2087
  114MOL   H22243388   4.895   7.642   7.362 -0.8551  0.4698  1.2355
  114MOL   H22343389   4.805   7.399   7.210  2.9124  1.4208 -1.8761
  114MOL   H22443390   4.773   7.477   7.509 -0.3279  0.4556  0.1737
  114MOL   H22543391   4.639   7.434   7.403 -0.5143 -2.2789  2.4449
  114MOL   H22643392   4.747   7.314   7.449 -0.7059  0.1983  0.9192
  114MOL   H22743393   5.045   7.423   7.246 -1.0458  5.0508  0.9015
  114MOL   H22843394   4.976   7.291   7.357 -1.8245 -0.7692 -1.8940
  114MOL   H22943395   5.002   7.452   7.418 -0.0618  0.1534  0.4725
  114MOL   C23043396   4.814   0.022   7.371  1.0348 -0.2735  0.9464
  114MOL   C23143397   4.799   0.169   7.421  0.1569 -0.3566  0.0505
  114MOL   C23243398   4.651   0.222   7.422 -0.3376  0.5087 -0.8617
  114MOL   O23343399   4.582   0.208   7.524  0.1496 -0.5715  0.0595
  114MOL   N23443400   4.605   0.292   7.315 -0.4965  0.5185 -0.0278
  114MOL   C23543401   4.463   0.347   7.300 -0.4716 -0.2315 -0.1406
  114MOL   C23643402   4.433   0.472   7.384 -0.4049  0.4584  0.0404
  114MOL   C23743403   4.431   0.360   7.151 -0.3909  0.2906  0.3159
  114MOL   H23843404   4.909   7.821   7.410  1.7000 -0.4855 -0.7844
  114MOL   H23943405   4.747   7.793   7.427 -2.3836  0.4701 -2.0606
  114MOL   H24043406   4.861   0.233   7.358 -0.2416  1.7923  1.7924
  114MOL   H24143407   4.662   0.309   7.233 -0.5709  0.9966  0.0182
  114MOL   H24243408   4.387   0.274   7.329  0.3729 -1.3004 -0.5868
  114MOL   H24343409   4.451   0.444   7.488 -0.7224 -4.2918 -1.0832
  114MOL   H24443410   4.499   0.553   7.353  0.4694  0.0460  0.7871
  114MOL   H24543411   4.326   0.489   7.374 -0.2777  0.6985 -0.9180
  114MOL   H24643412   4.486   0.444   7.109 -0.5551  0.1296 -0.2261
  114MOL   H24743413   4.326   0.360   7.124 -0.2434 -0.8430 -0.3094
  114MOL   H24843414   4.474   0.274   7.099  0.8213  1.1021 -0.0375
  114MOL   C24943415   4.868   0.184   7.560  0.3042 -0.5180 -0.2727
  114MOL   C25043416   4.886   0.334   7.613 -0.1921  0.1006  0.5389
  114MOL   C25143417   4.970   0.413   7.511  0.7366  0.2049  0.3118
  114MOL   O25243418   5.086   0.392   7.495 -0.2024 -0.0509 -0.0938
  114MOL   N25343419   4.905   0.503   7.438  0.8121  0.8905 -0.0739
  114MOL   C25443420   4.955   0.592   7.341 -0.0308  0.0401  0.2604
  114MOL   C25543421   4.991   0.520   7.208 -0.9042 -0.4960  0.2887
  114MOL   C25643422   4.868   0.717   7.329 -0.8464 -0.2238 -0.0011
  114MOL   H25743423   4.965   0.136   7.546  0.0939 -1.5578  1.6223
  114MOL   H25843424   4.821   0.121   7.635  0.2241 -0.8044 -0.5652
  114MOL   H25943425   4.788   0.382   7.626  0.1436  0.4090  2.0248
  114MOL   H26043426   4.806   0.503   7.456  0.2814  1.6270 -2.8377
  114MOL   H26143427   5.054   0.613   7.383 -0.0047 -1.5868  1.0331
  114MOL   H26243428   5.029   0.603   7.148 -0.3499  0.1580  1.5345
  114MOL   H26343429   5.072   0.447   7.218  1.6310  2.3941  1.6010
  114MOL   H26443430   4.907   0.473   7.156 -0.6549 -1.8915  1.1268
  114MOL   H26543431   4.904   0.799   7.267 -0.8741  0.2130  0.5512
  114MOL   H26643432   4.779   0.679   7.278 -0.8449  0.9693 -0.9124
  114MOL   H26743433   4.827   0.752   7.424 -0.3016 -0.5136  0.3391
  114MOL   C26843434   4.933   0.347   7.758 -0.0518  0.1765 -0.2137
  114MOL   C26943435   4.922   0.480   7.834 -0.8705  0.4324  0.0355
  114MOL   C27043436   4.770   0.522   0.007 -0.3811  0.2184 -0.6374
  114MOL   O27143437   4.679   0.459   0.057 -0.5517  0.1068 -0.4959
  114MOL   N27243438   4.753   0.645   7.794  0.1427  0.0946  0.1240
  114MOL   C27343439   4.624   0.714   7.792 -1.1307  0.3574 -0.0964
  114MOL   C27443440   4.642   0.869   7.807  0.0568 -0.4060  0.0228
  114MOL   C27543441   4.548   0.671   7.662  0.8195  0.0901  0.1909
  114MOL   H27643442   4.882   0.268   7.813 -2.0779  2.2860  1.0418
  114MOL   H27743443   5.035   0.310   7.752  0.2190  1.0908 -1.5066
  114MOL   H27843444   4.972   0.548   7.765 -1.8159  0.4195 -0.6710
  114MOL   H27943445   4.835   0.693   7.760 -1.2313  2.5321  0.1877
  114MOL   H28043446   4.572   0.674   0.043  0.8052  0.3702  1.0926
  114MOL   H28143447   4.540   0.906   7.791 -0.1026 -0.1330  1.6366
  114MOL   H28243448   4.664   0.904   0.071 -0.7417  1.3224 -0.3919
  114MOL   H28343449   4.714   0.912   7.737  0.1516  0.5104  0.6790
  114MOL   H28443450   4.579   0.742   7.586  4.6371 -1.1799  0.4581
  114MOL   H28543451   4.571   0.569   7.632 -1.4035 -0.4577  0.2479
  114MOL   H28643452   4.440   0.685   7.664  1.0773  2.2198  0.5314
  114MOL   C28743453   4.998   0.468   0.129  0.2067 -0.3445 -0.0371
  114MOL   C28843454   5.013   0.593   0.222 -0.1098 -0.0114  0.3170
  114MOL   C28943455   5.088   0.710   0.157  0.3950 -0.4223  0.5341
  114MOL   O29043456   5.020   0.805   0.115 -0.3529  0.7155 -0.3345
  114MOL   N29143457   5.219   0.694   0.147 -0.5051  0.1201 -0.3028
  114MOL   C29243458   5.322   0.778   0.103  1.1313 -0.0879  0.2259
  114MOL   C29343459   5.433   0.788   0.216 -0.1941  0.2428  0.2955
  114MOL   C29443460   5.369   0.737   7.807 -0.0789  0.4949 -0.0890
  114MOL   H29543461   4.942   0.395   0.187  0.9934 -0.1726  0.9585
  114MOL   H29643462   5.098   0.426   0.116  1.0653  1.7874 -0.5728
  114MOL   H29743463   4.913   0.627   0.249  0.3918  0.4468  1.5994
  114MOL   H29843464   5.256   0.608   0.183  1.8335  0.9240 -0.7421
  114MOL   H29943465   5.277   0.877   0.093 -1.5712 -0.8900  3.4047
  114MOL   H30043466   5.524   0.843   0.192 -0.6245  0.3564 -1.1194
  114MOL   H30143467   5.389   0.831   0.306 -2.3792  0.3328 -0.7810
  114MOL   H30243468   5.454   0.687   0.250 -1.1477  0.5831  1.9204
  114MOL   H30343469   5.452   0.800   7.773  1.5297 -1.5659 -0.0771
  114MOL   H30443470   5.408   0.636   7.810  2.0231  1.2994  0.9350
  114MOL   H30543471   5.288   0.734   7.734 -0.7612 -1.9594  0.7394
  114MOL   C30643472   5.090   0.555   0.351  0.7848 -0.1713 -0.0905
  114MOL   C30743473   5.114   0.659   0.462  0.3645  0.3351  0.1169
  114MOL   C30843474   5.236   0.625   0.551  0.0377  0.2192  0.2767
  114MOL   O30943475   5.274   0.506   0.553 -0.0252 -0.5386  0.2475
  114MOL   N31043476   5.297   0.729   0.609  0.6204 -0.0422  0.4217
  114MOL   C31143477   5.409   0.721   0.697  0.8862  0.2561 -0.5838
  114MOL   C31243478   5.517   0.802   0.637 -0.2862  0.4585  0.3342
  114MOL   C31343479   5.377   0.757   0.843 -0.0526 -0.2926 -0.2911
  114MOL   H31443480   5.015   0.490   0.396  1.8849 -2.2059 -1.0645
  114MOL   H31543481   5.174   0.489   0.325 -0.4050 -2.1793  1.0237
  114MOL   H31643482   5.137   0.751   0.408 -0.6375 -0.5839 -1.9674
  114MOL   H31743483   5.251   0.818   0.596  1.0547 -0.0634 -1.3293
  114MOL   H31843484   5.447   0.619   0.690 -1.4225 -0.5018 -2.5005
  114MOL   H31943485   5.563   0.748   0.554 -0.9749  0.0657  0.2113
  114MOL   H32043486   5.609   0.810   0.696 -0.1501  0.0079  0.1801
  114MOL   H32143487   5.484   0.901   0.606  0.9788 -0.3390 -3.8535
  114MOL   H32243488   5.290   0.703   0.879 -0.5929  1.0207  0.4267
  114MOL   H32343489   5.357   0.864   0.837  1.6376 -0.0227 -1.5752
  114MOL   H32443490   5.459   0.746   0.915  0.6242  0.8099 -0.8658
  114MOL   C32543491   4.982   0.683   0.542 -0.4500 -0.8653 -0.0591
  114MOL   C32643492   4.936   0.589   0.667 -0.0263  0.1813  0.3275
  114MOL   C32743493   4.939   0.646   0.806  0.3953 -0.4981 -0.1548
  114MOL   O32843494   4.866   0.736   0.840  0.3900 -0.5350  0.0209
  114MOL   N32943495   5.020   0.591   0.895  0.5681 -0.3008  0.1885
  114MOL   C33043496   5.007   0.606   1.042 -0.5484 -0.4675  0.3860
  114MOL   C33143497   5.092   0.732   1.091  0.5535  0.0042 -0.5133
  114MOL   C33243498   5.034   0.481   1.124  0.1471  0.3954  0.8361
  114MOL   H33343499   4.895   0.692   0.476 -2.1816  0.4699  2.3145
  114MOL   H33443500   4.992   0.783   0.583 -1.7332 -0.5276 -0.5339
  114MOL   H33543501   5.005   0.505   0.671  1.6119  1.5711  2.2861
  114MOL   H33643502   5.073   0.509   0.866  0.7034  0.5489 -2.0162
  114MOL   H33743503   4.904   0.632   1.067  0.0680  0.0934  2.4484
  114MOL   H33843504   5.082   0.749   1.199  1.9886  1.6800 -0.6365
  114MOL   H33943505   5.188   0.697   1.054  0.1515 -2.0069  0.2538
  114MOL   H34043506   5.061   0.816   1.030 -1.9996 -1.6155 -1.5261
  114MOL   H34143507   4.944   0.425   1.150 -0.6628  1.7975  1.0716
  114MOL   H34243508   5.076   0.519   1.216  1.6876  0.2827  0.1924
  114MOL   H34343509   5.107   0.416   1.076 -2.0189 -1.8622  0.4619
  114MOL   C34443510   4.783   0.549   0.645  0.0874 -0.4964 -0.4264
  114MOL   C34543511   4.756   0.459   0.523 -0.2399 -0.1148 -0.0035
  114MOL   C34643512   4.826   0.324   0.544  0.2931  0.4662 -0.4139
  114MOL   O34743513   4.860   0.278   0.648 -0.2811  0.5560  0.5832
  114MOL   N34843514   4.853   0.252   0.430 -0.1125 -0.3318 -1.0004
  114MOL   C34943515   4.941   0.139   0.411  0.3959  0.3408  0.4233
  114MOL   C35043516   4.868   0.021   0.349  0.2262  0.4846 -0.5686
  114MOL   C35143517   5.065   0.168   0.334  0.5379  0.4181 -0.3126
  114MOL   H35243518   4.716   0.635   0.650  1.5824  0.6844 -0.3072
  114MOL   H35343519   4.739   0.495   0.729 -0.3869 -0.0397 -0.3720
  114MOL   H35443520   4.787   0.492   0.424  0.9687  1.6422  0.9391
  114MOL   H35543521   4.797   0.283   0.351  1.7595  1.3164 -1.7205
  114MOL   H35643522   4.976   0.108   0.509 -1.3846  0.8518  1.2469
  114MOL   H35743523   4.865   0.041   0.242  0.0750  0.3250 -0.5935
  114MOL   H35843524   4.926   7.766   0.359 -3.7746 -2.0617  0.2820
  114MOL   H35943525   4.763   0.008   0.374  0.2322  1.1326 -0.1818
  114MOL   H36043526   5.052   0.164   0.226 -0.5753  0.1783 -0.1666
  114MOL   H36143527   5.119   0.258   0.365  1.9102  1.0747 -4.3373
  114MOL   H36243528   5.138   0.089   0.354 -0.5785 -0.2141  1.3204
  114MOL   C36343529   4.603   0.426   0.514 -0.1399  0.2210  0.3295
  114MOL   C36443530   4.547   0.399   0.368 -0.1162 -0.7609 -0.2277
  114MOL   C36543531   4.532   0.252   0.318  0.4300  0.0262 -0.0464
  114MOL   O36643532   4.517   0.161   0.400 -0.1635 -0.9187  0.6514
  114MOL   N36743533   4.546   0.233   0.185  0.0761  0.4338 -0.2717
  114MOL   C36843534   4.535   0.105   0.119  0.1748  0.8034 -0.2407
  114MOL   C36943535   4.388   0.075   0.069 -0.2573  0.4752 -0.2456
  114MOL   C37043536   4.635   0.087   0.012  0.3057 -0.1957 -0.3309
  114MOL   H37143537   4.545   0.504   0.563  1.3481  1.8608 -0.4498
  114MOL   H37243538   4.571   0.342   0.576 -0.8971  0.0084 -0.3315
  114MOL   H37343539   4.611   0.448   0.296 -0.2647 -1.2463 -0.6931
  114MOL   H37443540   4.571   0.310   0.125  0.1533  0.4427 -0.2274
  114MOL   H37543541   4.561   0.024   0.187  0.4670 -0.3352 -1.6589
  114MOL   H37643542   4.317   0.058   0.150  3.0741  0.5140  2.8127
  114MOL   H37743543   4.337   0.152   0.012 -0.7224 -0.1796 -0.7222
  114MOL   H37843544   4.395   7.821   0.009 -1.2126  1.3226 -1.6656
  114MOL   H37943545   4.609   0.155   7.767  1.5303  1.1063  0.3545
  114MOL   H38043546   4.730   0.124   0.050  0.0019  0.5128 -0.2685
  114MOL   H38143547   4.651   7.822   7.810  2.3087  0.1198 -0.4166
  114MOL   H38243548   4.449   0.448   0.364 -0.4363 -1.4445 -0.8299
  115MOL     C143549   0.296   7.432   7.503  0.3006 -0.1782 -0.4868
  115MOL     C243550   0.219   7.558   7.459 -0.0034  0.8548 -0.0114
  115MOL     C343551   0.070   7.517   7.425 -0.2322 -0.4746 -0.6846
  115MOL     O443552   7.828   7.471   7.509 -0.3626  0.6727 -0.3632
  115MOL     N543553   0.040   7.543   7.300 -0.0187  0.7485 -0.3436
  115MOL     C643554   7.757   7.513   7.226  0.6410 -0.5019  0.3895
  115MOL     C743555   7.689   7.654   7.198  0.2694  0.3403 -0.1810
  115MOL     C843556   7.805   7.435   7.092  0.0475 -0.3269  0.2032
  115MOL     H943557   0.277   7.349   7.436  0.5750 -0.6890  0.0645
  115MOL    H1043558   0.269   7.402   7.604  2.8118 -0.2464  0.2040
  115MOL    H1143559   0.259   7.589   7.363 -1.1752  0.8635 -0.5061
  115MOL    H1243560   0.128   7.561   7.253 -0.7296  0.9824 -1.6033
  115MOL    H1343561   7.686   7.455   7.284 -0.2983 -0.5729 -0.8082
  115MOL    H1443562   7.668   7.703   7.293 -0.9595 -1.6892  0.6334
  115MOL    H1543563   7.596   7.643   7.143 -0.3297 -2.1439  1.2447
  115MOL    H1643564   7.754   7.720   7.140  2.4644 -1.1388  0.5229
  115MOL    H1743565   7.716   7.425   7.030 -1.0186  0.8544  1.5177
  115MOL    H1843566   0.043   7.502   7.047  0.9837 -1.3038  0.2960
  115MOL    H1943567   0.001   7.334   7.117  1.3543 -0.3369 -1.4321
  115MOL    H2043568   0.403   7.449   7.516  0.2742  0.0609 -0.5822
  115MOL    C2143569   0.228   7.683   7.547  0.0783  0.2050  0.0013
  115MOL    C2243570   0.184   7.673   7.697  0.5479  0.5667  0.6376
  115MOL    C2343571   0.081   7.783   7.729 -0.3363 -0.2369  0.5388
  115MOL    O2443572   0.109   0.064   7.740 -0.7259  0.3024  0.3172
  115MOL    N2543573   7.789   7.735   7.745 -0.3579 -0.4848 -0.0677
  115MOL    C2643574   7.671   7.818   7.770  0.0916 -0.0602  0.3255
  115MOL    C2743575   7.616   7.796   0.076  0.5815 -0.5776 -0.1213
  115MOL    C2843576   7.566   7.778   7.655  0.7766 -0.3842 -1.1597
  115MOL    H2943577   0.184   7.774   7.505  1.1658  0.3779 -0.7894
  115MOL    H3043578   0.332   7.714   7.550  1.1322 -2.8061 -2.7396
  115MOL    H3143579   0.122   7.586   7.718  2.2762 -1.0104 -0.6902
  115MOL    H3243580   7.779   7.634   7.751 -0.0287 -0.6361 -1.7536
  115MOL    H3343581   7.698   0.087   7.767  0.2540 -0.0762  1.0349
  115MOL    H3443582   7.558   7.706   0.098  0.1877  0.3204  2.8030
  115MOL    H3543583   7.541   0.038   0.088  0.9449 -0.0549 -1.2487
  115MOL    H3643584   7.691   7.815   0.153  0.8911  2.2353 -1.0427
  115MOL    H3743585   7.503   0.026   7.626 -0.4276 -0.8265  0.0952
  115MOL    H3843586   7.616   7.748   7.563 -0.3735 -0.6164 -1.7282
  115MOL    H3943587   7.499   7.696   7.682  1.5867 -0.0500  2.0377
  115MOL    C4043588   0.305   7.653   7.797  0.4435  0.5218 -0.0279
  115MOL    C4143589   0.277   7.593   0.106 -0.1552  0.5234  0.1673
  115MOL    C4243590   0.248   7.444   0.106 -0.3836  0.8801 -0.7657
  115MOL    O4343591   0.135   7.403   0.103 -0.0893  0.3202  0.2360
  115MOL    N4443592   0.349   7.362   0.104  0.3039 -0.4291  0.3009
  115MOL    C4543593   0.353   7.214   0.096 -0.5654  1.0300  0.1019
  115MOL    C4643594   0.275   7.155   0.219  0.9069  0.5422  0.3177
  115MOL    C4743595   0.308   7.160   7.794  0.4937 -0.0027  0.1396
  115MOL    H4843596   0.349   7.753   7.798 -0.2396  0.8148  0.9443
  115MOL    H4943597   0.371   7.583   7.745 -1.3941 -0.1642 -1.4883
  115MOL    H5043598   0.373   7.599   0.158 -0.4752  2.2399  0.5782
  115MOL    H5143599   0.440   7.405   0.110  1.1460 -2.1042 -0.0418
  115MOL    H5243600   0.459   7.194   0.104 -0.5929  0.9368  0.2421
  115MOL    H5343601   0.333   7.174   0.309 -0.9897 -1.5464  2.0020
  115MOL    H5443602   0.268   7.047   0.206 -0.1076  0.5580  0.7100
  115MOL    H5543603   0.172   7.190   0.227  0.1185 -1.4547 -0.6771
  115MOL    H5643604   0.315   7.051   7.790 -0.3711 -0.0616  0.1030
  115MOL    H5743605   0.366   7.185   7.705 -0.5109  0.2661 -0.4480
  115MOL    H5843606   0.205   7.185   7.769  0.6824 -0.4631 -1.1483
  115MOL    C5943607   0.185   7.679   0.191  0.0769 -0.3029 -0.4287
  115MOL    C6043608   0.177   7.642   0.346  0.2076 -1.0362  0.3617
  115MOL    C6143609   0.040   7.698   0.405 -0.7198  0.8488  0.1436
  115MOL    O6243610   7.822   7.628   0.488  0.3309  0.1174 -0.1467
  115MOL    N6343611   0.001   7.825   0.391 -0.3958 -0.0972 -0.2828
  115MOL    C6443612   7.730   0.052   0.465  0.2757 -0.2970  0.1113
  115MOL    C6543613   7.779   0.098   0.604  0.6111 -0.2338  0.2048
  115MOL    C6643614   7.674   0.176   0.391 -0.8625  0.2948  0.0099
  115MOL    H6743615   0.225   7.780   0.180 -1.6593  0.6125  1.3339
  115MOL    H6843616   0.083   7.685   0.153  0.1131 -0.4990 -0.5557
  115MOL    H6943617   0.163   7.534   0.342  0.7775 -1.0617 -1.1724
  115MOL    H7043618   0.059   0.039   0.325  1.4140 -0.6623  0.8225
  115MOL    H7143619   7.644   7.826   0.489 -1.9517  2.3099 -0.8136
  115MOL    H7243620   0.014   0.180   0.596 -1.1672  1.2489 -0.9827
  115MOL    H7343621   7.696   0.133   0.665 -0.2862 -1.0677 -0.5284
  115MOL    H7443622   7.826   0.019   0.662 -2.0712  0.0150  2.8481
  115MOL    H7543623   7.591   0.208   0.455 -0.0294 -1.4858  2.0508
  115MOL    H7643624   7.746   0.257   0.382  0.5965 -1.1592 -1.7937
  115MOL    H7743625   7.632   0.152   0.293 -0.9852 -1.8314  0.5458
  115MOL    C7843626   0.303   7.669   0.430  0.2565  0.6154 -0.4720
  115MOL    C7943627   0.333   7.809   0.492 -0.0578 -0.3651  0.8057
  115MOL    C8043628   0.400   7.784   0.631  0.9026 -0.3765 -0.7846
  115MOL    O8143629   0.522   7.775   0.645 -0.0593  0.2196 -0.5943
  115MOL    N8243630   0.310   7.765   0.733  0.5493  0.4391  0.2181
  115MOL    C8343631   0.339   7.712   0.865  0.2349 -0.4533  0.5579
  115MOL    C8443632   0.432   7.793   0.951  0.2910  0.2222 -0.3814
  115MOL    C8543633   0.209   7.685   0.937  0.2742  0.2168  0.5115
  115MOL    H8643634   0.381   7.637   0.362 -1.5993 -2.8013 -1.1209
  115MOL    H8743635   0.302   7.591   0.506 -3.3416  0.2667 -0.7494
  115MOL    H8843636   0.238   0.020   0.519  0.7901  1.5832  0.4745
  115MOL    H8943637   0.212   7.776   0.711  1.1081  1.5438 -1.9343
  115MOL    H9043638   0.394   7.620   0.843 -0.9109  0.0066 -5.1064
  115MOL    H9143639   0.384   0.053   0.964 -1.9523 -1.0682  1.2720
  115MOL    H9243640   0.451   7.746   1.047  1.3071 -1.8598 -1.5531
  115MOL    H9343641   0.528   7.801   0.900  0.6797 -0.1260  0.2947
  115MOL    H9443642   0.233   7.637   1.032 -0.4337 -0.1319  0.5226
  115MOL    H9543643   0.139   7.617   0.888  1.2510 -0.8132  0.5167
  115MOL    H9643644   0.149   7.770   0.970 -0.1187 -0.0929  0.6070
  115MOL    C9743645   0.411   0.065   0.393  0.9532 -0.2525 -0.4211
  115MOL    C9843646   0.437   0.215   0.440 -0.3080  0.3458  0.2918
  115MOL    C9943647   0.306   0.271   0.513 -0.0935  0.5272 -0.0108
  115MOL   O10043648   0.195   0.261   0.459  0.0345 -0.1181 -0.0379
  115MOL   N10143649   0.319   0.347   0.622 -0.1574  0.5048  0.5771
  115MOL   C10243650   0.220   0.396   0.718 -0.3524  0.2589  0.6628
  115MOL   C10343651   0.194   0.286   0.822 -0.0299 -0.2211 -0.2920
  115MOL   C10443652   0.262   0.523   0.791  0.0775  0.0131 -0.5894
  115MOL   H10543653   0.366   0.046   0.295  0.0967  0.8210 -0.2389
  115MOL   H10643654   0.507   0.016   0.376  0.6011 -1.0257 -0.1855
  115MOL   H10743655   0.507   0.193   0.521 -0.8819 -0.7148  0.5199
  115MOL   H10843656   0.408   0.392   0.640  0.4048 -0.8792  1.2844
  115MOL   H10943657   0.142   0.440   0.655 -0.5075  1.3837  1.6227
  115MOL   H11043658   0.289   0.261   0.869  0.0844  1.5780  0.4636
  115MOL   H11143659   0.128   0.323   0.901  0.5303 -0.0686  0.1107
  115MOL   H11243660   0.160   0.194   0.774  0.9031  0.3104 -2.0062
  115MOL   H11343661   0.359   0.521   0.841 -0.7541 -1.0516  1.0313
  115MOL   H11443662   0.181   0.574   0.842 -0.8671  0.2230 -2.2606
  115MOL   H11543663   0.284   0.581   0.702 -0.3589 -2.3442 -2.2946
  115MOL   C11643664   0.491   0.314   0.328 -0.8043 -0.6509  0.3254
  115MOL   C11743665   0.626   0.384   0.357  0.0472 -0.0877 -0.4387
  115MOL   C11843666   0.607   0.467   0.487 -0.1539  0.5331 -0.2943
  115MOL   O11943667   0.518   0.547   0.493 -0.0951 -0.3261  0.2086
  115MOL   N12043668   0.688   0.445   0.593 -0.6717 -0.2247  0.3367
  115MOL   C12143669   0.670   0.493   0.731  0.2932  0.3106  0.0008
  115MOL   C12243670   0.643   0.360   0.808 -0.0853  0.4674 -0.0868
  115MOL   C12343671   0.782   0.576   0.787 -0.3118 -0.2983 -0.6120
  115MOL   H12443672   0.420   0.383   0.282  1.2358  1.2447 -0.0552
  115MOL   H12543673   0.524   0.257   0.241 -0.6351  3.5315 -2.5453
  115MOL   H12643674   0.702   0.310   0.381  0.0650 -0.4890 -1.6874
  115MOL   H12743675   0.752   0.368   0.582 -1.0480 -0.6400  1.0401
  115MOL   H12843676   0.578   0.550   0.741 -1.0062 -1.4648 -1.4825
  115MOL   H12943677   0.556   0.309   0.766  0.5533 -1.5671  0.9865
  115MOL   H13043678   0.621   0.375   0.914  2.2136  0.2755  0.4326
  115MOL   H13143679   0.725   0.289   0.815 -0.6719 -0.5163 -2.7371
  115MOL   H13243680   0.870   0.516   0.812  0.3768  0.4604 -1.1563
  115MOL   H13343681   0.808   0.645   0.706  2.0182 -1.9722 -1.3746
  115MOL   H13443682   0.745   0.634   0.871  1.7208  0.3053 -0.1060
  115MOL   C13543683   0.681   0.468   0.238  0.3284  0.6876 -0.3823
  115MOL   C13643684   0.703   0.397   0.101  0.6170 -0.1343 -0.1199
  115MOL   C13743685   0.582   0.403   0.015 -0.5399 -0.9425 -0.1363
  115MOL   O13843686   0.543   0.514   7.812 -0.0749  0.8841  0.0027
  115MOL   N13943687   0.522   0.293   7.816 -0.9875 -0.3114  0.0865
  115MOL   C14043688   0.399   0.276   7.733 -0.3332 -0.4362 -0.1079
  115MOL   C14143689   0.439   0.305   7.584 -0.2031 -0.1674 -0.4293
  115MOL   C14243690   0.275   0.355   7.780  0.0945  0.9060  0.2071
  115MOL   H14343691   0.780   0.507   0.262  1.4860 -2.9746  1.0064
  115MOL   H14443692   0.624   0.561   0.233  0.2197  0.8140  2.1480
  115MOL   H14543693   0.718   0.292   0.125 -1.7515 -1.0104 -2.2835
  115MOL   H14643694   0.563   0.220   0.035 -1.6400  0.6526  1.8681
  115MOL   H14743695   0.373   0.171   7.747  1.4483 -0.6827  1.5862
  115MOL   H14843696   0.463   0.408   7.559 -1.4808  0.0336 -0.8593
  115MOL   H14943697   0.529   0.249   7.557 -0.2143  0.0161 -0.8434
  115MOL   H15043698   0.360   0.277   7.515 -1.0995  0.2614  0.3994
  115MOL   H15143699   0.228   0.337   0.041 -1.3284 -0.7412 -0.7562
  115MOL   H15243700   0.201   0.323   7.706  1.3069  1.0965 -1.0895
  115MOL   H15343701   0.287   0.463   7.773  1.0000  0.6296 -2.8305
  115MOL   C15443702   0.836   0.445   0.031 -0.0307  0.2534  0.3966
  115MOL   C15543703   0.870   0.367   7.732  0.2847  0.8868 -0.1371
  115MOL   C15643704   0.843   0.210   7.744 -0.2415  0.2389  0.5663
  115MOL   O15743705   0.869   0.142   0.006  0.3584  0.0504  0.0934
  115MOL   N15843706   0.783   0.154   7.635 -0.0492  0.3491  0.1983
  115MOL   C15943707   0.765   0.010   7.614 -0.9614 -0.2993  0.1764
  115MOL   C16043708   0.754   7.821   7.464  0.9250 -0.2976  0.2965
  115MOL   C16143709   0.646   7.791   7.693  0.0903  0.6105  0.7280
  115MOL   H16243710   0.924   0.431   0.095 -0.9160  0.6615  1.7136
  115MOL   H16343711   0.828   0.553   0.020  1.7107  0.5442  1.6622
  115MOL   H16443712   0.792   0.409   7.669 -1.3321 -1.8283 -0.0208
  115MOL   H16543713   0.756   0.216   7.560  0.3799 -0.5629 -0.7313
  115MOL   H16643714   0.854   7.796   7.649  1.0700  1.8934 -1.6485
  115MOL   H16743715   0.855   7.831   7.424  0.3878  2.4126 -0.5010
  115MOL   H16843716   0.729   7.718   7.441 -1.6685  0.3265  0.2103
  115MOL   H16943717   0.682   0.051   7.416  1.9085 -0.8480 -2.0122
  115MOL   H17043718   0.662   7.799   7.800  1.1037 -0.8343  0.7150
  115MOL   H17143719   0.635   7.686   7.664 -1.7031  1.4205 -1.7009
  115MOL   H17243720   0.548   7.831   7.669 -1.0596 -1.1795  2.2436
  115MOL   C17343721   1.012   0.393   7.683  0.6091 -0.0226 -0.5661
  115MOL   C17443722   1.049   0.334   7.539 -0.6172  0.5092  0.0564
  115MOL   C17543723   0.956   0.394   7.427 -1.1562 -0.1484 -0.0451
  115MOL   O17643724   0.894   0.313   7.353 -0.4459  0.2502 -0.1917
  115MOL   N17743725   0.939   0.531   7.430 -0.0980 -0.3604 -0.1529
  115MOL   C17843726   0.836   0.618   7.371  0.3863  0.1250  0.6410
  115MOL   C17943727   0.857   0.768   7.407  0.1955 -0.2701 -0.3902
  115MOL   C18043728   0.699   0.562   7.382 -0.0019 -0.0591  0.2443
  115MOL   H18143729   1.085   0.347   7.749 -2.3937 -3.6200  0.3405
  115MOL   H18243730   1.023   0.501   7.675  1.1270 -0.1195 -1.2478
  115MOL   H18343731   1.026   0.230   7.559  0.7151  0.5366  1.8607
  115MOL   H18443732   1.016   0.587   7.465 -1.2898  0.1884  1.6516
  115MOL   H18543733   0.857   0.622   7.264 -0.9372  1.6189  0.4166
  115MOL   H18643734   0.833   0.788   7.512  1.3717  1.4290 -0.4408
  115MOL   H18743735   0.796   0.825   7.337 -0.9845 -0.7309  0.2386
  115MOL   H18843736   0.953   0.819   7.398  0.0786  0.7506  3.4297
  115MOL   H18943737   0.682   0.565   7.489  0.0303  2.5796  0.2063
  115MOL   H19043738   0.698   0.455   7.362 -0.4361 -0.1723  0.8563
  115MOL   H19143739   0.620   0.619   7.333  0.1111  0.0124  0.1447
  115MOL   C19243740   1.201   0.357   7.489 -0.0486 -0.6133 -0.2258
  115MOL   C19343741   1.252   0.244   7.398 -0.4073  0.3220 -0.6399
  115MOL   C19443742   1.313   0.130   7.485  0.2044  0.7149 -0.5924
  115MOL   O19543743   1.433   0.120   7.497 -0.6834 -0.3476 -0.1819
  115MOL   N19643744   1.238   0.024   7.522  0.3261 -0.4381 -0.5671
  115MOL   C19743745   1.285   7.740   7.595 -0.5401  0.1272 -0.0188
  115MOL   C19843746   1.202   7.727   7.727  0.0741 -0.7987 -0.6294
  115MOL   C19943747   1.268   7.621   7.507 -0.0174  0.3282  0.2599
  115MOL   H20043748   1.256   0.361   7.583  0.1840  1.2414 -0.4196
  115MOL   H20143749   1.211   0.450   7.433 -0.1788 -1.4002 -1.5869
  115MOL   H20243750   1.163   0.201   7.352 -0.2164  1.0718 -1.7328
  115MOL   H20343751   1.138   0.032   7.506 -0.2348 -2.2081  1.8827
  115MOL   H20443752   1.388   7.749   7.630 -0.4886  0.9274 -0.3800
  115MOL   H20543753   1.096   7.748   7.717  0.4062  0.8546 -0.7624
  115MOL   H20643754   1.242   7.794   7.802 -1.1795  0.1612 -0.8087
  115MOL   H20743755   1.215   7.623   7.758 -0.3637 -0.8646 -0.6624
  115MOL   H20843756   1.176   7.572   7.538  1.4062 -2.5758  0.0037
  115MOL   H20943757   1.356   7.556   7.509  0.0400  0.4534  2.1420
  115MOL   H21043758   1.259   7.658   7.404  0.9146  0.0411  0.0680
  115MOL   C21143759   1.338   0.280   7.271 -0.4469  0.8424 -0.2870
  115MOL   C21243760   1.341   0.169   7.158  0.0167  0.0386  0.2852
  115MOL   C21343761   1.216   0.165   7.077  0.0883  0.5406  0.4910
  115MOL   O21443762   1.172   0.265   7.016 -0.4279  0.4662 -0.5073
  115MOL   N21543763   1.162   0.049   7.068 -0.0753  0.0177  0.0546
  115MOL   C21643764   1.025   0.018   7.037 -0.0285 -0.4975 -0.2359
  115MOL   C21743765   0.955   7.828   7.173 -0.1960 -0.2306  0.1032
  115MOL   C21843766   1.015   7.739   6.935  0.8953  0.4509  0.0077
  115MOL   H21943767   1.440   0.299   7.307  0.1511 -0.6113 -1.1976
  115MOL   H22043768   1.310   0.375   7.225 -1.3194  1.6882  1.9157
  115MOL   H22143769   1.344   0.075   7.213  2.0896 -1.8242 -2.8928
  115MOL   H22243770   1.221   7.809   7.094  0.5701  0.0424 -1.3042
  115MOL   H22343771   0.977   0.104   6.991  2.8972  0.9124 -0.7593
  115MOL   H22443772   0.850   7.803   7.164 -0.4577  0.2562  1.6221
  115MOL   H22543773   1.013   7.750   7.224 -0.0771 -1.1103 -1.3605
  115MOL   H22643774   0.955   0.074   7.245  2.5060 -0.4808  0.4698
  115MOL   H22743775   0.909   7.725   6.911  0.5951  0.7277  1.1687
  115MOL   H22843776   1.048   7.649   6.988 -0.2138 -0.3915 -0.7001
  115MOL   H22943777   1.075   7.762   6.847  0.2571 -0.8706 -0.8020
  115MOL   C23043778   1.464   0.172   7.061  0.3150 -0.2938 -0.2077
  115MOL   C23143779   1.498   0.048   6.972  0.1054  0.1452 -0.5468
  115MOL   C23243780   1.483   7.750   7.053 -0.4287 -0.1548 -0.7033
  115MOL   O23343781   1.373   7.706   7.089 -0.1080 -0.2715 -0.4751
  115MOL   N23443782   1.603   7.688   7.075 -0.6958  0.5099  0.1066
  115MOL   C23543783   1.637   7.583   7.174  0.1317 -1.2649  0.2745
  115MOL   C23643784   1.772   7.522   7.136 -0.3032 -0.0398 -0.3683
  115MOL   C23743785   1.628   7.636   7.312 -0.3235  0.4064 -0.5548
  115MOL   H23843786   1.547   0.203   7.125  0.9376 -0.0296 -1.1310
  115MOL   H23943787   1.452   0.263   7.002 -0.1576  0.5751  1.1927
  115MOL   H24043788   1.601   0.045   6.934 -0.3334  0.8095 -1.8206
  115MOL   H24143789   1.685   7.728   7.031  1.6509 -2.8553  1.2151
  115MOL   H24243790   1.579   7.491   7.164 -0.2044 -0.9807 -0.4174
  115MOL   H24343791   1.838   7.591   7.083  1.8103 -0.8143  1.1942
  115MOL   H24443792   1.831   7.494   7.224  0.4251  1.0139 -0.4984
  115MOL   H24543793   1.766   7.433   7.074 -3.4840  0.6648 -1.1865
  115MOL   H24643794   1.544   7.702   7.332 -0.0805  0.3856  0.5600
  115MOL   H24743795   1.711   7.704   7.332 -0.7334  0.8279 -0.2835
  115MOL   H24843796   1.620   7.558   7.387  0.2232  0.4355 -0.4694
  115MOL   C24943797   1.421   0.032   6.836  0.1128  0.1284 -1.0012
  115MOL   C25043798   1.432   7.738   6.753 -0.3044  0.1645 -0.1191
  115MOL   C25143799   1.567   7.719   6.683 -0.5316 -0.6304  0.7794
  115MOL   O25243800   1.625   7.813   6.626 -0.1094 -0.2639 -0.3321
  115MOL   N25343801   1.614   7.596   6.698 -0.5520  0.6599  0.1661
  115MOL   C25443802   1.727   7.541   6.630 -0.0873  0.1789 -0.6480
  115MOL   C25543803   1.832   7.493   6.729  0.2168  0.0935  0.0266
  115MOL   C25643804   1.692   7.428   6.544  0.2369 -0.3462  0.2686
  115MOL   H25743805   1.456   0.118   6.778  1.6536  1.3521  1.6384
  115MOL   H25843806   1.316   0.053   6.853  0.6602 -0.0260  3.1225
  115MOL   H25943807   1.419   7.655   6.822  0.7924 -0.6957 -0.9163
  115MOL   H26043808   1.547   7.539   6.749  0.1501 -1.0558 -0.7708
  115MOL   H26143809   1.775   7.619   6.573 -0.0249  0.1493 -0.6351
  115MOL   H26243810   1.803   7.403   6.784  0.0621  0.3188  0.3155
  115MOL   H26343811   1.920   7.467   6.671  0.0869 -0.5287  0.1037
  115MOL   H26443812   1.857   7.574   6.797  0.2175 -0.7327  1.0330
  115MOL   H26543813   1.664   7.336   6.596 -0.2182  0.3952  1.3456
  115MOL   H26643814   1.606   7.443   6.480 -0.0813  1.7661  1.1467
  115MOL   H26743815   1.767   7.388   6.476  0.4729  1.8419 -0.7981
  115MOL   C26843816   1.316   7.729   6.652  0.0301  0.3481  0.2613
  115MOL   C26943817   1.269   7.586   6.601  0.3538  0.6024 -0.0137
  115MOL   C27043818   1.245   7.476   6.711  0.1104 -0.2850 -0.3573
  115MOL   O27143819   1.149   7.486   6.786  0.4409  0.4093 -0.3501
  115MOL   N27243820   1.336   7.380   6.725 -0.5299 -0.3758  0.1725
  115MOL   C27343821   1.338   7.291   6.842 -0.3582 -0.1090 -0.2435
  115MOL   C27443822   1.255   7.163   6.813  0.1026  0.6644  0.5107
  115MOL   C27543823   1.482   7.259   6.877 -0.1921 -0.3925  0.4292
  115MOL   H27643824   1.230   7.783   6.691 -0.4580 -0.5260  0.4144
  115MOL   H27743825   1.348   7.785   6.564  3.0234 -0.5153  0.7646
  115MOL   H27843826   1.358   7.560   6.544 -0.9775 -1.3844 -1.2354
  115MOL   H27943827   1.417   7.372   6.665  0.1485  0.6220  0.9328
  115MOL   H28043828   1.295   7.338   6.930  1.5373 -0.0454  0.6682
  115MOL   H28143829   1.252   7.094   6.897 -1.9741  0.3142  0.1648
  115MOL   H28243830   1.154   7.179   6.777  0.1146 -1.3067 -0.4659
  115MOL   H28343831   1.293   7.097   6.735  0.5009  0.6292  0.7310
  115MOL   H28443832   1.483   7.198   6.967  1.3837  1.8961  2.0348
  115MOL   H28543833   1.524   7.204   6.792 -1.9006  0.3728 -0.9409
  115MOL   H28643834   1.546   7.342   6.909 -0.9694 -0.0578  1.1257
  115MOL   C28743835   1.154   7.597   6.496  0.2974  0.1808 -0.1955
  115MOL   C28843836   1.092   7.470   6.431 -0.3460  0.4861 -0.7270
  115MOL   C28943837   1.202   7.387   6.344 -0.5689 -0.6472  0.4578
  115MOL   O29043838   1.309   7.436   6.313 -0.1750 -0.7314  0.7228
  115MOL   N29143839   1.188   7.255   6.323  0.5990  0.6180 -0.3701
  115MOL   C29243840   1.283   7.168   6.253 -0.1880 -0.1753 -0.3566
  115MOL   C29343841   1.360   7.075   6.348 -0.1792  0.8658 -0.3927
  115MOL   C29443842   1.202   7.068   6.168 -0.3626 -0.8710 -0.1953
  115MOL   H29543843   1.071   7.656   6.536 -0.8752  1.5546 -4.4023
  115MOL   H29643844   1.181   7.667   6.416 -1.2667  2.9962  1.6397
  115MOL   H29743845   1.072   7.398   6.511 -2.8541 -0.1957 -1.9343
  115MOL   H29843846   1.096   7.223   6.350  0.9833  1.5601  2.2295
  115MOL   H29943847   1.343   7.230   6.186  0.3247  1.0902  1.2397
  115MOL   H30043848   1.300   7.037   6.430  1.2210 -1.2114 -0.3021
  115MOL   H30143849   1.416   6.997   6.297 -0.4213  3.1821 -4.3640
  115MOL   H30243850   1.439   7.137   6.392  0.2257  0.9808 -1.2743
  115MOL   H30343851   1.269   7.028   6.092 -0.3652 -1.9440  0.3672
  115MOL   H30443852   1.149   6.992   6.226 -1.8902  0.6697  0.4635
  115MOL   H30543853   1.125   7.108   6.101  0.7940 -2.5350 -2.5851
  115MOL   C30643854   0.959   7.503   6.350  0.6746 -0.6854 -0.5901
  115MOL   C30743855   0.893   7.381   6.279  0.3048 -0.1346  0.1210
  115MOL   C30843856   0.870   7.259   6.381 -0.3655  0.3192 -0.1916
  115MOL   O30943857   0.912   7.142   6.356 -0.5737 -0.1732 -0.3037
  115MOL   N31043858   0.802   7.292   6.491 -0.6815 -0.2203 -0.3236
  115MOL   C31143859   0.766   7.194   6.595 -0.4320 -0.6825 -0.4436
  115MOL   C31243860   0.869   7.200   6.700 -0.3408  0.0340  0.2313
  115MOL   C31343861   0.627   7.239   6.644 -0.0246 -0.1804 -0.5384
  115MOL   H31443862   0.888   7.541   6.423  0.4259 -0.9019 -0.7194
  115MOL   H31543863   0.982   7.582   6.278 -1.0559 -0.1675 -0.6000
  115MOL   H31643864   0.792   7.418   6.262 -0.2605 -1.7522 -0.0907
  115MOL   H31743865   0.763   7.385   6.497 -1.4829 -0.6747  2.2227
  115MOL   H31843866   0.769   7.091   6.560  0.8843  0.3639 -3.5635
  115MOL   H31943867   0.866   7.115   6.768  0.5122  0.4696  0.8155
  115MOL   H32043868   0.862   7.290   6.761  1.3422  0.3708 -0.0470
  115MOL   H32143869   0.970   7.205   6.660 -0.0658 -0.4730  0.8664
  115MOL   H32243870   0.557   7.242   6.560 -1.2712  1.2386  0.5186
  115MOL   H32343871   0.615   7.337   6.691 -3.0141 -0.6125 -0.3275
  115MOL   H32443872   0.585   7.158   6.702 -0.0940  1.2498  1.4464
  115MOL   C32543873   0.954   7.335   6.140 -0.3592  0.2370 -0.2802
  115MOL   C32643874   0.870   7.366   6.010 -0.3398  0.0139 -0.9656
  115MOL   C32743875   0.867   7.519   5.994  0.3278 -0.1439  0.4184
  115MOL   O32843876   0.973   7.582   5.981  0.4104 -0.1642  0.3707
  115MOL   N32943877   0.744   7.578   5.979  0.5193 -0.7425 -0.0603
  115MOL   C33043878   0.724   7.715   5.939  0.2590 -0.3164 -0.4641
  115MOL   C33143879   0.595   7.768   6.002  0.2774 -0.6438 -0.4859
  115MOL   C33243880   0.722   7.726   5.786 -0.2401 -0.1211  0.0322
  115MOL   H33343881   0.954   7.226   6.139 -1.0912  0.2151  1.3645
  115MOL   H33443882   1.052   7.380   6.121 -1.3886  1.7358 -2.3424
  115MOL   H33543883   0.771   7.323   6.026 -0.3253 -0.0828 -1.1403
  115MOL   H33643884   0.662   7.520   5.975  0.7152 -0.9530 -1.8412
  115MOL   H33743885   0.806   7.778   5.976  1.4554 -1.1292 -1.6693
  115MOL   H33843886   0.567   0.032   5.972  0.8068  0.6344  3.1652
  115MOL   H33943887   0.515   7.701   5.970  0.6559 -0.7853 -1.1457
  115MOL   H34043888   0.587   7.762   6.110  0.1093 -1.8929 -0.5534
  115MOL   H34143889   0.636   7.672   5.746 -0.4566  0.6802 -0.5817
  115MOL   H34243890   0.815   7.690   5.742  1.3369  1.3423  2.0572
  115MOL   H34343891   0.705   7.829   5.754  0.4588  0.7878  2.5123
  115MOL   C34443892   0.944   7.304   5.888 -0.0104 -0.2319 -0.5504
  115MOL   C34543893   0.856   7.197   5.821 -0.2066  0.0102 -0.2923
  115MOL   C34643894   0.846   7.074   5.911 -0.2074  0.0669  0.3722
  115MOL   O34743895   0.772   7.079   6.011  0.6671 -0.1147  0.4877
  115MOL   N34843896   0.911   6.962   5.870  0.0108  0.0248 -0.2003
  115MOL   C34943897   0.905   6.835   5.941  0.1532  0.3554 -0.7376
  115MOL   C35043898   0.908   6.728   5.816 -0.7534 -0.0792  0.2626
  115MOL   C35143899   1.014   6.821   6.047  0.1580  0.0608 -0.5477
  115MOL   H35243900   1.035   7.262   5.930 -1.1594 -1.7612  0.4553
  115MOL   H35343901   0.976   7.386   5.824  1.2687  0.6039  1.1283
  115MOL   H35443902   0.914   7.167   5.734 -1.7508  1.1293 -1.7129
  115MOL   H35543903   0.985   6.970   5.801 -0.2495 -1.2920 -0.6582
  115MOL   H35643904   0.810   6.817   5.993 -0.0205 -1.0861 -1.5088
  115MOL   H35743905   0.825   6.729   5.746 -0.7916 -0.4368  0.3050
  115MOL   H35843906   1.003   6.736   5.763  0.1832 -0.0138  1.8941
  115MOL   H35943907   0.902   6.627   5.857  0.8517 -0.3992 -0.2518
  115MOL   H36043908   1.024   6.716   6.077  2.1345  1.5407  4.4178
  115MOL   H36143909   1.112   6.852   6.011  0.8545 -1.9634 -0.4995
  115MOL   H36243910   0.984   6.875   6.137 -0.5011 -1.4864  0.1823
  115MOL   C36343911   0.720   7.244   5.766  1.2618 -0.8453  0.1596
  115MOL   C36443912   0.724   7.330   5.643 -0.1885 -0.1294  0.5012
  115MOL   C36543913   0.587   7.368   5.593 -0.8241  0.2802 -0.1283
  115MOL   O36643914   0.534   7.477   5.606 -0.2362 -0.2861  0.3044
  115MOL   N36743915   0.526   7.276   5.515 -0.2332 -0.0261 -0.1042
  115MOL   C36843916   0.388   7.286   5.470 -0.7088 -0.6640  0.3435
  115MOL   C36943917   0.384   7.294   5.315  0.4162  0.3288  0.2314
  115MOL   C37043918   0.307   7.172   5.528 -0.2129  0.5007  0.1542
  115MOL   H37143919   0.673   7.307   5.841  1.1090  1.6984 -1.9703
  115MOL   H37243920   0.661   7.157   5.738 -0.9184  1.3073 -2.1835
  115MOL   H37343921   0.778   7.289   5.558  0.3310 -1.2748  1.3686
  115MOL   H37443922   0.571   7.186   5.510  0.6843  0.5143 -1.5498
  115MOL   H37543923   0.355   7.382   5.509  2.7574  0.9424 -0.4782
  115MOL   H37643924   0.400   7.196   5.269 -0.3921  0.2327  0.1482
  115MOL   H37743925   0.288   7.326   5.274 -0.3334 -0.7232  1.1182
  115MOL   H37843926   0.455   7.364   5.272 -0.0252  0.8915  0.4284
  115MOL   H37943927   0.299   7.185   5.636 -2.0233 -1.7304  0.3267
  115MOL   H38043928   0.211   7.164   5.477 -0.0080 -0.3905 -0.0911
  115MOL   H38143929   0.345   7.071   5.515 -0.1773  0.6729 -1.1272
  115MOL   H38243930   0.779   7.420   5.670  1.4804 -1.0019  0.0854
  116MOL     C143931   5.336   3.168   7.457  0.5363 -0.1338 -0.1798
  116MOL     C243932   5.372   3.247   7.589  0.3897 -0.9800 -0.4598
  116MOL     C343933   5.306   3.386   7.576 -0.7418  0.6425 -0.4823
  116MOL     O443934   5.201   3.416   7.632 -0.3334 -0.3346 -0.2500
  116MOL     N543935   5.375   3.473   7.509  0.2725  0.5053  0.1622
  116MOL     C643936   5.345   3.613   7.491 -0.4219  0.1809 -0.0916
  116MOL     C743937   5.378   3.691   7.619  0.0019  0.1612 -0.0610
  116MOL     C843938   5.434   3.664   7.377 -0.2260 -0.0738 -0.7257
  116MOL     H943939   5.370   3.065   7.464  0.0774 -0.2822 -0.1159
  116MOL    H1043940   5.363   3.212   7.360 -0.4558 -0.3735 -0.5732
  116MOL    H1143941   5.481   3.247   7.598  0.3619 -0.0161 -0.0135
  116MOL    H1243942   5.453   3.429   7.464  0.3868  1.0034 -0.1316
  116MOL    H1343943   5.238   3.620   7.474 -0.1093  0.8623 -1.8357
  116MOL    H1443944   5.357   3.797   7.614  2.0324  0.6176  0.8245
  116MOL    H1543945   5.477   3.689   7.663 -0.1949 -0.6964  0.3723
  116MOL    H1643946   5.310   3.655   7.697  1.1644  1.9212  1.8277
  116MOL    H1743947   5.507   3.736   7.414 -1.9089  1.1605  0.2655
  116MOL    H1843948   5.474   3.598   7.300 -1.5633  1.6140 -2.9620
  116MOL    H1943949   5.368   3.728   7.317 -0.5628 -0.2436 -0.5412
  116MOL    H2043950   5.229   3.166   7.440  0.7606 -1.8086 -1.4389
  116MOL    C2143951   5.319   3.166   7.717 -1.4141  0.8300  0.4021
  116MOL    C2243952   5.352   3.218   0.020 -0.0556 -0.6395 -0.4597
  116MOL    C2343953   5.506   3.223   0.043  0.0238 -0.0096 -0.0081
  116MOL    O2443954   5.565   3.327   0.022 -0.3536  0.1161 -1.1034
  116MOL    N2543955   5.567   3.107   0.067  0.8197 -0.1210 -1.0833
  116MOL    C2643956   5.708   3.088   0.105 -0.2186 -0.5667 -0.1553
  116MOL    C2743957   5.791   3.072   7.806  0.3612 -0.4967 -0.6283
  116MOL    C2843958   5.734   2.973   0.200  0.1906  0.6160  0.0639
  116MOL    H2943959   5.357   3.064   7.718 -0.2883  1.2291 -0.9004
  116MOL    H3043960   5.211   3.154   7.715 -1.5809  1.8696  1.8807
  116MOL    H3143961   5.318   3.321   0.027  1.6516 -0.0444 -0.6090
  116MOL    H3243962   5.516   3.021   0.075  2.1309 -0.8790 -0.8134
  116MOL    H3343963   5.742   3.179   0.156  1.1467 -1.2116  0.1012
  116MOL    H3443964   5.761   3.148   7.734 -1.3592  1.0409  1.6165
  116MOL    H3543965   5.767   2.973   7.768  2.3877 -0.7168 -1.3655
  116MOL    H3643966   5.898   3.079   7.824  0.5298 -2.6494 -0.7264
  116MOL    H3743967   5.703   2.875   0.165 -1.4229  0.9946  0.3819
  116MOL    H3843968   5.840   2.966   0.227  0.0979  0.4182  0.3674
  116MOL    H3943969   5.673   2.978   0.290 -1.1160  1.8950 -0.8746
  116MOL    C4043970   5.286   3.137   0.134  0.3329 -0.1081 -0.9681
  116MOL    C4143971   5.305   3.202   0.278 -0.5426 -0.3388 -0.1903
  116MOL    C4243972   5.435   3.155   0.357  0.3495  0.2714  0.0061
  116MOL    O4343973   5.436   3.040   0.400 -0.4503 -0.1379  0.0791
  116MOL    N4443974   5.529   3.241   0.376  0.1808  0.0388  0.2597
  116MOL    C4543975   5.642   3.226   0.465  0.4349  0.1142 -0.4789
  116MOL    C4643976   5.736   3.341   0.429  0.1443  0.1910 -0.1721
  116MOL    C4743977   5.605   3.230   0.613  0.8558 -0.8345  0.2860
  116MOL    H4843978   5.319   3.033   0.129  0.8112 -0.1742  2.4447
  116MOL    H4943979   5.179   3.132   0.109 -0.3241  1.1693  1.4972
  116MOL    H5043980   5.311   3.311   0.277  0.0711 -0.3386  1.1680
  116MOL    H5143981   5.522   3.328   0.325  0.0728 -0.0927  0.0508
  116MOL    H5243982   5.697   3.134   0.444  1.0118  0.0309  1.3004
  116MOL    H5343983   5.762   3.323   0.325  1.1882  0.1669  0.0869
  116MOL    H5443984   5.824   3.341   0.493 -1.4299  1.5801  2.0896
  116MOL    H5543985   5.686   3.438   0.431 -1.6184 -0.6560 -1.7114
  116MOL    H5643986   5.548   3.142   0.642  1.9512 -2.0237 -1.1579
  116MOL    H5743987   5.550   3.319   0.645  0.2505 -0.7283 -1.0227
  116MOL    H5843988   5.693   3.215   0.675  0.4278  1.1055  1.4463
  116MOL    C5943989   5.185   3.173   0.371  0.1593 -0.0577 -0.0746
  116MOL    C6043990   5.166   3.239   0.512  0.2176 -1.1521 -0.0738
  116MOL    C6143991   5.124   3.141   0.622 -0.1515  0.9401 -0.2118
  116MOL    O6243992   5.013   3.146   0.678  0.6713  0.2858 -0.4695
  116MOL    N6343993   5.224   3.056   0.659 -0.4958  0.2040 -0.1205
  116MOL    C6443994   5.219   2.947   0.755 -0.3157  0.2305 -0.1734
  116MOL    C6543995   5.331   2.855   0.728 -0.4430  0.0669 -0.4813
  116MOL    C6643996   5.224   2.996   0.901 -0.0659 -0.0757  0.6142
  116MOL    H6743997   5.095   3.185   0.311  0.1898  1.3105  0.1486
  116MOL    H6843998   5.197   3.066   0.388 -1.6643 -0.2615  0.0864
  116MOL    H6943999   5.269   3.264   0.539  0.1439  0.1339 -0.9142
  116MOL    H7044000   5.302   3.043   0.596 -0.5407 -0.1679 -0.1037
  116MOL    H7144001   5.123   2.899   0.739 -0.5935  0.8026 -0.2125
  116MOL    H7244002   5.320   2.772   0.798 -0.7071  0.9946  0.5967
  116MOL    H7344003   5.340   2.816   0.627  0.5280  2.5872 -1.4054
  116MOL    H7444004   5.420   2.913   0.754 -0.2848  0.2011 -1.3074
  116MOL    H7544005   5.316   2.958   0.944  1.0958  0.8276 -1.0159
  116MOL    H7644006   5.230   3.105   0.905  0.8251 -0.1388  0.9981
  116MOL    H7744007   5.145   2.957   0.965 -0.5501  0.2046  0.1947
  116MOL    C7844008   5.082   3.362   0.501  0.2494  0.1402  0.4587
  116MOL    C7944009   5.164   3.487   0.514 -0.6824  0.6588 -0.1414
  116MOL    C8044010   5.107   3.599   0.422 -0.2176  0.4661  0.3929
  116MOL    O8144011   5.060   3.702   0.475 -0.0194 -0.1699  0.7710
  116MOL    N8244012   5.115   3.580   0.291  0.5763 -0.0945 -0.3531
  116MOL    C8344013   5.060   3.668   0.184 -0.3236  0.7445 -0.5770
  116MOL    C8444014   5.162   3.776   0.147  0.5188  0.2198  0.5355
  116MOL    C8544015   5.031   3.574   0.070  0.2614 -1.0857  0.5785
  116MOL    H8644016   5.000   3.377   0.571  0.2841 -0.2692  0.5895
  116MOL    H8744017   5.025   3.356   0.409  0.8968 -1.4663  0.1393
  116MOL    H8844018   5.265   3.467   0.477 -1.1732 -1.1022 -0.5378
  116MOL    H8944019   5.151   3.491   0.257  3.0010  0.3659  0.9110
  116MOL    H9044020   4.966   3.706   0.223 -0.4986 -1.0847  0.8294
  116MOL    H9144021   5.180   3.844   0.230 -2.0327  4.8275 -2.4537
  116MOL    H9244022   5.258   3.729   0.125 -0.1240 -0.9095  0.1121
  116MOL    H9344023   5.126   3.844   0.069  1.4007  1.3827  1.1183
  116MOL    H9444024   4.953   3.503   0.096 -1.8452  1.9819  2.9797
  116MOL    H9544025   5.118   3.521   0.031 -1.3250 -1.9626 -1.8418
  116MOL    H9644026   4.990   3.633   7.825  1.2327 -1.2328 -0.0232
  116MOL    C9744027   5.185   3.530   0.664 -0.2124 -0.4201 -0.5382
  116MOL    C9844028   5.262   3.659   0.699  0.4068 -0.5910  0.1921
  116MOL    C9944029   5.404   3.657   0.639 -0.1750  0.8106 -0.3228
  116MOL   O10044030   5.485   3.563   0.661  0.0869  0.3050 -0.2616
  116MOL   N10144031   5.439   3.758   0.557  0.5244 -0.1456 -0.1576
  116MOL   C10244032   5.557   3.763   0.473 -0.4599 -0.0034  0.0849
  116MOL   C10344033   5.512   3.722   0.331 -0.0037 -0.9302 -0.3140
  116MOL   C10444034   5.621   3.902   0.494  0.2321 -0.0934  0.1436
  116MOL   H10544035   5.233   3.442   0.705  2.2496 -0.0167 -2.4654
  116MOL   H10644036   5.087   3.537   0.712  0.7575  0.1697  1.4308
  116MOL   H10744037   5.207   3.743   0.655 -2.8139 -1.5157  2.2563
  116MOL   H10844038   5.375   3.836   0.553 -1.9405 -2.1217 -0.4555
  116MOL   H10944039   5.629   3.685   0.497 -0.5166 -0.2483 -0.5405
  116MOL   H11044040   5.603   3.706   0.272  2.0620  1.3897  2.0822
  116MOL   H11144041   5.460   3.627   0.332 -2.4650  0.3906  1.2401
  116MOL   H11244042   5.445   3.797   0.289  0.9848 -1.5311 -3.0572
  116MOL   H11344043   5.673   3.908   0.590  0.0820  0.0592  0.2149
  116MOL   H11444044   5.557   3.989   0.480  2.5791  1.7482  0.3638
  116MOL   H11544045   5.705   3.920   0.426 -0.3420 -1.5468 -0.9629
  116MOL   C11644046   5.261   3.693   0.846  0.0178 -0.7644 -0.0769
  116MOL   C11744047   5.175   3.819   0.888 -0.1983 -0.3592 -0.9354
  116MOL   C11844048   5.217   3.850   1.030  0.3739  0.0611 -0.1575
  116MOL   O11944049   5.205   3.767   1.120 -0.1829 -0.2300  0.0401
  116MOL   N12044050   5.267   3.973   1.053  0.0492 -0.0488  0.5135
  116MOL   C12144051   5.297   4.043   1.173 -0.1136 -0.6518 -0.4406
  116MOL   C12244052   5.417   4.133   1.160 -0.0900  0.0164  0.1845
  116MOL   C12344053   5.176   4.138   1.214  0.1960  0.8474 -0.2444
  116MOL   H12444054   5.364   3.697   0.881 -0.1659 -1.8646  0.5997
  116MOL   H12544055   5.220   3.608   0.901 -0.3434 -0.5247  0.0327
  116MOL   H12644056   5.223   3.895   0.826  0.4251  3.5351  4.0129
  116MOL   H12744057   5.289   4.028   0.972  0.5982  0.7801  1.2128
  116MOL   H12844058   5.323   3.964   1.244  1.7568 -0.0443 -0.4132
  116MOL   H12944059   5.393   4.206   1.083 -0.1232 -0.0695  0.1133
  116MOL   H13044060   5.510   4.084   1.130 -0.4256 -0.1350 -0.6346
  116MOL   H13144061   5.439   4.185   1.253  1.6319 -0.4743  0.0617
  116MOL   H13244062   5.173   4.221   1.144 -1.1247 -0.4534 -1.7569
  116MOL   H13344063   5.078   4.090   1.208  0.7072 -0.0723 -1.2738
  116MOL   H13444064   5.187   4.178   1.315  0.4561 -0.3652  0.2175
  116MOL   C13544065   5.026   3.795   0.872  0.6655 -0.7303 -0.3201
  116MOL   C13644066   4.966   3.905   0.785 -0.1927  0.5394  0.0861
  116MOL   C13744067   4.831   3.860   0.733  0.4637  0.0692 -0.4011
  116MOL   O13844068   4.722   3.902   0.778 -0.5679 -0.5040  0.3360
  116MOL   N13944069   4.842   3.771   0.629  0.7125  0.4752 -0.6223
  116MOL   C14044070   4.724   3.692   0.569  0.2975 -0.7051  0.3595
  116MOL   C14144071   4.723   3.541   0.603 -0.0991 -0.0371  0.4848
  116MOL   C14244072   4.712   3.739   0.417 -0.3540 -0.8619 -0.7802
  116MOL   H14344073   4.974   3.787   0.967 -0.1072  1.3752 -0.5361
  116MOL   H14444074   5.004   3.693   0.839  0.9024 -1.1927  0.9063
  116MOL   H14544075   5.024   3.912   0.693 -2.1282  1.3651 -1.1107
  116MOL   H14644076   4.934   3.753   0.592  1.0243  2.5680 -0.9190
  116MOL   H14744077   4.632   3.730   0.613  1.0801 -0.4079  1.8110
  116MOL   H14844078   4.738   3.519   0.709 -0.3352 -2.2601  0.0897
  116MOL   H14944079   4.621   3.508   0.584  0.3126 -1.1935  0.2335
  116MOL   H15044080   4.792   3.480   0.544 -0.1154 -2.0572  2.4718
  116MOL   H15144081   4.709   3.846   0.397 -0.4959 -1.0561 -1.8043
  116MOL   H15244082   4.621   3.708   0.366  0.0123  2.8597 -3.9627
  116MOL   H15344083   4.791   3.694   0.356  0.8944  1.2534 -0.7782
  116MOL   C15444084   4.950   4.043   0.865  0.0689 -0.3689  0.6325
  116MOL   C15544085   4.991   4.156   0.768  0.1627 -0.1000  1.1735
  116MOL   C15644086   5.141   4.143   0.726  0.3510  0.3315 -0.2905
  116MOL   O15744087   5.229   4.138   0.811  0.0656 -0.0854  0.1769
  116MOL   N15844088   5.168   4.143   0.592 -0.1230  1.6119  0.6353
  116MOL   C15944089   5.300   4.141   0.526 -0.2427 -0.1066  0.3281
  116MOL   C16044090   5.365   4.276   0.528 -0.7348 -0.4131  0.1221
  116MOL   C16144091   5.286   4.091   0.380  0.3203 -0.1582 -0.3548
  116MOL   H16244092   5.017   4.049   0.951  1.5575 -0.6078 -0.4913
  116MOL   H16344093   4.855   4.060   0.917  0.5723  0.3931  1.3226
  116MOL   H16444094   4.943   4.145   0.671  1.0912 -0.1720  0.7201
  116MOL   H16544095   5.096   4.166   0.525  0.3687 -0.3956 -0.6219
  116MOL   H16644096   5.353   4.062   0.580 -0.6316 -0.2822  0.4570
  116MOL   H16744097   5.311   4.346   0.464 -2.9396 -1.5960  0.6244
  116MOL   H16844098   5.383   4.316   0.628 -0.5357  0.6350 -0.3249
  116MOL   H16944099   5.472   4.268   0.508 -0.8487 -0.0329 -0.6745
  116MOL   H17044100   5.380   4.103   0.326  1.4294  0.8535  1.7299
  116MOL   H17144101   5.210   4.144   0.323 -0.7598 -0.2072  1.0120
  116MOL   H17244102   5.264   3.984   0.381 -0.9456  0.0783 -0.9049
  116MOL   C17344103   4.947   4.296   0.821 -0.4451 -0.4261  0.7595
  116MOL   C17444104   4.960   4.408   0.712 -0.6712 -0.2875  0.4514
  116MOL   C17544105   4.879   4.372   0.585  0.1868  0.0331  0.1535
  116MOL   O17644106   4.938   4.325   0.488  0.1214  0.9293  0.4774
  116MOL   N17744107   4.750   4.387   0.593  0.2553 -0.2617 -0.5786
  116MOL   C17844108   4.645   4.381   0.490  0.2479  0.2353  0.2844
  116MOL   C17944109   4.597   4.524   0.444  0.4384  0.2544 -0.2603
  116MOL   C18044110   4.532   4.288   0.538 -0.3667 -0.4218 -1.0131
  116MOL   H18144111   5.011   4.317   0.907 -1.4741  0.8008  1.2385
  116MOL   H18244112   4.850   4.297   0.870 -0.5772  1.2359  0.5012
  116MOL   H18344113   5.062   4.406   0.673 -1.1478 -0.5059 -0.8116
  116MOL   H18444114   4.719   4.413   0.685  2.1075 -0.2701  0.0790
  116MOL   H18544115   4.693   4.339   0.401 -0.3798  1.6947 -0.7651
  116MOL   H18644116   4.527   4.520   0.361 -0.6246 -1.2431  0.6918
  116MOL   H18744117   4.683   4.580   0.406  0.9986 -1.2798 -1.3474
  116MOL   H18844118   4.563   4.575   0.533 -1.8319 -3.1774  0.9312
  116MOL   H18944119   4.440   4.321   0.490 -1.1966 -3.1293 -1.3642
  116MOL   H19044120   4.512   4.299   0.644 -1.3907  2.1230 -1.4385
  116MOL   H19144121   4.562   4.187   0.510  0.7037 -0.9703  1.8996
  116MOL   C19244122   4.941   4.551   0.770 -0.1976 -0.1397 -0.1496
  116MOL   C19344123   4.935   4.673   0.669  0.0425  0.2146  0.1800
  116MOL   C19444124   5.048   4.664   0.560 -0.1580 -0.2553 -0.1719
  116MOL   O19544125   5.156   4.610   0.595  0.6160  0.1069  0.2351
  116MOL   N19644126   5.014   4.699   0.439 -0.2348 -0.0719 -0.1009
  116MOL   C19744127   5.099   4.688   0.324  0.0625  0.1622  0.7988
  116MOL   C19844128   5.102   4.544   0.260  0.3424 -0.0211 -0.7780
  116MOL   C19944129   5.051   4.784   0.211  0.5573  0.0983 -1.0057
  116MOL   H20044130   5.019   4.584   0.839 -0.5012  1.6389 -0.6138
  116MOL   H20144131   4.841   4.552   0.815 -0.9379  0.6870 -1.7496
  116MOL   H20244132   4.844   4.658   0.611  0.0215  1.8132 -0.2137
  116MOL   H20344133   4.921   4.738   0.428 -0.0388  1.1755  2.2715
  116MOL   H20444134   5.201   4.710   0.354 -0.3364  1.0731  1.5091
  116MOL   H20544135   5.164   4.472   0.314  1.7924  1.4632 -0.3994
  116MOL   H20644136   5.140   4.545   0.158 -0.2119  2.1928 -0.9897
  116MOL   H20744137   5.002   4.507   0.243 -0.8788  2.5018  0.6019
  116MOL   H20844138   4.951   4.760   0.175  0.5432 -0.3332 -0.7004
  116MOL   H20944139   5.105   4.767   0.118 -0.9252  3.3039 -2.5052
  116MOL   H21044140   5.069   4.890   0.228 -0.8520  0.1730  0.1328
  116MOL   C21144141   4.926   4.814   0.739  0.6053  0.7435  0.1101
  116MOL   C21244142   4.791   4.891   0.723  0.7816 -0.2492 -0.0673
  116MOL   C21344143   4.771   4.932   0.572  0.3646 -0.2973  0.7984
  116MOL   O21444144   4.692   4.872   0.499 -0.8776 -0.3290 -0.4116
  116MOL   N21544145   4.837   5.039   0.532 -0.1365  0.2854 -0.2289
  116MOL   C21644146   4.834   5.092   0.391  0.6894 -0.6222  0.5372
  116MOL   C21744147   4.921   5.215   0.380 -0.1008 -0.4231  0.0434
  116MOL   C21844148   4.693   5.136   0.335 -0.0292 -0.3468 -0.0329
  116MOL   H21944149   5.005   4.878   0.698 -0.9474  2.3583 -0.4213
  116MOL   H22044150   4.937   4.794   0.846 -1.9025 -1.6374 -0.0174
  116MOL   H22144151   4.782   4.978   0.788 -0.8669  0.9268 -1.8196
  116MOL   H22244152   4.901   5.087   0.593  0.7450  2.0098 -2.4358
  116MOL   H22344153   4.876   5.013   0.327 -2.3861 -0.0262 -2.3473
  116MOL   H22444154   4.936   5.268   0.286 -2.6453  0.4123  0.0660
  116MOL   H22544155   4.896   5.291   0.455 -1.9229 -1.5664  0.6375
  116MOL   H22644156   5.019   5.173   0.402 -0.6930 -2.2204 -0.6292
  116MOL   H22744157   4.668   5.228   0.387  0.4585 -0.1702 -0.1064
  116MOL   H22844158   4.607   5.076   0.366 -0.5246  0.9210  1.0563
  116MOL   H22944159   4.692   5.154   0.227  0.2915  1.1165  0.1946
  116MOL   C23044160   4.671   4.807   0.772  0.2427 -0.1693  0.0022
  116MOL   C23144161   4.660   4.763   0.918 -0.0144  0.0968 -0.4403
  116MOL   C23244162   4.701   4.872   1.019  0.7661  0.5373  0.0245
  116MOL   O23344163   4.648   4.979   1.022 -0.2358  0.3895 -0.0784
  116MOL   N23444164   4.792   4.824   1.105 -0.0546  0.1826 -0.1570
  116MOL   C23544165   4.845   4.900   1.217 -0.7698  0.3689  0.0226
  116MOL   C23644166   4.763   4.877   1.341 -0.4267 -0.0734 -0.3039
  116MOL   C23744167   4.997   4.871   1.232 -0.5873 -0.2993  0.2694
  116MOL   H23844168   4.650   4.723   0.706 -0.0075 -1.1891  1.3722
  116MOL   H23944169   4.588   4.875   0.753  0.5972  0.6641  1.3702
  116MOL   H24044170   4.735   4.683   0.919 -1.5799 -1.4158  1.9630
  116MOL   H24144171   4.830   4.731   1.096 -0.5879  0.1004 -1.6698
  116MOL   H24244172   4.852   5.007   1.195  2.2656  0.2252  0.2140
  116MOL   H24344173   4.814   4.922   1.426 -1.0759  0.5416 -0.2395
  116MOL   H24444174   4.662   4.918   1.334  0.3448  1.8941 -0.1896
  116MOL   H24544175   4.760   4.770   1.363  1.1792 -0.1657 -0.4898
  116MOL   H24644176   5.016   4.764   1.232 -2.3063 -0.6285  0.7717
  116MOL   H24744177   5.034   4.922   1.321  0.6839 -1.4471  0.4289
  116MOL   H24844178   5.052   4.908   1.146 -1.9656 -1.2532 -1.0502
  116MOL   C24944179   4.517   4.703   0.937  0.4139  0.5165 -0.1961
  116MOL   C25044180   4.496   4.616   1.066  0.6252  0.2211  0.1930
  116MOL   C25144181   4.601   4.494   1.061  0.2233  0.4667 -0.4210
  116MOL   O25244182   4.638   4.452   0.952 -0.1966 -0.2092  0.1577
  116MOL   N25344183   4.645   4.451   1.183  0.2010  0.5872  0.1796
  116MOL   C25444184   4.749   4.348   1.196 -0.6430 -0.2415 -0.3088
  116MOL   C25544185   4.890   4.411   1.182 -0.6831  0.2771 -0.3566
  116MOL   C25644186   4.728   4.274   1.334  0.4366  0.2940  0.2297
  116MOL   H25744187   4.472   4.669   0.844 -0.4187 -2.1954  1.1718
  116MOL   H25844188   4.463   4.797   0.951  0.4166  0.5344 -0.3101
  116MOL   H25944189   4.514   4.677   1.155 -0.3435  0.6982  0.0777
  116MOL   H26044190   4.611   4.495   1.267 -4.3557 -0.7350 -0.8095
  116MOL   H26144191   4.735   4.280   1.112  1.4660 -2.7097  1.2906
  116MOL   H26244192   4.906   4.486   1.259 -1.4283  0.3982 -0.3180
  116MOL   H26344193   4.968   4.335   1.190  0.5756  1.7201  1.3736
  116MOL   H26444194   4.896   4.460   1.085 -2.0786 -0.6219 -0.9066
  116MOL   H26544195   4.741   4.340   1.419  1.6605 -0.8774  0.9843
  116MOL   H26644196   4.629   4.229   1.337 -0.1460  1.5506  0.1334
  116MOL   H26744197   4.806   4.201   1.355 -0.5675 -0.5811  1.0171
  116MOL   C26844198   4.349   4.564   1.076 -0.1698  0.0094  0.9803
  116MOL   C26944199   4.312   4.482   1.199 -1.0844  0.7082 -0.3948
  116MOL   C27044200   4.299   4.558   1.324  0.0221 -0.2686  0.0260
  116MOL   O27144201   4.238   4.664   1.332 -0.3289 -0.3279 -0.4265
  116MOL   N27244202   4.364   4.504   1.430 -0.2351 -0.2520 -0.0857
  116MOL   C27344203   4.375   4.559   1.568  0.1710 -0.1881  0.5396
  116MOL   C27444204   4.397   4.447   1.672 -0.0079 -0.3031 -0.0937
  116MOL   C27544205   4.474   4.674   1.562  0.8892  0.4505  0.4114
  116MOL   H27644206   4.270   4.638   1.061  0.7034  0.5363 -1.3145
  116MOL   H27744207   4.334   4.500   0.989  1.4448  1.0230 -0.0619
  116MOL   H27844208   4.383   4.400   1.207  1.4069  2.7973 -0.6311
  116MOL   H27944209   4.395   4.408   1.427  0.4867 -0.0438  0.5431
  116MOL   H28044210   4.276   4.599   1.585 -0.4136 -2.2389  2.2006
  116MOL   H28144211   4.313   4.378   1.662 -1.6488  1.8820 -1.8892
  116MOL   H28244212   4.491   4.397   1.653 -0.0358 -0.8461  1.1177
  116MOL   H28344213   4.410   4.484   1.774  0.9318  0.8935 -0.6331
  116MOL   H28444214   4.463   4.719   1.661 -0.3283  2.0027 -0.4064
  116MOL   H28544215   4.577   4.638   1.555  0.5610 -0.5465  0.5977
  116MOL   H28644216   4.439   4.753   1.496  0.0949  0.5274  0.9138
  116MOL   C28744217   4.177   4.421   1.173 -0.8489  0.0190 -0.6729
  116MOL   C28844218   4.133   4.323   1.285 -0.3253  0.0597 -0.6550
  116MOL   C28944219   4.227   4.205   1.287  0.0716 -0.1746  0.5557
  116MOL   O29044220   4.272   4.175   1.396 -0.7467 -0.3767  0.1117
  116MOL   N29144221   4.269   4.144   1.165  0.9952  0.2950 -0.4335
  116MOL   C29244222   4.389   4.055   1.152  0.1470 -0.1488 -0.3339
  116MOL   C29344223   4.369   3.916   1.205 -0.0965  0.0762 -0.0733
  116MOL   C29444224   4.431   4.041   1.007  0.0954 -0.2771  0.1171
  116MOL   H29544225   4.107   4.504   1.161  0.8930  1.7478  0.8182
  116MOL   H29644226   4.179   4.367   1.078  1.9240 -0.5479 -0.3457
  116MOL   H29744227   4.142   4.367   1.384  0.4851  2.3584 -1.7132
  116MOL   H29844228   4.221   4.163   1.078  0.6610  0.4420 -0.2179
  116MOL   H29944229   4.472   4.101   1.205  0.8456  0.0278 -1.5494
  116MOL   H30044230   4.349   3.914   1.312  0.5324 -0.4822  0.0414
  116MOL   H30144231   4.294   3.860   1.150  1.5707 -2.0564 -0.2420
  116MOL   H30244232   4.461   3.859   1.189 -0.0129 -0.6875  2.7495
  116MOL   H30344233   4.472   4.129   0.958 -1.8541  0.1397 -0.8001
  116MOL   H30444234   4.514   3.972   0.986  1.3761  1.8085 -1.9545
  116MOL   H30544235   4.346   4.000   0.952  0.8062  0.6322 -1.7031
  116MOL   C30644236   3.989   4.277   1.257  0.4547 -0.7474 -0.5301
  116MOL   C30744237   3.882   4.369   1.329 -0.5051 -0.4536  0.2167
  116MOL   C30844238   3.889   4.371   1.482  0.7148 -0.0346  0.1618
  116MOL   O30944239   3.879   4.267   1.546  0.0490  0.5696  0.1216
  116MOL   N31044240   3.918   4.486   1.543  0.4074  0.1629  0.4776
  116MOL   C31144241   3.894   4.508   1.684 -0.2881 -0.3574  0.5402
  116MOL   C31244242   3.992   4.437   1.766 -0.1144 -0.4681  0.5590
  116MOL   C31344243   3.894   4.661   1.695 -0.0763 -0.3280 -0.1388
  116MOL   H31444244   3.963   4.271   1.151  1.8538  0.6829 -0.9742
  116MOL   H31544245   3.985   4.172   1.287  0.3202 -0.9661 -1.2878
  116MOL   H31644246   3.905   4.470   1.296 -1.1474 -0.9062 -1.7059
  116MOL   H31744247   3.947   4.562   1.482 -0.8707  0.2882  0.0137
  116MOL   H31844248   3.791   4.478   1.704 -0.5435 -0.3303 -0.7003
  116MOL   H31944249   3.972   4.455   1.872  1.0096  0.9130  0.5635
  116MOL   H32044250   4.090   4.483   1.752 -2.0628  2.9774 -2.7350
  116MOL   H32144251   3.994   4.331   1.742  1.7197 -0.6961  1.5864
  116MOL   H32244252   3.811   4.702   1.637 -0.6731 -0.5996  0.5148
  116MOL   H32344253   3.986   4.704   1.655  0.2531  1.1608  2.1070
  116MOL   H32444254   3.868   4.706   1.791 -3.3678  0.1073 -1.1695
  116MOL   C32544255   3.738   4.333   1.278 -0.1293 -0.1120  0.2367
  116MOL   C32644256   3.630   4.437   1.315  0.5113  0.0404  0.0057
  116MOL   C32744257   3.665   4.568   1.236  0.1226 -0.2683 -0.1582
  116MOL   O32844258   3.669   4.578   1.114  0.1952  1.1813  0.3155
  116MOL   N32944259   3.698   4.671   1.320 -0.7120 -0.0936  0.0477
  116MOL   C33044260   3.751   4.797   1.274  0.0784 -0.4364 -0.4563
  116MOL   C33144261   3.906   4.804   1.293  0.1275 -0.1450  0.0312
  116MOL   C33244262   3.675   4.907   1.351 -0.1457 -0.3869  0.5163
  116MOL   H33344263   3.709   4.236   1.319 -0.5874  0.8308  2.1949
  116MOL   H33444264   3.748   4.305   1.173 -1.0064 -0.1287  0.1512
  116MOL   H33544265   3.645   4.460   1.420  1.0469  0.9748 -0.2692
  116MOL   H33644266   3.680   4.649   1.417 -1.2432  1.7886  0.4035
  116MOL   H33744267   3.736   4.808   1.167 -1.8594 -4.5695 -0.7197
  116MOL   H33844268   3.951   4.801   1.392  0.9691  1.0784 -0.2895
  116MOL   H33944269   3.952   4.731   1.227 -0.2751 -1.3442  1.0634
  116MOL   H34044270   3.935   4.907   1.272 -0.5567  0.4185  1.8240
  116MOL   H34144271   3.697   4.900   1.458  0.2725  2.8765  0.6846
  116MOL   H34244272   3.566   4.911   1.338  0.0220  1.6215 -0.3940
  116MOL   H34344273   3.701   5.006   1.314 -1.9380 -0.2503 -0.4213
  116MOL   C34444274   3.482   4.392   1.280  1.1743  0.3456  0.1563
  116MOL   C34544275   3.430   4.392   1.131 -0.8201  0.1979 -0.1588
  116MOL   C34644276   3.509   4.286   1.047 -0.0284  0.1779 -0.5263
  116MOL   O34744277   3.525   4.170   1.086 -0.1515  0.4864  0.4807
  116MOL   N34844278   3.556   4.331   0.930  0.7636  0.1348 -0.5955
  116MOL   C34944279   3.648   4.271   0.846 -0.5312 -0.3466 -0.3011
  116MOL   C35044280   3.565   4.240   0.725 -0.6343 -0.1333 -0.3931
  116MOL   C35144281   3.772   4.363   0.825 -0.5303  0.7890 -0.3488
  116MOL   H35244282   3.409   4.450   1.336 -0.9487 -1.3064 -0.8129
  116MOL   H35344283   3.482   4.287   1.309 -0.6088  0.8906  2.2322
  116MOL   H35444284   3.444   4.492   1.092 -1.1362  0.1077 -0.5014
  116MOL   H35544285   3.543   4.431   0.928  2.6916  0.3892 -1.4574
  116MOL   H35644286   3.683   4.178   0.891  2.0320  0.5907 -0.2660
  116MOL   H35744287   3.521   4.329   0.681  0.4484 -0.7635 -2.8047
  116MOL   H35844288   3.613   4.188   0.642 -1.1714  0.8828 -1.3551
  116MOL   H35944289   3.484   4.177   0.763  0.0216 -0.4334  0.5429
  116MOL   H36044290   3.838   4.366   0.912  0.4810  1.9505 -1.1328
  116MOL   H36144291   3.836   4.318   0.750 -1.4762 -1.4576  0.1677
  116MOL   H36244292   3.760   4.469   0.802 -1.8912  0.4791 -1.1308
  116MOL   C36344293   3.279   4.350   1.128 -0.2262  0.3836 -1.0115
  116MOL   C36444294   3.209   4.396   0.991  0.1400 -0.5897 -0.1839
  116MOL   C36544295   3.211   4.294   0.888  0.0779 -0.3569  0.0765
  116MOL   O36644296   3.176   4.179   0.925 -0.0413  0.2318  0.3352
  116MOL   N36744297   3.227   4.332   0.761  0.0037 -0.0634 -0.3501
  116MOL   C36844298   3.224   4.269   0.628 -0.9853 -0.8555  0.2365
  116MOL   C36944299   3.224   4.112   0.631  0.2135  0.0016 -0.4431
  116MOL   C37044300   3.103   4.325   0.554  0.4088  0.4498 -0.2082
  116MOL   H37144301   3.219   4.394   1.207  1.0028 -0.6937  0.5327
  116MOL   H37244302   3.265   4.242   1.138 -1.3514  0.6448  0.3954
  116MOL   H37344303   3.259   4.490   0.968 -0.7461  0.4774  2.0994
  116MOL   H37444304   3.243   4.431   0.749 -3.5807  0.5208 -0.8236
  116MOL   H37544305   3.318   4.296   0.580 -1.7633  0.1871 -0.7412
  116MOL   H37644306   3.137   4.082   0.688 -1.1673  2.8775 -0.9416
  116MOL   H37744307   3.202   4.080   0.529 -1.9933  0.3606 -0.1037
  116MOL   H37844308   3.318   4.079   0.676 -1.3986 -1.5952  1.8049
  116MOL   H37944309   3.099   4.267   0.462  2.0972 -1.6842  1.0089
  116MOL   H38044310   3.002   4.315   0.594  0.0989  1.4629 -0.7339
  116MOL   H38144311   3.115   4.424   0.513  0.0828 -0.0844 -1.6104
  116MOL   H38244312   3.106   4.425   1.011  0.2573  0.9487 -1.6535
  117MOL     C144313   7.192   1.265   6.352  0.0838 -0.0661 -0.4394
  117MOL     C244314   7.245   1.163   6.449  1.4696  0.1407  0.6270
  117MOL     C344315   7.246   1.228   6.583 -0.7330 -0.1377 -0.1396
  117MOL     O444316   7.154   1.306   6.619  0.4674  0.1594  0.1964
  117MOL     N544317   7.335   1.183   6.668 -0.7091 -0.0448 -0.6463
  117MOL     C644318   7.351   1.226   6.809 -0.2233  0.6514 -0.2453
  117MOL     C744319   7.296   1.117   6.907  0.2007 -0.2589  0.0131
  117MOL     C844320   7.498   1.242   6.837 -0.2275 -0.3469 -0.4543
  117MOL     H944321   7.233   1.223   6.260  0.0682 -0.9919 -0.0283
  117MOL    H1044322   7.233   1.365   6.366 -1.1145  0.5703 -1.4309
  117MOL    H1144323   7.343   1.147   6.405  0.7005  1.2101 -1.5350
  117MOL    H1244324   7.396   1.112   6.631  0.7058  1.1485 -0.6264
  117MOL    H1344325   7.296   1.319   6.827 -2.3096 -0.3605 -1.1784
  117MOL    H1444326   7.312   1.162   7.004 -0.3416  2.2632 -1.0248
  117MOL    H1544327   7.345   1.019   6.908  0.3737 -0.1701  0.1999
  117MOL    H1644328   7.189   1.104   6.895 -0.5636 -0.2987  5.5946
  117MOL    H1744329   7.521   1.261   6.942 -1.5559 -2.3976  0.2605
  117MOL    H1844330   7.538   1.142   6.824 -1.2830 -1.0636  1.4561
  117MOL    H1944331   7.542   1.317   6.772 -1.0027 -1.0703 -1.8419
  117MOL    H2044332   7.083   1.266   6.348 -0.0056  0.6851  1.4480
  117MOL    C2144333   7.150   1.041   6.440 -0.3704  0.5164 -0.0921
  117MOL    C2244334   7.154   0.931   6.552  0.2721 -0.5472 -0.8344
  117MOL    C2344335   7.287   0.856   6.555  0.0406 -0.3315 -0.1674
  117MOL    O2444336   7.377   0.889   6.479  0.3932 -0.8532 -0.8897
  117MOL    N2544337   7.303   0.757   6.651 -0.3132 -0.0892 -0.2223
  117MOL    C2644338   7.410   0.665   6.673 -0.2403 -0.0538 -0.3290
  117MOL    C2744339   7.357   0.541   6.753 -0.0211  0.6362  0.6909
  117MOL    C2844340   7.514   0.721   6.760 -0.4853 -0.4963 -0.1742
  117MOL    H2944341   7.166   0.975   6.355  2.6926 -0.1460  0.9393
  117MOL    H3044342   7.048   1.081   6.440  0.0520  1.6086  0.3718
  117MOL    H3144343   7.141   0.970   6.654 -1.1203  1.5208 -1.7510
  117MOL    H3244344   7.219   0.726   6.699 -0.5512  0.9039  0.0105
  117MOL    H3344345   7.452   0.628   6.579 -0.8520  0.0194 -0.6331
  117MOL    H3444346   7.321   0.574   6.850 -0.3041  0.2194  0.7301
  117MOL    H3544347   7.436   0.469   6.773 -0.5267 -0.5207 -1.2849
  117MOL    H3644348   7.272   0.491   6.705 -0.2841  0.0186  1.7979
  117MOL    H3744349   7.560   0.812   6.719  0.3391  0.3674  2.5501
  117MOL    H3844350   7.464   0.750   6.853 -0.2918  0.2339 -0.2959
  117MOL    H3944351   7.591   0.647   6.783 -0.4151 -0.2248  0.4944
  117MOL    C4044352   7.051   0.818   6.521 -0.3177  0.3607 -0.0241
  117MOL    C4144353   6.941   0.808   6.629 -0.5992  0.4886  0.3009
  117MOL    C4244354   7.002   0.777   6.771 -0.3624 -0.0729  0.1661
  117MOL    O4344355   7.061   0.673   6.780  0.8085  0.1335 -0.2967
  117MOL    N4444356   6.971   0.869   6.865 -0.2980 -0.6415  0.1269
  117MOL    C4544357   6.980   0.832   7.005  0.5840 -0.9464 -0.5440
  117MOL    C4644358   7.124   0.794   7.049  0.6243  0.2353  0.2697
  117MOL    C4744359   6.917   0.948   7.094  0.7862  0.6731 -0.0835
  117MOL    H4844360   7.097   0.719   6.526  0.8369  0.9930  2.9024
  117MOL    H4944361   7.009   0.822   6.420  0.0847  0.0840 -0.2034
  117MOL    H5044362   6.886   0.903   6.628 -2.1507 -0.3869 -0.3421
  117MOL    H5144363   6.925   0.950   6.827 -0.4560  0.1483  1.9733
  117MOL    H5244364   6.918   0.745   7.028 -0.3284 -0.2540 -0.3358
  117MOL    H5344365   7.103   0.748   7.146 -1.4514 -0.0192 -0.2759
  117MOL    H5444366   7.196   0.876   7.054  2.3813 -1.1502 -1.8434
  117MOL    H5544367   7.172   0.715   6.992 -3.6415 -1.0158 -1.8339
  117MOL    H5644368   6.979   1.034   7.120 -0.3275  1.0256  1.4660
  117MOL    H5744369   6.878   0.911   7.189 -1.1951 -0.7878 -1.4179
  117MOL    H5844370   6.829   0.997   7.051 -0.6408 -0.7983  1.0735
  117MOL    C5944371   6.843   0.700   6.592 -0.6905 -0.0556 -0.5203
  117MOL    C6044372   6.717   0.682   6.688 -0.6552 -0.0797  0.1127
  117MOL    C6144373   6.639   0.553   6.663  0.0877 -0.1451 -0.6365
  117MOL    O6244374   6.587   0.539   6.551 -0.1920  0.4988 -0.3671
  117MOL    N6344375   6.625   0.466   6.760  0.3239  0.0116  0.2394
  117MOL    C6444376   6.559   0.335   6.757 -0.3103  0.5967  0.1982
  117MOL    C6544377   6.611   0.262   6.883 -0.2102 -0.1042 -0.2499
  117MOL    C6644378   6.411   0.353   6.768 -0.3299 -0.0095 -0.8150
  117MOL    H6744379   6.800   0.724   6.495 -1.1899  1.2679  0.0096
  117MOL    H6844380   6.898   0.611   6.562  2.2719  1.1411  1.0618
  117MOL    H6944381   6.736   0.694   6.795  1.6637  0.5300 -0.3552
  117MOL    H7044382   6.670   0.492   6.847 -0.5483  0.5350  0.5315
  117MOL    H7144383   6.578   0.276   6.668  0.1725  0.5540  0.3235
  117MOL    H7244384   6.625   0.321   6.974  0.9245 -2.1417  0.9265
  117MOL    H7344385   6.553   0.172   6.901 -2.1969  1.6113  2.1873
  117MOL    H7444386   6.715   0.234   6.865 -0.1771 -1.1548  1.4865
  117MOL    H7544387   6.371   0.410   6.852  2.2905 -0.0154  0.4885
  117MOL    H7644388   6.376   0.421   6.691  0.4256 -0.2456 -1.3720
  117MOL    H7744389   6.364   0.256   6.752 -3.4985  0.7830  2.8877
  117MOL    C7844390   6.627   0.802   6.655 -0.1067 -0.0436  0.1270
  117MOL    C7944391   6.494   0.821   6.734 -0.0822 -0.1407 -0.3898
  117MOL    C8044392   6.514   0.835   6.882  0.1907 -0.3396  0.0091
  117MOL    O8144393   6.567   0.938   6.932 -1.6780  0.1098 -0.2197
  117MOL    N8244394   6.470   0.733   6.948 -0.3126 -0.0362 -0.6155
  117MOL    C8344395   6.446   0.723   7.087  0.6044 -0.1589  0.8203
  117MOL    C8444396   6.345   0.609   7.122  0.5126 -0.6691  0.2576
  117MOL    C8544397   6.583   0.712   7.162  0.3186  0.0569 -0.6180
  117MOL    H8644398   6.606   0.802   6.548 -3.6206 -0.1710  0.7578
  117MOL    H8744399   6.684   0.893   6.670 -0.5394  0.2667 -0.1093
  117MOL    H8844400   6.422   0.745   6.705 -0.3138  0.4755 -1.4599
  117MOL    H8944401   6.452   0.653   6.889 -0.5951 -1.1310  0.9350
  117MOL    H9044402   6.391   0.812   7.116 -0.0437  0.2470 -1.5346
  117MOL    H9144403   6.363   0.527   7.053  0.7020  1.1350 -1.9013
  117MOL    H9244404   6.381   0.569   7.217 -0.9061 -0.3901  0.9250
  117MOL    H9344405   6.240   0.639   7.128  1.0270  1.5029 -1.0915
  117MOL    H9444406   6.574   0.744   7.266 -0.4625 -1.1782 -0.3002
  117MOL    H9544407   6.648   0.789   7.119 -1.6217  1.1645 -1.6417
  117MOL    H9644408   6.640   0.621   7.145 -0.1108 -0.2404 -0.4803
  117MOL    C9744409   6.423   0.943   6.679 -0.1345 -0.1412 -0.0825
  117MOL    C9844410   6.288   0.984   6.749  0.6267  0.1159 -0.4529
  117MOL    C9944411   6.174   0.907   6.674 -0.3817  0.1085  1.0594
  117MOL   O10044412   6.163   0.784   6.681 -1.0407  0.2388  0.4486
  117MOL   N10144413   6.087   0.980   6.598 -0.2998  0.2795  0.4908
  117MOL   C10244414   5.987   0.929   6.501 -0.2807 -0.0613  0.0073
  117MOL   C10344415   5.856   0.904   6.579 -0.0508 -0.1266  0.4032
  117MOL   C10444416   5.974   1.035   6.389 -0.7586  0.3699 -0.2497
  117MOL   H10544417   6.402   0.930   6.573  1.1206  0.7532 -0.4562
  117MOL   H10644418   6.490   1.028   6.689  0.0710 -0.1614 -1.3308
  117MOL   H10744419   6.275   0.941   6.848 -0.3478  0.6709 -0.3361
  117MOL   H10844420   6.093   1.080   6.587  2.3471  0.0505 -0.3777
  117MOL   H10944421   6.018   0.840   6.446  1.8008 -0.1498  1.2722
  117MOL   H11044422   5.773   0.885   6.512 -1.3146 -0.5543  2.0570
  117MOL   H11144423   5.843   0.825   6.653 -2.8117  0.0624  0.1828
  117MOL   H11244424   5.838   0.999   6.628 -2.3415 -1.5771  2.4806
  117MOL   H11344425   6.073   1.039   6.344 -0.6013 -2.1061 -0.1530
  117MOL   H11444426   5.954   1.132   6.436 -1.8884  0.5832 -1.1400
  117MOL   H11544427   5.897   1.008   6.317 -0.3515 -1.1650 -0.1290
  117MOL   C11644428   6.268   1.138   6.765 -0.3875  0.3985  0.1941
  117MOL   C11744429   6.367   1.212   6.855 -0.1056 -0.2487  0.5629
  117MOL   C11844430   6.329   1.205   7.002  0.9445  0.0179  0.1776
  117MOL   O11944431   6.236   1.276   7.043 -0.5408  0.4242 -0.5431
  117MOL   N12044432   6.400   1.118   7.084  0.0229 -0.2221  0.0640
  117MOL   C12144433   6.422   1.136   7.229  0.6243  0.2424  0.1027
  117MOL   C12244434   6.334   1.057   7.330 -0.7320 -0.9179  0.4400
  117MOL   C12344435   6.567   1.114   7.266 -0.1193 -0.3151  0.1345
  117MOL   H12444436   6.168   1.148   6.808 -0.8390  1.1937 -1.0192
  117MOL   H12544437   6.260   1.190   6.669  3.1920  4.0616  1.7346
  117MOL   H12644438   6.464   1.163   6.845  1.2294  2.6577 -1.3129
  117MOL   H12744439   6.455   1.045   7.040 -0.1424 -0.2889 -0.0324
  117MOL   H12844440   6.406   1.243   7.243  0.5006  0.3413 -0.7648
  117MOL   H12944441   6.340   1.090   7.433  1.5631  0.8438 -0.1856
  117MOL   H13044442   6.355   0.950   7.332  0.2423 -0.7251  0.9828
  117MOL   H13144443   6.231   1.077   7.302 -0.1818  1.4709 -0.0294
  117MOL   H13244444   6.599   1.014   7.238  1.0218  0.2885 -0.7770
  117MOL   H13344445   6.622   1.189   7.209 -1.7176  1.5748  0.9944
  117MOL   H13444446   6.589   1.130   7.372  0.1179 -0.2372  0.0754
  117MOL   C13544447   6.395   1.355   6.804 -0.0310  0.1742 -0.1150
  117MOL   C13644448   6.522   1.434   6.856 -0.1323  0.4869 -0.0574
  117MOL   C13744449   6.644   1.418   6.766 -0.3812 -0.5987 -0.7384
  117MOL   O13844450   6.682   1.515   6.699  0.3864 -0.4688  0.0875
  117MOL   N13944451   6.700   1.300   6.776  0.3505 -0.6543  0.1062
  117MOL   C14044452   6.816   1.264   6.696  0.4157 -0.2112  0.1080
  117MOL   C14144453   6.772   1.214   6.559 -0.3133 -0.7933  0.2626
  117MOL   C14244454   6.887   1.159   6.774  0.1893 -0.3244  0.2642
  117MOL   H14344455   6.306   1.415   6.825 -0.7379 -0.9499  0.1807
  117MOL   H14444456   6.404   1.348   6.696  0.1732 -0.8002 -0.0370
  117MOL   H14544457   6.552   1.390   6.951 -2.5441 -2.0744 -0.4103
  117MOL   H14644458   6.662   1.230   6.837 -0.9740 -1.0938 -1.1753
  117MOL   H14744459   6.880   1.349   6.673  0.4531 -0.3484 -0.2905
  117MOL   H14844460   6.859   1.202   6.495 -0.6326  0.4179 -0.4140
  117MOL   H14944461   6.722   1.117   6.565  1.8486 -1.9524  0.0244
  117MOL   H15044462   6.710   1.296   6.523  0.6954  0.8545  2.2680
  117MOL   H15144463   6.928   1.197   6.868  2.8903 -2.9972  0.2587
  117MOL   H15244464   6.978   1.131   6.720  0.1164 -1.0497  0.5179
  117MOL   H15344465   6.823   1.075   6.798 -1.0595  0.2122 -1.1414
  117MOL   C15444466   6.479   1.586   6.872 -0.1813  0.4106  0.1661
  117MOL   C15544467   6.582   1.683   6.945  0.2119 -0.1958  0.1580
  117MOL   C15644468   6.525   1.735   7.080  0.3724  0.7072 -0.3415
  117MOL   O15744469   6.502   1.855   7.106 -0.3700 -0.0615  0.0597
  117MOL   N15844470   6.489   1.642   7.168  0.2727  0.1504  0.5948
  117MOL   C15944471   6.436   1.661   7.297 -0.1993  0.2348  0.3593
  117MOL   C16044472   6.479   1.544   7.388 -0.3327  0.3903 -0.1020
  117MOL   C16144473   6.284   1.688   7.307 -0.1813 -0.0074 -0.3668
  117MOL   H16244474   6.385   1.606   6.922 -0.3418 -0.0935  0.0634
  117MOL   H16344475   6.459   1.627   6.773  0.9411  0.6606  0.0333
  117MOL   H16444476   6.673   1.626   6.966  0.5881 -0.6737 -2.5691
  117MOL   H16544477   6.509   1.545   7.150 -0.4452  0.0270  0.4262
  117MOL   H16644478   6.484   1.754   7.330 -1.7454 -0.0154  3.4269
  117MOL   H16744479   6.437   1.559   7.487  0.6419  1.6115  0.1473
  117MOL   H16844480   6.439   1.447   7.358  1.2248 -1.2932  2.9704
  117MOL   H16944481   6.588   1.546   7.396 -0.3125  0.7738 -0.4447
  117MOL   H17044482   6.242   1.766   7.244  0.1977 -0.5236 -1.2745
  117MOL   H17144483   6.263   1.724   7.407  0.3276  0.1023 -0.2982
  117MOL   H17244484   6.227   1.599   7.282  0.6378 -0.2107 -1.6105
  117MOL   C17344485   6.634   1.796   6.852 -0.4479 -0.3591  0.2212
  117MOL   C17444486   6.772   1.868   6.887  0.5495 -0.0422 -0.0264
  117MOL   C17544487   6.886   1.788   6.822  0.1934 -0.2292 -1.0851
  117MOL   O17644488   6.918   1.810   6.707  0.0435  0.5873  0.1747
  117MOL   N17744489   6.945   1.695   6.893 -0.2057 -0.2469 -0.1792
  117MOL   C17844490   7.017   1.584   6.844  0.0820 -0.5590 -0.5169
  117MOL   C17944491   7.001   1.463   6.933 -0.4475  0.0948 -0.5941
  117MOL   C18044492   7.160   1.617   6.825 -0.7355  0.1547 -0.2587
  117MOL   H18144493   6.543   1.852   6.832 -1.0322 -1.3556  0.0712
  117MOL   H18244494   6.648   1.752   6.754 -1.0620 -1.6415  0.7041
  117MOL   H18344495   6.788   1.865   6.994  0.8775  2.3556  0.0164
  117MOL   H18444496   6.908   1.679   6.986  0.0490  0.3597  0.0284
  117MOL   H18544497   6.977   1.558   6.747  0.0166 -1.6748 -0.1890
  117MOL   H18644498   6.899   1.442   6.965  0.3275  1.3938  3.0456
  117MOL   H18744499   7.040   1.493   7.030  1.2486  2.3744 -1.9243
  117MOL   H18844500   7.063   1.384   6.890  1.5206  0.8732  0.7420
  117MOL   H18944501   7.217   1.636   6.916  0.2133 -0.7880 -0.6496
  117MOL   H19044502   7.185   1.704   6.763  0.6383 -1.0279 -1.3840
  117MOL   H19144503   7.212   1.530   6.786  0.3118  0.5036  0.3569
  117MOL   C19244504   6.774   2.019   6.833  0.0080  0.1825  0.2418
  117MOL   C19344505   6.666   2.100   6.905 -0.0117 -0.1188 -0.5325
  117MOL   C19444506   6.544   2.125   6.817 -0.5485  0.0796  0.5068
  117MOL   O19544507   6.556   2.179   6.709  0.1043  0.0624  0.6960
  117MOL   N19644508   6.428   2.080   6.871  0.2108  0.3044  0.5497
  117MOL   C19744509   6.295   2.116   6.834 -0.5171  0.5905 -0.1158
  117MOL   C19844510   6.194   2.003   6.859 -0.6067  0.0833  0.4873
  117MOL   C19944511   6.254   2.249   6.911  0.1715 -0.0047 -0.0852
  117MOL   H20044512   6.768   2.021   6.724  1.3073 -0.0988  0.1498
  117MOL   H20144513   6.876   2.056   6.845 -0.7584  2.0549  1.0845
  117MOL   H20244514   6.637   2.054   7.000  0.1955  0.6673 -0.0849
  117MOL   H20344515   6.437   2.038   6.962 -0.8398 -1.9831 -0.3666
  117MOL   H20444516   6.295   2.134   6.727  0.7693 -0.1625 -0.2631
  117MOL   H20544517   6.202   1.964   6.960 -1.0031 -1.6403 -0.1140
  117MOL   H20644518   6.223   1.921   6.793 -1.3825  0.7194 -0.6532
  117MOL   H20744519   6.093   2.035   6.834  0.1722  3.3845  1.3525
  117MOL   H20844520   6.252   2.236   7.020  0.7001 -0.1844 -0.0955
  117MOL   H20944521   6.160   2.284   6.868  2.0431  0.8199 -3.6432
  117MOL   H21044522   6.328   2.328   6.896 -3.3906  3.1390 -1.8803
  117MOL   C21144523   6.726   2.236   6.956  0.3347  0.2869  0.5989
  117MOL   C21244524   6.632   2.324   7.043 -0.4128  0.1016 -0.0664
  117MOL   C21344525   6.569   2.255   7.174  0.5868 -0.0989  0.0328
  117MOL   O21444526   6.639   2.184   7.232 -0.1848  0.5718 -0.1190
  117MOL   N21544527   6.444   2.282   7.213 -0.3676  0.5738 -0.0984
  117MOL   C21644528   6.374   2.231   7.328 -0.5145  0.1898  0.0136
  117MOL   C21744529   6.364   2.076   7.321 -0.0389 -0.1197 -0.3878
  117MOL   C21844530   6.232   2.290   7.332 -0.2794 -0.0912 -0.5432
  117MOL   H21944531   6.763   2.286   6.867  1.0388 -0.8454  0.2465
  117MOL   H22044532   6.818   2.212   7.010  0.7187  0.9708  0.2504
  117MOL   H22144533   6.538   2.327   6.987 -0.6084  1.2559  0.3098
  117MOL   H22244534   6.398   2.350   7.155 -1.2136 -1.8020 -2.3027
  117MOL   H22344535   6.430   2.253   7.419 -0.2914 -1.3742  0.2591
  117MOL   H22444536   6.307   2.045   7.234 -1.9504  0.8000  0.5002
  117MOL   H22544537   6.463   2.030   7.316 -0.6006 -1.5544  1.2845
  117MOL   H22644538   6.321   2.044   7.416  0.0087 -0.5815 -0.5207
  117MOL   H22744539   6.174   2.251   7.249  1.4654 -0.7566 -1.4875
  117MOL   H22844540   6.223   2.398   7.344  0.3834 -0.0790 -0.1421
  117MOL   H22944541   6.186   2.252   7.423 -1.1322  2.1951  0.0182
  117MOL   C23044542   6.694   2.465   7.066 -0.3474  0.5406  0.0824
  117MOL   C23144543   6.609   2.581   7.004 -0.5653 -0.0842  0.1568
  117MOL   C23244544   6.488   2.622   7.083 -0.7380 -0.2812  0.4156
  117MOL   O23344545   6.507   2.642   7.200  0.2704 -0.2519 -0.4329
  117MOL   N23444546   6.371   2.637   7.021 -0.3645  0.2635  0.3383
  117MOL   C23544547   6.258   2.700   7.093 -0.4945 -0.2996  0.2307
  117MOL   C23644548   6.194   2.816   7.014  0.0293  0.8137 -0.3618
  117MOL   C23744549   6.166   2.591   7.135 -0.5770  0.3140 -0.1362
  117MOL   H23844550   6.790   2.463   7.015 -0.6516  0.8022 -0.4950
  117MOL   H23944551   6.720   2.483   7.171  0.7512 -1.0657  0.1115
  117MOL   H24044552   6.589   2.555   6.900  3.5757 -0.3266 -0.6867
  117MOL   H24144553   6.366   2.621   6.921  0.0221 -3.6329  0.8337
  117MOL   H24244554   6.296   2.751   7.182  0.7851 -1.0470  0.1275
  117MOL   H24344555   6.149   2.776   6.924 -2.8704  1.4880  0.7425
  117MOL   H24444556   6.113   2.873   7.061 -0.9281  0.8694 -2.0452
  117MOL   H24544557   6.270   2.880   6.967 -0.1608 -0.1835 -2.0501
  117MOL   H24644558   6.089   2.618   7.208 -2.7314  1.6161 -2.7676
  117MOL   H24744559   6.211   2.499   7.170 -0.3425  0.2277 -0.6531
  117MOL   H24844560   6.111   2.564   7.044 -0.9756 -0.8117  0.4368
  117MOL   C24944561   6.709   2.704   6.995 -0.2845 -0.1900 -0.3430
  117MOL   C25044562   6.779   2.759   7.127 -1.1205  0.3545 -0.5067
  117MOL   C25144563   6.749   2.901   7.147 -0.5878 -0.0038 -0.1011
  117MOL   O25244564   6.843   2.983   7.128  0.7206 -0.0724 -0.0757
  117MOL   N25344565   6.622   2.935   7.167 -0.7061  0.3315  0.0856
  117MOL   C25444566   6.563   3.064   7.172 -0.2237 -0.4366  0.1482
  117MOL   C25544567   6.521   3.110   7.030  0.3347 -0.2230 -0.6539
  117MOL   C25644568   6.451   3.048   7.273  0.4125  0.4770  0.2643
  117MOL   H25744569   6.658   2.792   6.956 -0.3763  0.0856  0.3961
  117MOL   H25844570   6.790   2.676   6.928  0.2852 -2.7945  1.3620
  117MOL   H25944571   6.727   2.721   7.216  0.6223  1.0053  0.8051
  117MOL   H26044572   6.567   2.861   7.208  0.8609 -1.0379 -0.2593
  117MOL   H26144573   6.629   3.145   7.203  2.2605 -1.9916 -0.9780
  117MOL   H26244574   6.470   3.026   6.983 -0.2913 -1.6370  2.3904
  117MOL   H26344575   6.453   3.193   7.047  0.3880 -0.4245  0.5897
  117MOL   H26444576   6.602   3.157   6.975  1.7844 -4.0338 -1.9287
  117MOL   H26544577   6.487   3.010   7.369 -2.5575 -0.1674  1.1718
  117MOL   H26644578   6.410   3.148   7.288  1.3105  1.3005 -2.4338
  117MOL   H26744579   6.379   2.971   7.248 -0.0185  1.1348 -0.5495
  117MOL   C26844580   6.933   2.723   7.138 -0.3140 -0.1150 -0.0566
  117MOL   C26944581   6.989   2.697   7.273 -0.4648 -0.1405  0.0326
  117MOL   C27044582   6.978   2.556   7.325 -0.1092 -0.7502 -0.1134
  117MOL   O27144583   7.044   2.463   7.275  0.0923 -0.2084  0.7158
  117MOL   N27244584   6.878   2.533   7.412 -0.0196  0.3950  0.8948
  117MOL   C27344585   6.829   2.401   7.445 -0.1868 -1.1201  0.0753
  117MOL   C27444586   6.923   2.335   7.550  0.9262 -0.2755  0.1918
  117MOL   C27544587   6.691   2.425   7.489  0.4234  0.2621 -0.3521
  117MOL   H27644588   6.970   2.638   7.081  0.8503  0.8272 -0.7314
  117MOL   H27744589   7.003   2.796   7.096  1.9771 -2.7407 -0.9672
  117MOL   H27844590   6.942   2.767   7.342  0.8327  1.2278 -0.4519
  117MOL   H27944591   6.813   2.605   7.439  0.3253  1.2249 -0.4060
  117MOL   H28044592   6.821   2.328   7.364 -1.1263 -0.4874 -0.4192
  117MOL   H28144593   6.873   2.241   7.573  0.7230  0.1076  1.3892
  117MOL   H28244594   7.024   2.316   7.514  0.2090 -3.9101 -0.1004
  117MOL   H28344595   6.943   2.398   7.637 -0.6429  1.7776 -0.8885
  117MOL   H28444596   6.678   2.471   7.587  1.7339  1.7527 -0.8634
  117MOL   H28544597   6.628   2.487   7.425 -2.3779 -1.4368  0.6428
  117MOL   H28644598   6.648   2.325   7.495  1.7766 -0.2379  1.5455
  117MOL   C28744599   7.140   2.742   7.286  0.8628  0.2642  0.2294
  117MOL   C28844600   7.202   2.735   7.431 -0.4812 -0.3535  0.7877
  117MOL   C28944601   7.134   2.835   7.532  0.3044 -0.1933  0.8251
  117MOL   O29044602   7.152   2.963   7.522  0.3786  0.1107 -0.6117
  117MOL   N29144603   7.041   2.785   7.622 -0.0665  0.1958  0.9547
  117MOL   C29244604   6.967   2.860   7.721 -0.4994 -0.4852 -0.0586
  117MOL   C29344605   6.883   2.767   7.806  0.3706  0.1557  0.9034
  117MOL   C29444606   7.053   2.945   7.817 -0.2165 -0.3925  1.1616
  117MOL   H29544607   7.196   2.668   7.228  1.2454  0.8617 -0.1832
  117MOL   H29644608   7.170   2.839   7.246 -0.4037 -0.0960 -1.6436
  117MOL   H29744609   7.192   2.634   7.471 -2.0498 -0.3639  0.4212
  117MOL   H29844610   7.055   2.687   7.640 -0.9273 -0.4321 -1.5158
  117MOL   H29944611   6.903   2.931   7.669 -0.3691 -0.1169  0.2808
  117MOL   H30044612   6.944   2.705   0.034  1.0225 -1.2685 -1.0286
  117MOL   H30144613   6.805   2.825   0.019  0.1989  1.8582 -1.2340
  117MOL   H30244614   6.829   2.700   7.739  0.2621  0.2198  0.9269
  117MOL   H30344615   7.004   3.003   0.058 -1.0874 -2.0974  1.9012
  117MOL   H30444616   7.118   2.875   0.033 -1.4307 -0.8795  2.0246
  117MOL   H30544617   7.116   3.012   7.757  1.8756 -1.9603  1.5419
  117MOL   C30644618   7.361   2.747   7.460  0.3722  0.1409  0.8510
  117MOL   C30744619   7.403   2.700   7.598 -0.5209 -0.4135 -0.1572
  117MOL   C30844620   7.558   2.729   7.625 -0.6069  0.5350  0.3087
  117MOL   O30944621   7.630   2.632   7.614  0.1552 -0.3344  0.0436
  117MOL   N31044622   7.595   2.855   7.654  0.0885 -1.1183  0.8252
  117MOL   C31144623   7.724   2.894   7.704  0.1294 -1.3503  0.3163
  117MOL   C31244624   7.825   2.925   7.600 -0.4632 -0.3609  0.0338
  117MOL   C31344625   7.718   3.009   7.806  0.3870 -1.1599 -0.1063
  117MOL   H31444626   7.418   2.697   7.382 -2.4158  3.0949 -3.2914
  117MOL   H31544627   7.386   2.852   7.444 -0.7450  0.7536  2.8825
  117MOL   H31644628   7.352   2.757   7.675  2.6716 -0.3967  2.0816
  117MOL   H31744629   7.517   2.918   7.669 -0.6243 -1.5461 -0.9816
  117MOL   H31844630   7.751   2.807   7.763  0.6784 -1.0163  0.5614
  117MOL   H31944631   7.802   3.020   7.552  0.2273 -1.2158 -2.0468
  117MOL   H32044632   7.822   2.855   7.517  2.8520  0.6712 -1.0171
  117MOL   H32144633   0.091   2.929   7.636 -2.2601 -1.4552  5.8059
  117MOL   H32244634   7.656   2.975   0.052  0.0003  0.2032  0.1632
  117MOL   H32344635   7.682   3.103   7.764 -1.3542 -2.0071 -0.5560
  117MOL   H32444636   7.807   3.035   0.027 -1.3617  2.1292  1.2410
  117MOL   C32544637   7.384   2.543   7.620  0.0101  0.3306 -0.2095
  117MOL   C32644638   7.389   2.499   7.773  0.7407 -0.3569  0.3681
  117MOL   C32744639   7.266   2.549   0.019 -0.2790  0.4590 -0.3404
  117MOL   O32844640   7.161   2.566   7.798 -0.3914 -0.2262  0.2887
  117MOL   N32944641   7.285   2.557   0.146  0.2896  0.5191  0.3863
  117MOL   C33044642   7.196   2.590   0.257  0.1843 -0.4443 -0.4652
  117MOL   C33144643   7.066   2.499   0.268 -0.2753  0.4883  0.5655
  117MOL   C33244644   7.154   2.742   0.255  0.0545 -0.8503 -0.2024
  117MOL   H33344645   7.460   2.496   7.558 -0.7414  1.3281 -1.9012
  117MOL   H33444646   7.290   2.504   7.582  0.4708 -1.6549  0.6051
  117MOL   H33544647   7.470   2.533   0.001  0.2022 -1.1984  1.5159
  117MOL   H33644648   7.378   2.537   0.181 -0.4114 -0.9866  1.4180
  117MOL   H33744649   7.254   2.561   0.345  1.3524  3.2691  0.0881
  117MOL   H33844650   6.991   2.530   0.341  0.4245 -1.1530  2.0469
  117MOL   H33944651   7.009   2.504   0.176 -0.3933 -1.2916  0.5132
  117MOL   H34044652   7.085   2.395   0.295 -1.2866  0.6415  1.9567
  117MOL   H34144653   7.051   2.755   0.220 -0.4578 -0.0049  1.5110
  117MOL   H34244654   7.221   2.801   0.193 -0.8759  1.6129  1.0681
  117MOL   H34344655   7.151   2.774   0.360  1.0239  1.2345 -0.7911
  117MOL   C34444656   7.385   2.342   7.778  0.4082  0.0517  0.1154
  117MOL   C34544657   7.512   2.271   7.722  0.2098  0.1694 -0.7223
  117MOL   C34644658   7.633   2.311   7.807 -0.0463  0.2003 -0.0667
  117MOL   O34744659   7.634   2.267   0.089  0.1560  0.5008  0.2752
  117MOL   N34844660   7.730   2.384   7.760 -0.4722  0.4490  0.1586
  117MOL   C34944661   0.029   2.391   7.821 -0.1828  0.0060  0.3782
  117MOL   C35044662   0.111   2.270   7.780 -0.4501 -0.3122  0.2598
  117MOL   C35144663   0.090   2.520   7.771 -0.2622  0.0822 -0.2527
  117MOL   H35244664   7.306   2.303   7.714 -0.0376 -1.0535  1.3217
  117MOL   H35344665   7.369   2.302   0.042 -0.2324 -1.3886 -0.5537
  117MOL   H35444666   7.533   2.310   7.622  0.3424  1.3156 -0.2546
  117MOL   H35544667   7.724   2.429   7.670  0.0764 -0.7716 -0.4958
  117MOL   H35644668   0.022   2.391   0.093  1.6619  0.5611  0.5155
  117MOL   H35744669   0.095   2.194   0.020 -0.4387 -2.4484 -1.8204
  117MOL   H35844670   0.090   2.223   7.684 -2.5757 -0.9423  1.0009
  117MOL   H35944671   0.220   2.272   7.788 -0.4626  0.4328  0.2700
  117MOL   H36044672   0.184   2.549   7.818 -0.0596 -1.0967  0.0741
  117MOL   H36144673   0.096   2.529   7.662  0.4658 -0.1018 -0.2320
  117MOL   H36244674   0.011   2.587   7.803 -0.3616  0.1213 -0.5819
  117MOL   C36344675   7.504   2.116   7.713  0.1731 -0.2324  0.2875
  117MOL   C36444676   7.635   2.036   7.681 -0.5874 -0.3436  0.9447
  117MOL   C36544677   7.599   1.888   7.681  0.5097  0.2156 -0.5295
  117MOL   O36644678   7.517   1.836   7.768 -0.0390  0.4688  0.4786
  117MOL   N36744679   7.648   1.819   7.577 -0.0191  0.1273  0.6158
  117MOL   C36844680   7.634   1.673   7.554  0.3521  0.0515  0.1550
  117MOL   C36944681   7.496   1.659   7.497 -0.6214 -0.8234  0.4209
  117MOL   C37044682   7.744   1.609   7.465  0.2959 -0.7156 -0.5323
  117MOL   H37144683   7.421   2.089   7.648  2.6666 -0.5267 -2.8724
  117MOL   H37244684   7.462   2.088   7.810  1.8609 -0.5919  0.9423
  117MOL   H37344685   7.709   2.053   7.760  0.2993 -0.5203  0.1529
  117MOL   H37444686   7.703   1.864   7.505  2.0582 -2.3397  0.5718
  117MOL   H37544687   7.641   1.631   7.655  1.5118 -0.7690 -0.2736
  117MOL   H37644688   7.449   1.561   7.500 -0.8315 -0.6894  1.7546
  117MOL   H37744689   7.434   1.729   7.554  0.2966  0.9582 -0.7010
  117MOL   H37844690   7.489   1.694   7.394  0.1214 -1.8103  0.0282
  117MOL   H37944691   7.744   1.503   7.492  1.1914 -0.4221  0.6468
  117MOL   H38044692   7.724   1.626   7.359 -2.0110 -1.1202 -0.1961
  117MOL   H38144693   0.001   1.660   7.487 -1.5075  0.8381  4.0296
  117MOL   H38244694   7.662   2.058   7.578 -3.3215 -0.3850  0.1921
  118MOL     C144695   0.376   6.887   1.992 -0.1693  0.4798  0.5114
  118MOL     C244696   0.520   6.925   1.971 -0.3456  0.1833 -0.8244
  118MOL     C344697   0.596   6.865   1.849  0.2326 -0.7893  0.2613
  118MOL     O444698   0.540   6.852   1.742  0.5193  0.2509  0.3643
  118MOL     N544699   0.722   6.817   1.864  1.0564  0.1362 -0.6344
  118MOL     C644700   0.811   6.755   1.765  0.4898 -0.1518 -0.3176
  118MOL     C744701   0.948   6.814   1.796  0.1203 -0.3932  0.1574
  118MOL     C844702   0.803   6.605   1.756 -1.0047  0.7626 -0.2130
  118MOL     H944703   0.348   6.903   2.096  1.2963  1.5410  0.7735
  118MOL    H1044704   0.348   6.789   1.955  1.2693 -0.4241  1.7628
  118MOL    H1144705   0.569   6.869   2.051 -1.1408 -0.8745 -1.0699
  118MOL    H1244706   0.757   6.826   1.958  0.1044  2.0744 -0.4498
  118MOL    H1344707   0.783   6.802   1.670 -3.6864 -0.6832  0.5453
  118MOL    H1444708   0.932   6.921   1.782 -0.4816 -0.7907 -2.3030
  118MOL    H1544709   1.024   6.767   1.734 -0.4760 -0.4028 -0.5746
  118MOL    H1644710   0.982   6.799   1.899 -2.0177  1.8141  1.2459
  118MOL    H1744711   0.827   6.551   1.848 -1.9583 -1.1113 -1.0299
  118MOL    H1844712   0.697   6.580   1.747 -1.1604  1.3728 -0.0586
  118MOL    H1944713   0.850   6.549   1.675 -1.0510 -2.1805  1.7145
  118MOL    H2044714   0.312   6.954   1.934 -1.8238 -1.3749  0.1480
  118MOL    C2144715   0.531   7.078   1.980 -0.2411 -0.2607  0.4877
  118MOL    C2244716   0.472   7.167   1.866 -0.3314 -0.5061  0.4603
  118MOL    C2344717   0.579   7.262   1.807 -0.5668 -0.4099 -0.1247
  118MOL    O2444718   0.585   7.380   1.840  0.6288 -0.0717 -0.3946
  118MOL    N2544719   0.662   7.207   1.722  0.0344  0.1420  0.4896
  118MOL    C2644720   0.762   7.291   1.659 -0.1161 -0.3763  0.4737
  118MOL    C2744721   0.700   7.349   1.531  0.0585  0.6179  0.3128
  118MOL    C2844722   0.892   7.213   1.635 -0.2973  0.0577 -0.6503
  118MOL    H2944723   0.636   7.099   1.998 -0.5959  0.7232  1.3966
  118MOL    H3044724   0.480   7.111   2.070 -0.8524  1.2677 -0.4009
  118MOL    H3144725   0.445   7.105   1.780  1.7590 -0.8662  0.0161
  118MOL    H3244726   0.665   7.106   1.718 -0.3982  0.1100  1.0162
  118MOL    H3344727   0.793   7.368   1.730  1.5222 -0.3596 -0.2537
  118MOL    H3444728   0.779   7.394   1.470  0.0366  0.1951 -0.0267
  118MOL    H3544729   0.616   7.418   1.540 -0.6159 -0.0014 -1.1943
  118MOL    H3644730   0.658   7.265   1.476 -0.3794  0.3464  1.0499
  118MOL    H3744731   0.972   7.273   1.593 -0.9622 -0.0956 -2.1714
  118MOL    H3844732   0.925   7.155   1.721 -0.5150 -0.4059 -0.8755
  118MOL    H3944733   0.876   7.139   1.557  4.3707 -1.9270  0.1481
  118MOL    C4044734   0.338   7.238   1.885  0.0387 -0.6406  0.6487
  118MOL    C4144735   0.268   7.292   1.754 -0.3201  0.3047  0.2490
  118MOL    C4244736   0.208   7.433   1.784  0.6484  0.0126 -0.3547
  118MOL    O4344737   0.086   7.444   1.807 -0.1454 -0.2158 -0.4410
  118MOL    N4444738   0.293   7.528   1.799 -0.6823 -0.0093 -0.1417
  118MOL    C4544739   0.260   7.672   1.816  0.5032 -0.1412 -0.1735
  118MOL    C4644740   0.265   7.719   1.961 -0.6453 -0.2555 -0.6485
  118MOL    C4744741   0.353   7.750   1.724  1.0807  0.7612 -0.1175
  118MOL    H4844742   0.354   7.318   1.958 -1.6325  1.0363 -0.7582
  118MOL    H4944743   0.271   7.169   1.936 -0.9819 -0.1584 -0.0279
  118MOL    H5044744   0.343   7.313   1.678  0.5826 -1.2160  0.7258
  118MOL    H5144745   0.390   7.499   1.794 -0.5271  0.5461 -0.3656
  118MOL    H5244746   0.159   7.689   1.780 -0.1361  1.9721  2.5187
  118MOL    H5344747   0.367   7.694   1.991 -0.7500  0.3380  0.2105
  118MOL    H5444748   0.208   7.665   2.036  1.8071  0.1283  1.5515
  118MOL    H5544749   0.248   7.827   1.966  1.5765  0.0798  0.4905
  118MOL    H5644750   0.458   7.730   1.750  1.6332 -1.3192 -3.5890
  118MOL    H5744751   0.339   0.021   1.729 -2.1606  0.3651  0.2375
  118MOL    H5844752   0.344   7.730   1.617  0.9244 -0.7229  0.1640
  118MOL    C5944753   0.155   7.198   1.705  0.7496 -0.3605  0.0817
  118MOL    C6044754   0.183   7.059   1.653  0.0617  0.4544 -0.3627
  118MOL    C6144755   0.274   7.071   1.529 -0.6829  0.1230 -0.0853
  118MOL    O6244756   0.248   7.141   1.432  0.2769 -0.0419 -0.0123
  118MOL    N6344757   0.386   6.997   1.513 -0.0975  0.6478 -0.0770
  118MOL    C6444758   0.484   6.990   1.404  0.4524  0.0517  0.1974
  118MOL    C6544759   0.628   6.964   1.447  0.0042  0.0501 -0.4588
  118MOL    C6644760   0.435   6.891   1.302  0.3647 -0.1187 -1.0485
  118MOL    H6744761   0.093   7.188   1.793  2.1910  0.9680  1.2741
  118MOL    H6844762   0.093   7.245   1.628 -0.1264 -1.5295  0.0587
  118MOL    H6944763   0.235   7.012   1.737  2.0537  1.1730 -1.1769
  118MOL    H7044764   0.420   6.952   1.597 -0.6538 -0.2146 -0.3056
  118MOL    H7144765   0.492   7.092   1.366  1.5628 -0.4644 -0.9853
  118MOL    H7244766   0.643   7.013   1.543 -2.3877 -0.1527  0.0558
  118MOL    H7344767   0.648   6.859   1.469  2.5002  0.2411 -1.6732
  118MOL    H7444768   0.699   6.991   1.368  0.4342  1.4536  0.4008
  118MOL    H7544769   0.346   6.911   1.243 -1.6807 -1.7386  1.4013
  118MOL    H7644770   0.522   6.879   1.237  0.7860 -1.9557 -0.1772
  118MOL    H7744771   0.413   6.800   1.358  1.1883  2.0935  3.1286
  118MOL    C7844772   0.055   6.976   1.623 -0.2726 -0.8525  0.2818
  118MOL    C7944773   0.070   6.837   1.546  0.1911 -0.2527 -0.0290
  118MOL    C8044774   0.158   6.744   1.629 -0.1061  0.5070  0.1949
  118MOL    O8144775   0.133   6.736   1.748 -0.1915 -0.3882  0.1727
  118MOL    N8244776   0.253   6.678   1.565 -0.6740 -0.1311 -0.4136
  118MOL    C8344777   0.343   6.581   1.626 -0.6189 -0.3892 -0.6458
  118MOL    C8444778   0.283   6.442   1.645  0.5174  0.1596 -0.4279
  118MOL    C8544779   0.473   6.585   1.545  0.0339  0.1565 -0.6354
  118MOL    H8644780   7.821   7.024   1.555  0.2006 -1.3140 -0.5579
  118MOL    H8744781   0.001   6.969   1.717  1.6664 -0.0916  1.5011
  118MOL    H8844782   0.116   6.856   1.449  0.9002 -0.7010  0.2091
  118MOL    H8944783   0.266   6.704   1.468  0.4520  1.0921  0.0513
  118MOL    H9044784   0.373   6.619   1.723  2.0105 -0.0052 -1.5800
  118MOL    H9144785   0.334   6.361   1.697  1.2100 -1.3676 -3.3780
  118MOL    H9244786   0.186   6.460   1.692  0.6164  0.7289 -0.4338
  118MOL    H9344787   0.236   6.404   1.554 -2.6524  0.9684  0.7919
  118MOL    H9444788   0.532   6.498   1.574  1.7021  1.1545 -0.9934
  118MOL    H9544789   0.541   6.670   1.549  0.2281 -0.0590  0.8234
  118MOL    H9644790   0.457   6.569   1.438  0.8269 -2.2858 -0.4248
  118MOL    C9744791   7.765   6.779   1.536  0.2060 -0.4408  0.3723
  118MOL    C9844792   7.736   6.651   1.450  0.2971 -0.2610 -0.3996
  118MOL    C9944793   7.786   6.674   1.313  0.2133 -0.0171 -0.4556
  118MOL   O10044794   7.756   6.773   1.251  0.3936 -0.0904 -0.1929
  118MOL   N10144795   0.025   6.573   1.262 -0.5142  0.2059 -0.0255
  118MOL   C10244796   0.101   6.581   1.138  0.8280 -0.3075  0.1441
  118MOL   C10344797   0.241   6.609   1.174  0.2120  0.8438  0.0022
  118MOL   C10444798   0.079   6.448   1.063 -0.3790  0.2533  0.6345
  118MOL   H10544799   7.699   6.857   1.499  0.0299 -0.7019  0.1360
  118MOL   H10644800   7.733   6.763   1.638  2.5936 -1.2487  1.0253
  118MOL   H10744801   7.790   6.564   1.486  0.0778  0.8987  2.9101
  118MOL   H10844802   0.026   6.492   1.321  1.5959 -0.7312 -1.2755
  118MOL   H10944803   0.069   6.659   1.069 -0.4192 -1.3928 -0.5283
  118MOL   H11044804   0.288   6.521   1.217 -0.4600  0.5520  0.1432
  118MOL   H11144805   0.297   6.620   1.081  0.3029  1.3585  0.1170
  118MOL   H11244806   0.252   6.703   1.228 -3.2148  0.3350  1.7262
  118MOL   H11344807   0.082   6.370   1.140  1.7258 -0.7196 -0.4015
  118MOL   H11444808   0.159   6.437   0.990 -0.0077 -1.1058  1.2337
  118MOL   H11544809   7.815   6.434   1.021 -1.2015  1.3282  2.1737
  118MOL   C11644810   7.581   6.625   1.446 -0.2167  0.2088 -0.5562
  118MOL   C11744811   7.534   6.511   1.344  0.4413 -0.2919  0.7990
  118MOL   C11844812   7.376   6.526   1.322  0.0130  0.2461 -0.1808
  118MOL   O11944813   7.330   6.554   1.211 -0.4100 -0.9936  0.2294
  118MOL   N12044814   7.293   6.526   1.426 -0.0030 -0.2974 -1.0037
  118MOL   C12144815   7.153   6.546   1.413 -0.2328 -0.3023 -0.1294
  118MOL   C12244816   7.072   6.440   1.490  0.0476  0.4526 -0.4080
  118MOL   C12344817   7.124   6.692   1.462 -0.3286  0.4548 -0.5663
  118MOL   H12444818   7.519   6.711   1.422 -3.3400 -2.3333 -1.8352
  118MOL   H12544819   7.539   6.586   1.539 -0.9893 -0.2368 -1.0897
  118MOL   H12644820   7.579   6.552   1.254 -1.4111 -0.2963 -0.1608
  118MOL   H12744821   7.325   6.507   1.520 -1.3485 -0.5924 -0.5881
  118MOL   H12844822   7.112   6.546   1.313 -1.8074  0.2761  0.4967
  118MOL   H12944823   7.089   6.454   1.597 -3.4087  0.4608  0.1799
  118MOL   H13044824   7.096   6.336   1.465  3.1018  1.0972 -0.3092
  118MOL   H13144825   6.964   6.451   1.494  0.3446  3.0719  1.2314
  118MOL   H13244826   7.017   6.714   1.466 -0.2640  0.8069 -0.7144
  118MOL   H13344827   7.189   6.709   1.548 -0.7312  0.1077 -0.1944
  118MOL   H13444828   7.169   6.764   1.392  1.4440  0.4482  0.5354
  118MOL   C13544829   7.570   6.361   1.364 -0.6151 -0.3439  0.1080
  118MOL   C13644830   7.513   6.261   1.257 -0.4323 -1.2032  0.0498
  118MOL   C13744831   7.566   6.283   1.114 -0.8181 -0.3255 -0.0053
  118MOL   O13844832   7.684   6.257   1.089  0.7746 -0.1342 -0.0081
  118MOL   N13944833   7.477   6.329   1.019  0.3348  0.3416  0.0973
  118MOL   C14044834   7.490   6.337   0.872  0.8258  0.6456 -0.4905
  118MOL   C14144835   7.539   6.211   0.812  0.3006  0.2090  1.3512
  118MOL   C14244836   7.578   6.458   0.841  0.2742  0.0780  0.0080
  118MOL   H14344837   7.534   6.330   1.462 -0.3665 -1.1172 -0.0431
  118MOL   H14444838   7.678   6.343   1.361 -0.6294 -0.6387  1.2143
  118MOL   H14544839   7.405   6.261   1.242 -0.7865  2.3454  2.0722
  118MOL   H14644840   7.383   6.354   1.045 -0.2156 -2.2279  0.6935
  118MOL   H14744841   7.387   6.348   0.839  0.8869 -1.1456 -1.3407
  118MOL   H14844842   7.643   6.209   0.846  0.6389 -1.6700  0.2799
  118MOL   H14944843   7.488   6.123   0.851  0.2327  0.9519  3.0038
  118MOL   H15044844   7.533   6.217   0.704 -1.4928 -1.0879  1.3702
  118MOL   H15144845   7.548   6.542   0.904  2.6471 -0.5536  2.0516
  118MOL   H15244846   7.563   6.480   0.735 -2.0708 -0.1261  0.2642
  118MOL   H15344847   7.684   6.442   0.862  0.2747  0.0415 -0.0242
  118MOL   C15444848   7.543   6.107   1.304  0.5052  0.0113  0.2422
  118MOL   C15544849   7.694   6.064   1.319 -0.1781 -1.1907  0.1300
  118MOL   C15644850   7.723   5.944   1.229  0.1442  0.2025  0.4341
  118MOL   O15744851   7.701   5.832   1.270  0.0961 -0.0372 -0.8853
  118MOL   N15844852   7.767   5.971   1.105 -0.2974 -0.0620 -0.3118
  118MOL   C15944853   0.002   5.882   1.016  0.1143 -0.2070 -0.2000
  118MOL   C16044854   0.149   5.919   1.011  0.4529  0.7894  0.3330
  118MOL   C16144855   7.769   5.881   0.877  0.6689  0.2906 -0.1531
  118MOL   H16244856   7.488   6.044   1.234  2.0082  0.8041 -1.6789
  118MOL   H16344857   7.496   6.087   1.400  0.6131 -0.8419  0.1214
  118MOL   H16444858   7.748   6.152   1.286  0.2272 -0.6547  2.1717
  118MOL   H16544859   7.765   6.070   1.084 -2.4920  0.1742  0.8990
  118MOL   H16644860   7.828   5.785   1.064  2.5303  0.9293  2.8204
  118MOL   H16744861   0.184   5.917   1.114 -1.0376  0.6031  0.8383
  118MOL   H16844862   0.204   5.841   0.958 -1.5679  0.3750 -1.1942
  118MOL   H16944863   0.165   6.019   0.969  0.5369 -0.5980 -3.1245
  118MOL   H17044864   7.793   5.979   0.837 -0.6874 -0.1755 -2.1521
  118MOL   H17144865   7.660   5.873   0.879  0.6684  0.4454  0.6740
  118MOL   H17244866   7.800   5.803   0.808 -1.2744 -0.7431  0.1036
  118MOL   C17344867   7.742   6.044   1.465 -0.2934  0.5764 -0.2129
  118MOL   C17444868   0.057   6.014   1.478 -0.0728 -0.1633  0.2371
  118MOL   C17544869   0.150   6.120   1.417  0.6600  0.0959 -0.0158
  118MOL   O17644870   0.107   6.238   1.416 -0.2170  0.0746 -0.7331
  118MOL   N17744871   0.266   6.075   1.376  0.0343  0.2859  0.3544
  118MOL   C17844872   0.384   6.140   1.328 -0.0785 -0.4516 -0.1874
  118MOL   C17944873   0.451   6.051   1.225 -0.2314 -0.0395 -0.1252
  118MOL   C18044874   0.477   6.184   1.447 -0.2742 -0.4747  0.7166
  118MOL   H18144875   7.682   5.966   1.513  2.1777 -0.2211  1.6584
  118MOL   H18244876   7.710   6.128   1.526 -3.2269 -1.2003  0.8026
  118MOL   H18344877   0.080   5.927   1.417 -0.0308 -0.5659  0.8215
  118MOL   H18444878   0.272   5.975   1.392 -0.5625 -0.1117 -1.7138
  118MOL   H18544879   0.347   6.230   1.279  2.2177 -0.4125 -1.9269
  118MOL   H18644880   0.480   5.958   1.274 -1.9341 -1.0978 -1.0830
  118MOL   H18744881   0.543   6.091   1.183  0.2766 -0.7960  0.2467
  118MOL   H18844882   0.391   6.041   1.135  1.7056  1.4980 -1.6244
  118MOL   H18944883   0.535   6.105   1.493  1.6955 -0.5938 -1.8599
  118MOL   H19044884   0.424   6.237   1.526 -0.9861 -0.0158 -0.0693
  118MOL   H19144885   0.545   6.259   1.406 -0.4624 -1.8157 -2.1506
  118MOL   C19244886   0.094   5.984   1.626  1.1041  0.0354 -0.9084
  118MOL   C19344887   0.171   5.847   1.639 -0.3251  0.0052 -0.1073
  118MOL   C19444888   0.311   5.833   1.577  0.4423 -0.4761 -0.3219
  118MOL   O19544889   0.318   5.812   1.456  0.5798  0.4028 -0.1464
  118MOL   N19644890   0.417   5.839   1.657  0.1395 -0.2036 -0.0344
  118MOL   C19744891   0.548   5.792   1.634 -0.1424  0.2389 -0.0983
  118MOL   C19844892   0.644   5.854   1.741 -0.0056  0.1999 -0.4784
  118MOL   C19944893   0.564   5.636   1.625 -0.1727 -0.6172  0.3642
  118MOL   H20044894   0.009   5.994   1.693  2.0406 -0.2942  0.3424
  118MOL   H20144895   0.171   6.053   1.661  2.0387 -1.6913  0.5640
  118MOL   H20244896   0.188   5.840   1.746  1.0624  0.5390 -0.2916
  118MOL   H20344897   0.408   5.863   1.755  0.3779 -1.9303  0.4346
  118MOL   H20444898   0.578   5.840   1.541  0.3125  3.0883  1.4800
  118MOL   H20544899   0.606   5.810   1.833 -2.1490  1.1397 -0.8987
  118MOL   H20644900   0.630   5.961   1.758 -1.3821  0.2373 -1.8036
  118MOL   H20744901   0.750   5.829   1.728  0.4377  1.0594  1.2957
  118MOL   H20844902   0.672   5.627   1.619 -0.0052 -0.1571  2.2435
  118MOL   H20944903   0.504   5.592   1.545  0.0736 -1.0111  0.4015
  118MOL   H21044904   0.533   5.588   1.718 -2.2544 -1.6307 -0.8098
  118MOL   C21144905   0.091   5.725   1.604 -0.4760 -0.3559  0.4836
  118MOL   C21244906   0.140   5.588   1.661 -0.0981  0.0630  0.1022
  118MOL   C21344907   0.180   5.579   1.809 -0.2867  0.7088  0.9196
  118MOL   O21444908   0.120   5.641   1.898  0.0136  0.4685 -0.4571
  118MOL   N21544909   0.285   5.505   1.846  0.2860 -0.3620 -0.4699
  118MOL   C21644910   0.319   5.472   1.982 -0.1909  0.8102 -0.7688
  118MOL   C21744911   0.358   5.599   2.069  0.3502  0.3399  0.0700
  118MOL   C21844912   0.439   5.375   1.971 -0.8965 -0.1824 -0.3339
  118MOL   H21944913   0.099   5.714   1.496 -0.5785 -1.1826  0.5610
  118MOL   H22044914   7.822   5.752   1.616 -0.9709 -0.6358 -2.8232
  118MOL   H22144915   0.223   5.549   1.602 -1.0651 -0.7275 -0.7559
  118MOL   H22244916   0.335   5.455   1.773 -0.8679  0.6172 -1.9753
  118MOL   H22344917   0.237   5.417   2.029  1.7398 -2.8675 -1.4710
  118MOL   H22444918   0.427   5.569   2.147 -0.5237 -1.0893  0.3141
  118MOL   H22544919   0.402   5.676   2.006  0.1055 -1.3980 -2.2493
  118MOL   H22644920   0.271   5.642   2.120 -0.0730 -0.5456  0.0940
  118MOL   H22744921   0.526   5.437   1.950 -1.3745  0.8991  0.8005
  118MOL   H22844922   0.430   5.286   1.909 -0.4830 -0.2315 -0.3230
  118MOL   H22944923   0.454   5.328   2.069  2.0483 -1.1351 -1.1883
  118MOL   C23044924   0.022   5.485   1.652 -0.3076  0.3665  0.0782
  118MOL   C23144925   7.811   5.454   1.510  0.4423  1.0747  0.3500
  118MOL   C23244926   0.094   5.418   1.409 -0.1856 -0.0442  0.2589
  118MOL   O23344927   0.180   5.331   1.436  0.4726 -0.0835 -0.1544
  118MOL   N23444928   0.103   5.487   1.295 -0.6349  0.7880 -0.5637
  118MOL   C23544929   0.215   5.474   1.201 -0.3177  0.4111 -0.1592
  118MOL   C23644930   0.178   5.523   1.067  0.0919 -0.6755 -0.2595
  118MOL   C23744931   0.347   5.530   1.247  0.1915 -0.4335  0.0569
  118MOL   H23844932   7.774   5.528   1.705 -0.5951 -0.4691  0.3023
  118MOL   H23944933   0.045   5.398   1.714 -2.3549 -0.1887  0.0708
  118MOL   H24044934   7.752   5.538   1.473 -0.1726  0.7465  0.5783
  118MOL   H24144935   0.022   5.539   1.266 -1.3871  0.0286  0.1279
  118MOL   H24244936   0.227   5.369   1.174 -1.7044  0.8663 -2.7256
  118MOL   H24344937   0.163   5.630   1.057 -0.2227 -0.6351  0.5413
  118MOL   H24444938   0.256   5.498   0.995  2.8931  1.8150  1.7647
  118MOL   H24544939   0.087   5.481   1.024  0.6857 -0.8801 -1.3426
  118MOL   H24644940   0.376   5.472   1.335  2.2758  1.0872  0.4096
  118MOL   H24744941   0.345   5.631   1.290 -0.0419 -0.5097  0.2261
  118MOL   H24844942   0.422   5.524   1.168  0.7935  1.2014  0.4716
  118MOL   C24944943   7.720   5.323   1.515  0.5906 -0.7109 -0.7115
  118MOL   C25044944   7.634   5.283   1.399  0.1854 -0.0032  0.3285
  118MOL   C25144945   7.545   5.391   1.342  0.9325  0.2837 -0.3923
  118MOL   O25244946   7.455   5.451   1.407  0.3217 -0.0251  0.0962
  118MOL   N25344947   7.568   5.420   1.213 -0.1474  0.2159  0.0195
  118MOL   C25444948   7.520   5.534   1.155  0.3528 -0.7381 -0.2655
  118MOL   C25544949   7.599   5.550   1.024 -0.4646 -0.0536 -0.3744
  118MOL   C25644950   7.372   5.515   1.101  0.2892  0.0754  0.6925
  118MOL   H25744951   7.657   5.322   1.603 -2.0675  0.3057 -2.5503
  118MOL   H25844952   7.786   5.240   1.541  1.2095 -0.5215 -1.6611
  118MOL   H25944953   7.708   5.257   1.324  0.1844  1.4657 -0.1958
  118MOL   H26044954   7.650   5.377   1.171  1.1981  1.4013  1.3860
  118MOL   H26144955   7.540   5.620   1.218 -1.0642  0.0176 -0.8342
  118MOL   H26244956   7.548   5.605   0.944  0.8208  0.0814 -1.1271
  118MOL   H26344957   7.695   5.601   1.032 -1.0321  1.1344 -1.0056
  118MOL   H26444958   7.629   5.455   0.980 -0.5123 -0.5599  0.6789
  118MOL   H26544959   7.323   5.604   1.063 -1.5507 -1.7192 -1.3343
  118MOL   H26644960   7.372   5.436   1.025  0.5730  0.4713  0.2780
  118MOL   H26744961   7.304   5.472   1.175 -0.2701 -0.5838 -0.1803
  118MOL   C26844962   7.561   5.149   1.425 -0.3585  0.4519 -0.1666
  118MOL   C26944963   7.465   5.087   1.321 -0.4267  0.2312 -0.5078
  118MOL   C27044964   7.520   4.965   1.252  0.1796 -0.0333  0.3613
  118MOL   O27144965   7.572   4.868   1.309  0.6815  0.1409  0.4693
  118MOL   N27244966   7.528   4.968   1.116 -0.5440 -0.3994  0.6615
  118MOL   C27344967   7.540   4.860   1.025 -0.4074  0.4360  0.5458
  118MOL   C27444968   7.415   4.839   0.955  0.5114 -0.6426  0.3417
  118MOL   C27544969   7.661   4.878   0.932  0.4166 -0.1108 -0.4675
  118MOL   H27644970   7.645   5.082   1.445 -1.5338 -1.1328 -0.4105
  118MOL   H27744971   7.515   5.154   1.524  0.0774 -0.8873  0.1186
  118MOL   H27844972   7.448   5.160   1.241  1.8317 -1.1274 -2.2831
  118MOL   H27944973   7.499   5.057   1.078 -1.8994 -0.8250  0.7076
  118MOL   H28044974   7.555   4.760   1.065 -2.3557  0.7814  2.2152
  118MOL   H28144975   7.386   4.935   0.912  0.0786 -0.2637  1.4494
  118MOL   H28244976   7.421   4.771   0.871 -1.7137  0.3003 -0.6064
  118MOL   H28344977   7.339   4.802   1.023  0.8710 -2.1404 -0.0544
  118MOL   H28444978   7.663   4.974   0.880 -0.1735  0.1611  0.0153
  118MOL   H28544979   7.752   4.851   0.986 -0.5155 -2.7107 -0.1258
  118MOL   H28644980   7.667   4.806   0.850 -1.3656  0.2992 -0.9771
  118MOL   C28744981   7.337   5.053   1.388  0.1473  0.2044  0.6242
  118MOL   C28844982   7.215   4.993   1.314  0.6748  0.4371 -0.2029
  118MOL   C28944983   7.174   5.088   1.203 -0.5035  0.0222  1.1046
  118MOL   O29044984   7.162   5.210   1.222  0.2911  0.5180  0.6362
  118MOL   N29144985   7.148   5.030   1.085 -0.2532 -0.7782  0.7817
  118MOL   C29244986   7.068   5.078   0.973 -0.2233 -0.0379  0.0783
  118MOL   C29344987   7.136   5.043   0.842 -0.2048  0.9275  0.3553
  118MOL   C29444988   6.925   5.024   0.985  0.0743 -0.0349 -0.0818
  118MOL   H29544989   7.358   4.983   1.469  0.9718  0.9055  1.0108
  118MOL   H29644990   7.302   5.150   1.424 -4.6256 -1.8357  1.9363
  118MOL   H29744991   7.254   4.906   1.261 -0.4157 -0.4921  0.4879
  118MOL   H29844992   7.165   4.931   1.091 -0.1210 -0.7641  0.6345
  118MOL   H29944993   7.045   5.185   0.969 -0.1971 -0.0722 -1.0017
  118MOL   H30044994   7.082   5.067   0.750  1.1061 -1.9071 -1.2012
  118MOL   H30144995   7.227   5.099   0.824  1.4428 -2.1136 -1.0118
  118MOL   H30244996   7.163   4.939   0.831 -0.8024  0.8752 -0.6892
  118MOL   H30344997   6.887   5.065   1.079 -0.9167 -0.3010 -0.3545
  118MOL   H30444998   6.856   5.053   0.905 -0.0588  0.3975  0.1841
  118MOL   H30544999   6.932   4.916   0.988  3.2628  0.0969 -1.1445
  118MOL   C30645000   7.096   4.954   1.402 -0.1605  0.4414  0.0676
  118MOL   C30745001   7.003   4.852   1.338  0.0871 -0.3135 -0.4480
  118MOL   C30845002   6.867   4.871   1.415  0.0845 -0.2231 -1.0547
  118MOL   O30945003   6.857   4.837   1.534 -0.2968  0.0606  0.0845
  118MOL   N31045004   6.765   4.916   1.337 -0.2004 -0.3224 -0.5413
  118MOL   C31145005   6.624   4.927   1.374  0.3871  0.0177 -0.1887
  118MOL   C31245006   6.573   5.065   1.332 -0.2924 -0.5172  0.1525
  118MOL   C31345007   6.545   4.811   1.308 -0.2513  0.3658 -0.6624
  118MOL   H31445008   7.139   4.926   1.498 -0.7420  0.7076  0.4101
  118MOL   H31545009   7.036   5.043   1.422 -0.0715  0.7907 -1.1786
  118MOL   H31645010   6.993   4.889   1.236  1.1815 -1.6576 -1.0603
  118MOL   H31745011   6.794   4.936   1.243  1.4068  1.7600  0.3697
  118MOL   H31845012   6.617   4.932   1.482 -0.3205  3.5110 -0.3250
  118MOL   H31945013   6.632   5.149   1.369 -0.5099 -0.6168  0.7383
  118MOL   H32045014   6.471   5.061   1.371 -0.6321  2.6261 -0.2724
  118MOL   H32145015   6.581   5.069   1.224  1.4391 -0.2817  0.2702
  118MOL   H32245016   6.536   4.816   1.200  1.1401 -0.6717 -0.8519
  118MOL   H32345017   6.441   4.817   1.339 -0.0522  4.5359 -0.4670
  118MOL   H32445018   6.604   4.723   1.334  1.9136  2.0494  0.3036
  118MOL   C32545019   7.055   4.708   1.345 -0.2707  0.4125 -0.2088
  118MOL   C32645020   6.999   4.609   1.236 -0.0813  0.1299  0.7014
  118MOL   C32745021   7.096   4.602   1.115  0.2663  0.0864  0.2931
  118MOL   O32845022   7.114   4.705   1.056 -0.1204 -0.3363 -0.3105
  118MOL   N32945023   7.164   4.489   1.092 -0.5990 -0.2622 -0.6074
  118MOL   C33045024   7.254   4.482   0.976 -0.2986  0.2124 -0.6551
  118MOL   C33145025   7.219   4.358   0.888 -0.0667  0.2631 -0.5961
  118MOL   C33245026   7.398   4.480   1.022  0.4063 -0.1521 -0.3485
  118MOL   H33345027   7.030   4.664   1.442 -0.8066 -1.9436 -1.3863
  118MOL   H33445028   7.164   4.714   1.344 -0.3022  1.0661 -0.0431
  118MOL   H33545029   6.902   4.647   1.203 -0.8137 -0.1807  2.3834
  118MOL   H33645030   7.159   4.414   1.159 -0.0747  1.9124  1.9346
  118MOL   H33745031   7.247   4.569   0.910  0.3973  1.0641  0.3888
  118MOL   H33845032   7.289   4.336   0.807 -0.4743  1.6839 -1.3602
  118MOL   H33945033   7.210   4.270   0.951 -1.5639  1.8834  1.5198
  118MOL   H34045034   7.116   4.366   0.856 -0.5595  0.6971  1.0493
  118MOL   H34145035   7.436   4.380   1.040 -1.7514 -0.9871 -0.3897
  118MOL   H34245036   7.414   4.540   1.112  3.0213 -2.7773  1.0325
  118MOL   H34345037   7.462   4.516   0.941 -0.4944  1.3731 -0.4134
  118MOL   C34445038   6.953   4.475   1.292  0.2662 -0.0678  1.4388
  118MOL   C34545039   6.812   4.480   1.372 -0.7341 -0.0425 -0.5133
  118MOL   C34645040   6.689   4.425   1.293  0.1624  0.5339 -0.4324
  118MOL   O34745041   6.703   4.333   1.213 -0.2013 -0.1521 -0.3696
  118MOL   N34845042   6.571   4.468   1.331 -0.1503  1.2667  0.1391
  118MOL   C34945043   6.439   4.416   1.285 -0.0373  0.4582  0.1801
  118MOL   C35045044   6.389   4.304   1.379 -0.6267  0.2595 -0.3605
  118MOL   C35145045   6.341   4.534   1.282  0.3982  0.4536 -0.6448
  118MOL   H35245046   7.037   4.435   1.349  1.9930 -2.0975 -2.2797
  118MOL   H35345047   6.943   4.398   1.214  0.3623  1.0608  0.2986
  118MOL   H35445048   6.797   4.587   1.384  0.2818  0.0955 -0.5033
  118MOL   H35545049   6.575   4.530   1.411 -0.4466  2.0486 -0.4463
  118MOL   H35645050   6.457   4.373   1.187  0.7476  1.4843 -0.1376
  118MOL   H35745051   6.292   4.267   1.345 -1.7910  0.8922  2.1336
  118MOL   H35845052   6.451   4.214   1.372 -0.3874  0.3811  0.1561
  118MOL   H35945053   6.372   4.327   1.484 -2.6073  2.1978 -1.0878
  118MOL   H36045054   6.366   4.604   1.203 -0.6574  0.5946 -0.8546
  118MOL   H36145055   6.239   4.498   1.268  0.3738  0.4882 -0.5534
  118MOL   H36245056   6.341   4.600   1.368  0.6473 -0.7559  0.3019
  118MOL   C36345057   6.816   4.403   1.507 -0.1439  0.1240 -0.1796
  118MOL   C36445058   6.706   4.426   1.600  0.1746  0.2634  0.0096
  118MOL   C36545059   6.669   4.579   1.641 -0.2412 -0.3042 -0.5264
  118MOL   O36645060   6.591   4.640   1.566 -0.1086 -0.2046 -0.2098
  118MOL   N36745061   6.724   4.631   1.756 -0.2402  0.3101  0.0747
  118MOL   C36845062   6.812   4.575   1.851 -0.5173  0.6961 -0.1855
  118MOL   C36945063   6.919   4.678   1.900  0.0782  0.3498  0.3258
  118MOL   C37045064   6.729   4.515   1.973 -0.6848  0.0696 -0.2384
  118MOL   H37145065   6.913   4.420   1.553  0.8762 -3.2537 -0.9522
  118MOL   H37245066   6.809   4.297   1.485  0.0959 -0.0368  0.5170
  118MOL   H37345067   6.700   4.365   1.691 -2.4852  0.8510  0.2753
  118MOL   H37445068   6.716   4.732   1.758 -0.8061  0.2655  0.0669
  118MOL   H37545069   6.867   4.497   1.798  1.4446  1.7914  0.1596
  118MOL   H37645070   6.996   4.623   1.954 -0.6944  1.3062  2.4112
  118MOL   H37745071   6.971   4.729   1.819  0.2022  0.5735  0.5471
  118MOL   H37845072   6.880   4.761   1.958 -2.5373 -0.2806 -0.4472
  118MOL   H37945073   6.673   4.426   1.942 -2.3029  0.3680  1.7488
  118MOL   H38045074   6.785   4.491   2.063  0.0404  3.9562  0.4133
  118MOL   H38145075   6.651   4.585   2.002  0.9820  1.3517  1.2445
  118MOL   H38245076   6.616   4.395   1.548  1.5947  0.9021 -2.8890
  119MOL     C145077   5.032   6.612   1.974  0.2142  0.5490 -0.4502
  119MOL     C245078   5.117   6.681   2.080 -0.2280 -0.9496 -0.4823
  119MOL     C345079   5.264   6.631   2.070  0.4861 -0.2781  0.6496
  119MOL     O445080   5.321   6.618   1.966 -0.2449 -0.0726  0.3551
  119MOL     N545081   5.326   6.618   2.187  0.6037 -0.7043  0.2515
  119MOL     C645082   5.477   6.601   2.212 -0.0572 -0.8114 -0.4047
  119MOL     C745083   5.513   6.642   2.348  0.3192  0.5989 -0.5759
  119MOL     C845084   5.527   6.461   2.200 -0.5936 -0.5772  0.1196
  119MOL     H945085   5.026   6.505   1.993  3.0599  0.2315 -1.1197
  119MOL    H1045086   5.073   6.630   1.874  1.8546 -2.0810 -0.2964
  119MOL    H1145087   5.078   6.655   2.178  0.8077  0.9105  0.4457
  119MOL    H1245088   5.272   6.629   2.271 -1.0854 -1.9119 -0.6300
  119MOL    H1345089   5.537   6.656   2.140 -1.0330  0.9749  0.1256
  119MOL    H1445090   5.620   6.661   2.343  0.2814  1.1644  0.5552
  119MOL    H1545091   5.490   6.570   2.427  0.5017  1.2363  0.0668
  119MOL    H1645092   5.462   6.734   2.378 -0.5290  0.4389 -1.4956
  119MOL    H1745093   5.480   6.421   2.110 -1.1439  1.6844 -0.6542
  119MOL    H1845094   5.635   6.459   2.198 -0.5393  0.1078  1.6797
  119MOL    H1945095   5.497   6.394   2.281  0.4496  1.3698  2.1680
  119MOL    H2045096   4.928   6.643   1.982 -0.1545 -0.2017 -2.0548
  119MOL    C2145097   5.123   6.836   2.063 -0.0417 -0.8002  0.1433
  119MOL    C2245098   4.997   6.911   2.119 -0.8843  0.2963 -0.1554
  119MOL    C2345099   4.901   6.956   2.008  0.3630 -0.3226  0.4182
  119MOL    O2445100   4.808   6.877   1.975  0.0710  0.1816 -0.6422
  119MOL    N2545101   4.921   7.076   1.952 -0.1918 -0.8045 -0.1871
  119MOL    C2645102   4.853   7.130   1.836  0.5745  0.6696  0.1245
  119MOL    C2745103   4.950   7.201   1.744 -0.0726 -0.3976  0.6352
  119MOL    C2845104   4.749   7.227   1.890  0.3723  0.2021  0.9001
  119MOL    H2945105   5.124   6.868   1.958 -0.8271  1.6178  0.8306
  119MOL    H3045106   5.218   6.877   2.097 -0.0463  0.3105 -1.1348
  119MOL    H3145107   4.939   6.843   2.180 -0.7920  0.7270  0.4152
  119MOL    H3245108   4.994   7.137   1.986  1.0967  0.3727 -4.7337
  119MOL    H3345109   4.798   7.049   1.788 -0.4368  1.3014  0.1918
  119MOL    H3445110   4.918   7.215   1.641 -0.6991  1.8611  1.1103
  119MOL    H3545111   5.038   7.139   1.726 -0.0991 -0.0550 -0.6866
  119MOL    H3645112   4.974   7.302   1.778  1.4409 -0.9290  1.1801
  119MOL    H3745113   4.699   7.273   1.805  0.4213 -2.5146 -0.6508
  119MOL    H3845114   4.669   7.179   1.947  0.6221 -1.0003  0.2620
  119MOL    H3945115   4.791   7.310   1.947  0.0957 -0.2846  1.8238
  119MOL    C4045116   5.036   7.022   2.226  0.4119  0.2587  0.0977
  119MOL    C4145117   4.918   7.072   2.310  0.9796  0.3409 -0.5304
  119MOL    C4245118   4.937   7.221   2.353  0.2660 -0.8357  0.4265
  119MOL    O4345119   5.048   7.258   2.383 -0.1307 -0.1867  0.0221
  119MOL    N4445120   4.827   7.298   2.350 -0.2367 -0.7485  0.2519
  119MOL    C4545121   4.811   7.438   2.381  0.1859 -0.2031 -0.4650
  119MOL    C4645122   4.789   7.520   2.260 -0.2253  0.1196 -0.1919
  119MOL    C4745123   4.708   7.470   2.496 -0.1960 -0.2924 -0.1731
  119MOL    H4845124   5.074   7.108   2.172  0.2672  1.0215  1.1798
  119MOL    H4945125   5.115   6.988   2.293 -1.2371 -2.1185  0.8771
  119MOL    H5045126   4.831   7.065   2.245  0.4580 -1.3944  0.3269
  119MOL    H5145127   4.751   7.257   2.297  0.2507  0.8435 -1.7791
  119MOL    H5245128   4.904   7.480   2.422 -0.4340  2.1987 -1.4111
  119MOL    H5345129   4.800   7.627   2.273  1.4252 -0.0612 -0.0505
  119MOL    H5445130   4.692   7.504   2.213 -0.1861  0.3786 -0.3591
  119MOL    H5545131   4.867   7.498   2.187  2.2621  1.4391  1.9639
  119MOL    H5645132   4.691   7.375   2.546  2.0538 -1.7940 -2.1542
  119MOL    H5745133   4.614   7.509   2.457 -0.1866 -2.2668 -2.3019
  119MOL    H5845134   4.729   7.549   2.568  0.2833  0.2309 -0.8791
  119MOL    C5945135   4.872   6.977   2.428  0.0734 -0.0287  0.0590
  119MOL    C6045136   4.720   6.945   2.440 -0.1785 -0.4191  0.0048
  119MOL    C6145137   4.692   6.835   2.338 -0.3896 -0.0214 -0.0264
  119MOL    O6245138   4.653   6.859   2.220 -0.2029  0.5676 -0.0377
  119MOL    N6345139   4.708   6.709   2.378 -0.7886  0.3532  0.2336
  119MOL    C6445140   4.663   6.594   2.306 -0.4900  0.4478 -0.3971
  119MOL    C6545141   4.772   6.486   2.303  0.3047  0.0891  0.5089
  119MOL    C6645142   4.531   6.540   2.367  0.0983 -0.4067  0.3068
  119MOL    H6745143   4.931   6.886   2.428 -1.8139 -1.2611  0.3044
  119MOL    H6845144   4.890   7.025   2.525  1.2404 -1.8392  0.7599
  119MOL    H6945145   4.702   6.902   2.539 -0.2024  1.3637  0.8130
  119MOL    H7045146   4.756   6.699   2.467  1.5537  0.5550 -0.9644
  119MOL    H7145147   4.645   6.621   2.202  0.4747  1.1347 -0.3967
  119MOL    H7245148   4.821   6.480   2.400 -2.1804 -0.9543  1.7316
  119MOL    H7345149   4.722   6.389   2.297 -1.7612  1.2335 -1.4207
  119MOL    H7445150   4.849   6.508   2.229 -1.1184 -1.2100 -1.3960
  119MOL    H7545151   4.494   6.468   2.294  2.3355  0.6059 -1.9111
  119MOL    H7645152   4.543   6.493   2.464  0.4682  0.7023  0.8028
  119MOL    H7745153   4.455   6.618   2.374  0.3245 -0.0729 -0.9275
  119MOL    C7845154   4.626   7.067   2.428  0.1502  0.0929 -0.6688
  119MOL    C7945155   4.476   7.040   2.460 -0.5009 -0.5351  0.3698
  119MOL    C8045156   4.456   6.995   2.602 -1.1076 -0.4817 -0.2373
  119MOL    O8145157   4.499   7.063   2.693 -0.0178  0.0364 -0.5248
  119MOL    N8245158   4.400   6.872   2.617  0.0458  0.4692 -0.3356
  119MOL    C8345159   4.400   6.795   2.743 -0.6587  0.3273  0.1236
  119MOL    C8445160   4.326   6.862   2.858 -0.3300  0.4893 -0.4223
  119MOL    C8545161   4.349   6.651   2.722  0.1670 -0.4280  0.4061
  119MOL    H8645162   4.647   7.095   2.325 -0.0596 -2.2806 -1.3960
  119MOL    H8745163   4.675   7.137   2.496  2.6508 -0.3473 -1.9707
  119MOL    H8845164   4.442   6.967   2.387  0.6089 -0.6675 -0.0325
  119MOL    H8945165   4.364   6.821   2.538 -2.6955  0.5162  0.8331
  119MOL    H9045166   4.507   6.786   2.760 -0.4497  2.7427  0.2194
  119MOL    H9145167   4.379   6.954   2.884  1.6220 -0.4198 -1.0620
  119MOL    H9245168   4.218   6.872   2.849 -0.8857 -4.0950 -0.0956
  119MOL    H9345169   4.345   6.798   2.944 -2.6239  0.2958 -0.0465
  119MOL    H9445170   4.374   6.599   2.629 -2.8711 -1.0790 -0.0865
  119MOL    H9545171   4.241   6.649   2.711  0.3848 -2.1020 -1.8945
  119MOL    H9645172   4.371   6.594   2.813  1.1837 -0.0889  0.3772
  119MOL    C9745173   4.400   7.171   2.441  0.2717 -0.6032  0.1743
  119MOL    C9845174   4.243   7.178   2.463 -0.4674  0.2801 -0.5292
  119MOL    C9945175   4.169   7.044   2.450  0.0885  0.2726 -0.5027
  119MOL   O10045176   4.201   6.961   2.362 -0.4830  0.0645 -0.7879
  119MOL   N10145177   4.059   7.024   2.527 -0.5702 -0.7464  0.2686
  119MOL   C10245178   3.977   6.908   2.536  0.6068 -0.2677  0.0653
  119MOL   C10345179   4.015   6.814   2.650 -0.1556  0.7634 -0.1282
  119MOL   C10445180   3.831   6.954   2.532  0.1357 -0.1739  0.4014
  119MOL   H10545181   4.435   7.207   2.344  3.4194  1.7653  2.0819
  119MOL   H10645182   4.440   7.244   2.513 -1.7603 -1.3328  2.0856
  119MOL   H10745183   4.223   7.212   2.565  1.1179 -0.7191  0.1477
  119MOL   H10845184   4.039   7.105   2.584  0.1372  0.0873 -0.6492
  119MOL   H10945185   3.987   6.844   2.449 -1.9362 -0.0596 -0.4041
  119MOL   H11045186   3.938   6.737   2.655 -0.8136  1.5187  1.9509
  119MOL   H11145187   4.115   6.776   2.627 -1.6285 -1.9054 -2.3838
  119MOL   H11245188   4.025   6.865   2.745  1.7485  2.9383 -1.4356
  119MOL   H11345189   3.820   7.030   2.455  0.3158  1.3601  1.8826
  119MOL   H11445190   3.802   6.999   2.626 -3.4712 -1.3324 -0.0705
  119MOL   H11545191   3.772   6.866   2.506 -1.8609  1.2837 -0.1302
  119MOL   C11645192   4.167   7.276   2.361 -0.3524  0.6135  0.7001
  119MOL   C11745193   4.130   7.233   2.213 -0.5501 -0.2689 -0.3843
  119MOL   C11845194   4.252   7.198   2.129  0.0290 -0.4088 -0.3974
  119MOL   O11945195   4.330   7.282   2.092 -0.3526  0.7794  0.3283
  119MOL   N12045196   4.268   7.064   2.096  0.2907  0.8555  0.0020
  119MOL   C12145197   4.387   7.017   2.030  0.6667  0.3238 -0.3340
  119MOL   C12245198   4.400   6.869   2.052  0.5985  0.2886 -0.1088
  119MOL   C12345199   4.393   7.052   1.878  0.3861  0.2697  0.1505
  119MOL   H12445200   4.224   7.369   2.355 -1.2150  1.0896 -0.2984
  119MOL   H12545201   4.073   7.300   2.411 -0.3100 -4.3502  3.5151
  119MOL   H12645202   4.073   7.141   2.223 -0.9526 -0.0513 -0.6913
  119MOL   H12745203   4.218   6.997   2.152  0.6220 -0.5471 -1.3695
  119MOL   H12845204   4.470   7.062   2.085 -0.0035  2.1165 -0.7569
  119MOL   H12945205   4.323   6.810   2.002  2.3566 -3.1851  1.0983
  119MOL   H13045206   4.404   6.849   2.159 -1.1406  0.4480 -0.0028
  119MOL   H13145207   4.494   6.835   2.009 -1.4731 -1.1457 -3.7897
  119MOL   H13245208   4.424   7.156   1.864  0.4065  0.1792 -0.4692
  119MOL   H13345209   4.479   7.005   1.830 -2.1831 -1.5082 -2.7995
  119MOL   H13445210   4.298   7.036   1.827 -0.5100  1.7781  1.3083
  119MOL   C13545211   4.043   7.333   2.140 -0.4327  0.0002  0.0094
  119MOL   C13645212   4.018   7.307   1.985  0.3780  0.1204 -0.1448
  119MOL   C13745213   3.930   7.185   1.964  0.5493 -0.4889  0.6920
  119MOL   O13845214   3.817   7.180   2.011  0.5607 -0.2214  0.3004
  119MOL   N13945215   3.981   7.087   1.894 -0.2882  0.3964 -0.1279
  119MOL   C14045216   3.920   6.950   1.887  0.2717 -0.3516 -0.3440
  119MOL   C14145217   3.995   6.868   1.995  0.3821  0.8336  0.3933
  119MOL   C14245218   3.932   6.896   1.740  0.3951 -0.1329  0.2750
  119MOL   H14345219   4.084   7.433   2.153  0.5990 -0.4615  0.3831
  119MOL   H14445220   3.951   7.334   2.198 -0.5735 -1.9200 -0.1381
  119MOL   H14545221   4.109   7.283   1.930 -0.7231 -0.1263 -1.9221
  119MOL   H14645222   4.080   7.097   1.877  0.1804 -1.7907  1.1213
  119MOL   H14745223   3.812   6.951   1.900  0.1235  0.2867 -1.5725
  119MOL   H14845224   3.966   6.895   2.097  0.4833 -0.5952  0.8001
  119MOL   H14945225   3.972   6.762   1.995 -1.9614  1.2815 -1.9729
  119MOL   H15045226   4.102   6.870   1.973  0.2836 -2.6400 -0.6723
  119MOL   H15145227   4.036   6.901   1.707  0.4360 -0.7163  0.3248
  119MOL   H15245228   3.860   6.949   1.677  0.2044  0.6179  1.0978
  119MOL   H15345229   3.889   6.796   1.739 -0.5666  0.2790 -0.3559
  119MOL   C15445230   3.968   7.446   1.930 -0.9061 -0.7152  0.6591
  119MOL   C15545231   3.827   7.502   1.967 -0.1945 -0.6251 -0.4390
  119MOL   C15645232   3.733   7.506   1.851 -1.1099  0.2721  0.1512
  119MOL   O15745233   3.703   7.617   1.801  0.7062  0.2477  0.0999
  119MOL   N15845234   3.698   7.389   1.797  0.6662  0.5109 -0.3424
  119MOL   C15945235   3.615   7.361   1.681 -0.0702 -0.6252  0.3939
  119MOL   C16045236   3.481   7.309   1.729 -0.3011  0.4922  0.2784
  119MOL   C16145237   3.689   7.271   1.582  0.2495  0.0034 -0.3070
  119MOL   H16245238   3.984   7.438   1.822  1.3013 -0.9347  0.9705
  119MOL   H16345239   4.052   7.509   1.960 -0.9925 -1.0431  1.6141
  119MOL   H16445240   3.788   7.432   2.041  0.4462 -1.5500 -0.9537
  119MOL   H16545241   3.720   7.312   1.859 -0.6375  1.6356  1.5777
  119MOL   H16645242   3.592   7.454   1.631 -2.8638 -1.1488  0.6298
  119MOL   H16745243   3.428   7.390   1.780 -0.3576  0.8485 -0.3507
  119MOL   H16845244   3.410   7.282   1.652  0.9593 -1.7117 -0.1533
  119MOL   H16945245   3.490   7.238   1.811 -0.9207  0.7799  0.6009
  119MOL   H17045246   3.734   7.184   1.631  2.1627  0.5323 -1.0659
  119MOL   H17145247   3.767   7.315   1.519  0.9871 -1.1362 -0.2173
  119MOL   H17245248   3.621   7.217   1.517 -0.7362 -0.0710  0.7775
  119MOL   C17345249   3.844   7.638   2.037 -0.4368  0.4293  0.1287
  119MOL   C17445250   3.726   7.693   2.127  0.0259 -0.0101 -0.4329
  119MOL   C17545251   3.658   7.585   2.215  0.2047 -0.1393 -0.0776
  119MOL   O17645252   3.695   7.559   2.330  0.4300  0.1182  0.4965
  119MOL   N17745253   3.563   7.518   2.158 -1.5801 -0.5863  0.2536
  119MOL   C17845254   3.504   7.398   2.211  0.7500 -0.0373 -0.2196
  119MOL   C17945255   3.469   7.301   2.097 -0.0018 -0.3718  0.1123
  119MOL   C18045256   3.387   7.432   2.312  0.2441 -0.7280 -0.2172
  119MOL   H18145257   3.871   7.708   1.958 -1.2235  0.1697 -0.3812
  119MOL   H18245258   3.930   7.633   2.103 -0.0100 -1.7774 -0.5395
  119MOL   H18345259   3.655   7.723   2.049  0.9539  0.7456 -0.9981
  119MOL   H18445260   3.533   7.548   2.067 -0.0263  0.3772  0.0443
  119MOL   H18545261   3.579   7.341   2.267  1.1452  1.3251  0.6571
  119MOL   H18645262   3.562   7.257   2.060  0.2711 -0.8810  1.3810
  119MOL   H18745263   3.414   7.348   2.016 -0.1659  1.7497  1.4185
  119MOL   H18845264   3.416   7.215   2.139  0.0295 -0.3452  0.2044
  119MOL   H18945265   3.337   7.344   2.352 -0.0812 -0.6147 -0.3717
  119MOL   H19045266   3.310   7.492   2.264 -0.8674  0.8459  3.4302
  119MOL   H19145267   3.431   7.483   2.397 -0.2094  1.0978 -1.0710
  119MOL   C19245268   3.773   7.820   2.207 -0.1301  0.3062  0.3812
  119MOL   C19345269   3.654   0.078   2.244  0.3135 -0.3247  0.6977
  119MOL   C19445270   3.592   0.146   2.121 -0.2433  0.2468  0.0026
  119MOL   O19545271   3.484   0.112   2.079  0.1583 -0.6082 -0.2013
  119MOL   N19645272   3.657   0.244   2.055  0.0241  0.4931 -0.4484
  119MOL   C19745273   3.606   0.312   1.935 -0.3265 -0.2380  0.5205
  119MOL   C19845274   3.680   0.447   1.918  0.0830 -0.2988  0.1651
  119MOL   C19945275   3.626   0.215   1.812 -0.4476 -0.2919  0.0084
  119MOL   H20045276   3.847   0.039   2.149 -1.2201 -0.1256 -1.4645
  119MOL   H20145277   3.828   7.796   2.299  4.2755  2.3558 -1.5551
  119MOL   H20245278   3.575   0.008   2.273  3.1068 -3.8829  0.1137
  119MOL   H20345279   3.743   0.279   2.096 -1.0748  1.9938  0.6285
  119MOL   H20445280   3.500   0.337   1.945  0.1241  2.6880 -1.5081
  119MOL   H20545281   3.689   0.470   1.812 -0.4973 -3.0335 -0.5357
  119MOL   H20645282   3.774   0.436   1.972  0.1582 -0.4007  0.0141
  119MOL   H20745283   3.617   0.522   1.965  1.4635 -0.4841  2.3688
  119MOL   H20845284   3.615   0.268   1.717  2.7714 -0.5300 -0.5859
  119MOL   H20945285   3.543   0.146   1.805 -1.4221  0.6814  1.8512
  119MOL   H21045286   3.719   0.158   1.820  0.4824  1.2997  0.7245
  119MOL   C21145287   3.694   0.184   2.348  0.5809 -0.2022  0.4081
  119MOL   C21245288   3.577   0.274   2.395  0.9919 -0.3176  0.3210
  119MOL   C21345289   3.464   0.184   2.457 -0.0955  0.0005  0.1763
  119MOL   O21445290   3.360   0.175   2.391 -0.6281  0.1105 -0.2326
  119MOL   N21545291   3.484   0.109   2.560  0.3297 -0.1457 -0.1662
  119MOL   C21645292   3.417   7.831   2.606  0.0423 -0.0225 -0.0922
  119MOL   C21745293   3.453   7.799   2.755 -0.5415  0.2552  0.3431
  119MOL   C21845294   3.437   7.712   2.510 -0.2931  0.7498 -0.2448
  119MOL   H21945295   3.781   0.241   2.317 -0.0147  0.1755 -0.5969
  119MOL   H22045296   3.724   0.139   2.442 -2.9106  1.5675  2.4970
  119MOL   H22145297   3.537   0.332   2.311 -0.7357 -2.1746 -0.1623
  119MOL   H22245298   3.571   0.130   2.606  1.8268 -1.3085 -2.3955
  119MOL   H22345299   3.309   0.008   2.609  0.2453  1.3821  1.2801
  119MOL   H22445300   3.383   7.722   2.787 -1.0718  0.5419 -0.1408
  119MOL   H22545301   3.557   7.768   2.769 -0.2724  0.1786 -1.7000
  119MOL   H22645302   3.426   0.043   2.824 -0.5024  1.0165 -0.5246
  119MOL   H22745303   3.403   7.723   2.407 -0.0842  0.6172 -0.3303
  119MOL   H22845304   3.384   7.624   2.544  0.3912  0.0986 -0.8234
  119MOL   H22945305   3.541   7.681   2.500 -0.1567 -0.1636  3.4009
  119MOL   C23045306   3.624   0.374   2.501 -0.5978  0.3186  0.2020
  119MOL   C23145307   3.656   0.520   2.452  0.1667 -0.3094 -0.1741
  119MOL   C23245308   3.629   0.629   2.553  0.0487  0.9606  0.4316
  119MOL   O23345309   3.716   0.666   2.627 -0.0088 -0.5223 -0.2841
  119MOL   N23445310   3.504   0.679   2.563  0.5275 -0.6013 -0.0166
  119MOL   C23545311   3.450   0.781   2.649  0.2522 -0.0503  0.8874
  119MOL   C23645312   3.366   0.887   2.581  0.0404 -0.1541  0.7808
  119MOL   C23745313   3.386   0.703   2.762  0.2467 -0.1863  0.5015
  119MOL   H23845314   3.698   0.331   2.569 -0.7129 -1.0355 -0.5073
  119MOL   H23945315   3.546   0.392   2.575 -2.0139  0.2710 -1.2575
  119MOL   H24045316   3.583   0.551   2.378  0.8734 -0.1080 -0.8008
  119MOL   H24145317   3.430   0.644   2.503 -0.6865  1.9908 -0.0726
  119MOL   H24245318   3.529   0.841   2.694  2.8165 -2.0154 -0.8498
  119MOL   H24345319   3.277   0.842   2.538  1.5482 -0.2704 -2.3781
  119MOL   H24445320   3.331   0.952   2.661 -1.1645  0.6300 -0.3507
  119MOL   H24545321   3.421   0.940   2.503 -0.2631 -1.6548 -0.4858
  119MOL   H24645322   3.463   0.663   2.828  0.7273  0.9248  0.6250
  119MOL   H24745323   3.329   0.625   2.712 -0.2733  1.1660 -1.0657
  119MOL   H24845324   3.320   0.775   2.811 -1.8002  0.6670 -3.3635
  119MOL   C24945325   3.803   0.538   2.394  0.2165 -0.1497  0.1478
  119MOL   C25045326   3.837   0.678   2.332  0.5078 -0.2073  0.4437
  119MOL   C25145327   3.736   0.716   2.222 -1.1604 -0.1559  0.1120
  119MOL   O25245328   3.756   0.680   2.105 -0.1158 -0.1134  0.4496
  119MOL   N25345329   3.624   0.780   2.261 -0.6740 -0.1533 -0.8381
  119MOL   C25445330   3.535   0.824   2.155  0.5155 -0.3069  0.1843
  119MOL   C25545331   3.395   0.832   2.204  0.2895  0.4187 -0.0995
  119MOL   C25645332   3.580   0.958   2.094 -0.1100 -0.2095  0.0858
  119MOL   H25745333   3.824   0.465   2.317  1.5237 -0.7701  1.0671
  119MOL   H25845334   3.866   0.517   2.481  2.4598  0.6380 -1.2522
  119MOL   H25945335   3.829   0.756   2.408  0.7970 -0.4786  0.7548
  119MOL   H26045336   3.623   0.791   2.362  1.9930 -0.5536 -0.7465
  119MOL   H26145337   3.538   0.754   2.072  2.5933 -0.0549  0.0247
  119MOL   H26245338   3.321   0.867   2.132 -1.6681 -1.2430  1.0578
  119MOL   H26345339   3.367   0.737   2.248  1.3007 -0.1929 -0.7589
  119MOL   H26445340   3.383   0.901   2.287  1.1605 -0.3525  0.6791
  119MOL   H26545341   3.608   1.034   2.168  1.7826  0.9550 -1.7718
  119MOL   H26645342   3.680   0.948   2.053 -1.2747 -2.4262 -2.3412
  119MOL   H26745343   3.517   0.997   2.014 -0.2477 -1.2625 -0.3187
  119MOL   C26845344   3.991   0.695   2.290 -0.3701 -0.1182  0.4248
  119MOL   C26945345   4.049   0.602   2.181  0.1158 -0.2777  0.9031
  119MOL   C27045346   4.081   0.673   2.049  0.2814  0.2861 -0.1666
  119MOL   O27145347   4.150   0.774   2.056  0.3177 -0.1109  0.4101
  119MOL   N27245348   4.032   0.615   1.938 -0.2724 -0.9160 -0.7540
  119MOL   C27345349   4.024   0.690   1.811 -0.2037 -0.2331  0.0370
  119MOL   C27445350   4.119   0.625   1.706 -0.2601  0.0699 -0.1562
  119MOL   C27545351   3.882   0.679   1.748 -0.3308  0.1922  0.1849
  119MOL   H27645352   4.022   0.798   2.270  0.4018 -0.4972 -0.3273
  119MOL   H27745353   4.044   0.682   2.384  1.7314  2.7289 -0.3185
  119MOL   H27845354   3.974   0.525   2.161 -0.5269  0.9491 -1.4729
  119MOL   H27945355   3.992   0.523   1.947 -1.4708 -0.3934 -0.7085
  119MOL   H28045356   4.049   0.796   1.814 -1.3229  0.0249  0.2274
  119MOL   H28145357   4.118   0.677   1.610  1.3759 -0.7477 -0.6366
  119MOL   H28245358   4.221   0.638   1.743 -0.3145 -0.0568  0.0385
  119MOL   H28345359   4.109   0.517   1.696  0.1726  0.0571 -0.4685
  119MOL   H28445360   3.876   0.742   1.659  0.2659  1.0869  0.7714
  119MOL   H28545361   3.844   0.578   1.732  0.9746 -0.5150  1.3925
  119MOL   H28645362   3.812   0.719   1.822  0.5645  0.3096  0.9786
  119MOL   C28745363   4.170   0.524   2.237  0.6316  0.1617 -0.1459
  119MOL   C28845364   4.211   0.400   2.146 -0.2378  0.3707 -0.2081
  119MOL   C28945365   4.096   0.316   2.088  0.0369 -0.1676  0.8770
  119MOL   O29045366   4.006   0.272   2.159  0.1538 -0.2780 -0.2931
  119MOL   N29145367   4.096   0.297   1.957  0.6498  0.0159  0.0401
  119MOL   C29245368   4.006   0.216   1.878 -0.4356 -0.1461 -0.3307
  119MOL   C29345369   3.972   0.287   1.748  0.5836  0.2078  0.1282
  119MOL   C29445370   4.069   0.076   1.840 -0.1908  0.8162 -0.3619
  119MOL   H29545371   4.245   0.595   2.273 -0.2670  1.3535 -0.6236
  119MOL   H29645372   4.141   0.478   2.332  1.3187 -1.9841 -0.9531
  119MOL   H29745373   4.271   0.430   2.060  2.6903 -3.5657  0.3083
  119MOL   H29845374   4.186   0.327   1.920  0.3828  2.5509  1.3341
  119MOL   H29945375   3.920   0.205   1.943  0.8410 -1.6538  1.1589
  119MOL   H30045376   3.910   0.209   1.705  1.6630 -0.8825  0.5270
  119MOL   H30145377   3.915   0.377   1.772  0.4662  0.2420 -0.2868
  119MOL   H30245378   4.054   0.312   1.681  2.2929 -0.6458  1.8473
  119MOL   H30345379   4.131   0.082   1.750  0.5957  0.4101  0.1488
  119MOL   H30445380   4.127   0.026   1.917 -0.0419  1.3397 -0.1318
  119MOL   H30545381   3.990   0.005   1.816 -0.2958  0.7200  0.2627
  119MOL   C30645382   4.296   0.306   2.237  0.3321  0.3956  0.0514
  119MOL   C30745383   4.365   0.181   2.163 -0.0614 -0.1615  0.6523
  119MOL   C30845384   4.390   0.078   2.269 -0.6051  0.8485  0.3347
  119MOL   O30945385   4.454   0.101   2.374  0.4232 -0.0565  0.4886
  119MOL   N31045386   4.346   7.788   2.236 -0.3080  0.0009  0.3351
  119MOL   C31145387   4.379   7.665   2.304 -0.1275 -0.4497  0.0690
  119MOL   C31245388   4.272   7.632   2.413  0.0288  0.0320  0.5022
  119MOL   C31345389   4.417   7.553   2.211 -0.3001  0.0134  0.2271
  119MOL   H31445390   4.367   0.363   2.296  0.6243  1.1535 -1.0078
  119MOL   H31545391   4.228   0.266   2.311 -0.0983 -1.0180 -1.0760
  119MOL   H31645392   4.305   0.142   2.081  1.4950  0.1495 -0.6658
  119MOL   H31745393   4.290   7.785   2.152  1.9076  1.0615 -1.2190
  119MOL   H31845394   4.470   7.690   2.358  0.5685 -0.0158 -1.2943
  119MOL   H31945395   4.308   7.549   2.473  2.2685 -0.1828 -1.0968
  119MOL   H32045396   4.182   7.593   2.364  0.5464 -3.0592  1.9643
  119MOL   H32145397   4.256   7.716   2.481  0.8651 -1.1982  2.2390
  119MOL   H32245398   4.329   7.525   2.153 -1.7211  1.9643  1.3660
  119MOL   H32345399   4.461   7.466   2.260  0.1955 -0.6964 -1.4454
  119MOL   H32445400   4.491   7.594   2.142 -1.0541  2.6923  0.9540
  119MOL   C32545401   4.493   0.230   2.094  0.6314  0.1157 -0.3037
  119MOL   C32645402   4.575   0.121   2.024  0.5567  0.1485 -1.2683
  119MOL   C32745403   4.495   0.046   1.915 -0.0707 -0.1433  0.2428
  119MOL   O32845404   4.431   0.117   1.837  0.6732  0.0633 -0.8852
  119MOL   N32945405   4.496   7.750   1.903  0.3553  0.2531 -0.2431
  119MOL   C33045406   4.448   7.668   1.798 -0.7536 -0.5023 -0.2263
  119MOL   C33145407   4.311   7.611   1.830 -0.1654 -0.4955 -0.8808
  119MOL   C33245408   4.545   7.554   1.778  0.3618  0.1825 -0.4421
  119MOL   H33345409   4.550   0.287   2.167  1.1556 -1.4835  0.5506
  119MOL   H33445410   4.464   0.304   2.019 -3.0179 -0.3535  0.5065
  119MOL   H33545411   4.613   0.048   2.095 -3.2525 -1.7601 -1.0645
  119MOL   H33645412   4.549   7.706   1.977  0.9838  2.2366  0.5167
  119MOL   H33745413   4.445   7.729   1.708 -1.2346  0.1538  0.2244
  119MOL   H33845414   4.244   7.682   1.879 -0.5175 -0.2867 -1.6623
  119MOL   H33945415   4.262   7.579   1.738  0.3181  0.4289 -1.4708
  119MOL   H34045416   4.323   7.525   1.896  2.1667  0.7219  0.3652
  119MOL   H34145417   4.524   7.506   1.682  2.2948 -1.6448  0.0194
  119MOL   H34245418   4.543   7.477   1.856  0.7855 -0.3383 -0.9353
  119MOL   H34345419   4.648   7.587   1.768  0.6526 -0.0071  1.6823
  119MOL   C34445420   4.714   0.175   1.971  0.0953 -0.0892  0.3472
  119MOL   C34545421   4.812   0.243   2.068  0.2863  0.5652 -0.2150
  119MOL   C34645422   4.880   0.136   2.162 -0.0159  1.2056  0.6094
  119MOL   O34745423   4.917   0.030   2.114  0.0478  0.6379 -0.1683
  119MOL   N34845424   4.888   0.158   2.295  0.6640  0.0963  0.5034
  119MOL   C34945425   4.933   0.068   2.398  0.0974  0.2546 -0.6519
  119MOL   C35045426   5.035   0.156   2.474 -0.6091  0.5400  0.6514
  119MOL   C35145427   4.815   0.011   2.476 -0.6592 -0.3961 -0.2744
  119MOL   H35245428   4.702   0.244   1.888 -1.5379  0.4348  0.9864
  119MOL   H35345429   4.770   0.092   1.929  0.4257  0.5101 -0.3930
  119MOL   H35445430   4.761   0.314   2.133  0.0854  0.2248 -0.0014
  119MOL   H35545431   4.866   0.253   2.322  1.2916 -0.0406  1.5286
  119MOL   H35645432   4.982   7.815   2.358  0.2796 -0.9030  2.0518
  119MOL   H35745433   5.111   0.179   2.400 -0.5910 -2.7503 -0.4440
  119MOL   H35845434   4.989   0.247   2.513  2.3837  2.1910  0.4843
  119MOL   H35945435   5.081   0.090   2.548  1.4789  1.5333  0.2763
  119MOL   H36045436   4.840   7.751   2.519  1.7360 -0.7163 -2.3240
  119MOL   H36145437   4.772   0.087   2.542  0.2202 -0.2773  0.1727
  119MOL   H36245438   4.743   7.827   2.397 -1.3133  1.5955 -0.2349
  119MOL   C36345439   4.921   0.316   1.995  0.5842  0.4888  0.6025
  119MOL   C36445440   5.047   0.371   2.083  0.0350 -0.5181 -0.1421
  119MOL   C36545441   5.013   0.486   2.182 -0.1190  0.1496  0.3181
  119MOL   O36645442   4.899   0.518   2.217  0.5639  0.1855  0.3729
  119MOL   N36745443   5.116   0.549   2.227 -0.3419  0.0236 -0.7403
  119MOL   C36845444   5.113   0.659   2.324 -0.1045  0.4189 -0.4117
  119MOL   C36945445   5.055   0.618   2.454  0.8197 -0.2634 -0.1349
  119MOL   C37045446   5.255   0.717   2.347 -0.0003  0.0477  0.1531
  119MOL   H37145447   4.884   0.392   1.928  1.1801 -0.2426 -0.5681
  119MOL   H37245448   4.956   0.251   1.915  1.8427  0.8157  0.8759
  119MOL   H37345449   5.129   0.408   2.022 -0.5539 -1.5750 -1.5873
  119MOL   H37445450   5.208   0.514   2.204 -0.0313 -0.3352  0.9789
  119MOL   H37545451   5.047   0.738   2.288 -2.5283 -0.8253  1.1259
  119MOL   H37645452   5.034   0.710   2.509  1.7993 -0.9198  1.3685
  119MOL   H37745453   4.970   0.551   2.441  2.6667 -2.6384 -0.3641
  119MOL   H37845454   5.122   0.548   2.505  0.0711  0.0414  1.3095
  119MOL   H37945455   5.290   0.768   2.257 -1.1855 -0.3081 -0.5201
  119MOL   H38045456   5.245   0.803   2.414 -1.2431 -0.9440  1.2643
  119MOL   H38145457   5.328   0.649   2.390  1.6594  2.8591  1.9045
  119MOL   H38245458   5.088   0.286   2.138 -0.2338 -0.5966 -0.0620
  120MOL     C145459   2.136   6.183   4.933 -1.1600 -0.3167  1.2316
  120MOL     C245460   2.178   6.287   4.818 -0.2582  0.0601 -0.3815
  120MOL     C345461   2.266   6.398   4.875  0.3823  0.0227  0.0404
  120MOL     O445462   2.382   6.367   4.922 -0.3137  0.1820 -0.2554
  120MOL     N545463   2.217   6.525   4.886 -0.9847  0.1950 -0.6203
  120MOL     C645464   2.295   6.642   4.911 -0.2461  0.3144 -0.5695
  120MOL     C745465   2.221   6.768   4.855 -0.2292 -0.5858 -0.2719
  120MOL     C845466   2.307   6.649   5.068 -0.6841  0.0613  0.4939
  120MOL     H945467   2.069   6.103   4.901  3.6101 -4.1680  0.2463
  120MOL    H1045468   2.091   6.237   5.016  0.5909 -1.0658  2.7019
  120MOL    H1145469   2.091   6.338   4.777 -0.5376 -2.1616 -2.6621
  120MOL    H1245470   2.121   6.548   4.865 -1.2205 -1.2166 -1.1436
  120MOL    H1345471   2.389   6.632   4.857  0.4274 -0.3723  0.7140
  120MOL    H1445472   2.290   6.853   4.851 -1.3571  0.2952 -1.2052
  120MOL    H1545473   2.133   6.791   4.914  0.1235  1.0894 -0.3705
  120MOL    H1645474   2.180   6.756   4.754 -2.3845 -2.4299  0.7927
  120MOL    H1745475   2.208   6.630   5.111 -1.0315 -0.6080 -0.5655
  120MOL    H1845476   2.376   6.570   5.094  0.7663  1.7070  1.7845
  120MOL    H1945477   2.351   6.745   5.098 -1.4327  0.5208  0.1475
  120MOL    H2045478   2.223   6.126   4.967 -1.2005 -0.1279  1.6535
  120MOL    C2145479   2.253   6.216   4.700 -0.0426 -0.4112 -0.4578
  120MOL    C2245480   2.278   6.298   4.570 -0.6166  0.0448 -0.0193
  120MOL    C2345481   2.157   6.377   4.513  0.2855  0.0437 -0.7255
  120MOL    O2445482   2.065   6.319   4.457  0.8234  0.6689 -0.4006
  120MOL    N2545483   2.153   6.506   4.527 -0.1473 -0.1415  0.4407
  120MOL    C2645484   2.042   6.594   4.488  0.0082 -0.1853 -0.1632
  120MOL    C2745485   2.095   6.728   4.450 -0.3443 -0.7118 -0.2235
  120MOL    C2845486   1.929   6.593   4.591 -0.3308 -0.2010  0.3195
  120MOL    H2945487   2.188   6.132   4.676 -0.7157  0.6105 -2.2452
  120MOL    H3045488   2.351   6.181   4.735 -0.6425 -3.1140 -1.3616
  120MOL    H3145489   2.355   6.369   4.600 -1.3789  0.8480  0.0486
  120MOL    H3245490   2.228   6.544   4.583  1.5126 -1.5679 -0.7412
  120MOL    H3345491   2.004   6.553   4.395 -0.3829  0.2086 -0.1781
  120MOL    H3445492   2.044   6.814   4.495 -2.0194 -1.5385 -0.5109
  120MOL    H3545493   2.073   6.730   4.344  0.8836 -0.2624 -0.4708
  120MOL    H3645494   2.202   6.742   4.459 -0.3026 -1.0597 -0.1675
  120MOL    H3745495   1.834   6.634   4.557  0.8525  0.7544 -1.9350
  120MOL    H3845496   1.912   6.492   4.629 -0.4061 -0.4720 -0.4388
  120MOL    H3945497   1.952   6.660   4.674  0.7875  0.8752 -0.8472
  120MOL    C4045498   2.343   6.204   4.463  0.2623 -0.1289  0.0633
  120MOL    C4145499   2.481   6.137   4.496  0.2149 -0.5406 -0.6252
  120MOL    C4245500   2.589   6.242   4.526  0.8934 -0.2488  0.2717
  120MOL    O4345501   2.650   6.302   4.437 -0.2114  0.2144 -0.1983
  120MOL    N4445502   2.630   6.246   4.652 -0.2459  0.2846 -0.1532
  120MOL    C4545503   2.735   6.337   4.699  0.3860 -0.1219 -0.5868
  120MOL    C4645504   2.676   6.456   4.775  0.7791 -0.4758  0.1147
  120MOL    C4745505   2.828   6.255   4.789 -0.5280 -0.2000 -0.9619
  120MOL    H4845506   2.364   6.265   4.375  0.8735 -0.1800  0.1737
  120MOL    H4945507   2.265   6.131   4.440  0.2885 -0.4103  0.8510
  120MOL    H5045508   2.457   6.089   4.591  2.0198 -0.6423 -0.2147
  120MOL    H5145509   2.580   6.189   4.719 -2.5136  1.0206 -1.1678
  120MOL    H5245510   2.794   6.383   4.620 -1.5360 -0.1451 -2.0605
  120MOL    H5345511   2.581   6.496   4.740 -0.4116 -3.6067 -0.3918
  120MOL    H5445512   2.753   6.530   4.795  0.0683 -0.3836  2.6328
  120MOL    H5545513   2.649   6.435   4.878  1.0515 -0.0526  0.2728
  120MOL    H5645514   2.927   6.296   4.811 -1.5409  1.3000  0.9488
  120MOL    H5745515   2.857   6.176   4.720 -2.6229 -1.6165 -0.2536
  120MOL    H5845516   2.784   6.214   4.879  0.5670  2.9136  1.0837
  120MOL    C5945517   2.526   6.026   4.399  0.2905 -0.0681  0.0628
  120MOL    C6045518   2.658   5.953   4.445  0.7790  0.6223  0.4770
  120MOL    C6145519   2.723   5.887   4.323  0.8754  1.4788  0.2150
  120MOL    O6245520   2.695   5.768   4.292  0.2012 -1.0355  0.3288
  120MOL    N6345521   2.816   5.954   4.252 -0.2981  0.6462 -0.3529
  120MOL    C6445522   2.879   5.903   4.126  0.1532 -0.8382 -0.3911
  120MOL    C6545523   2.966   6.009   4.074  0.2895 -0.3139  0.0204
  120MOL    C6645524   2.963   5.783   4.153  0.5031  0.8814 -0.3789
  120MOL    H6745525   2.443   5.957   4.379  0.1099  0.8567 -2.5164
  120MOL    H6845526   2.550   6.075   4.305  1.6477  3.5772  2.2243
  120MOL    H6945527   2.734   6.025   4.477  1.2424  0.6636 -0.6778
  120MOL    H7045528   2.838   6.046   4.287 -3.4986  1.8244 -1.2689
  120MOL    H7145529   2.803   5.874   4.053  0.4796 -2.2267 -0.1899
  120MOL    H7245530   2.909   6.099   4.053 -0.3247 -0.2050  2.0184
  120MOL    H7345531   3.037   6.040   4.151 -0.1242 -0.8521  0.6328
  120MOL    H7445532   3.023   5.985   3.984 -0.1755  0.4561 -0.4822
  120MOL    H7545533   2.914   5.700   4.205 -2.8611  1.8375 -1.9096
  120MOL    H7645534   2.992   5.729   4.063  0.9199  0.4037  0.0389
  120MOL    H7745535   3.052   5.808   4.210  0.7431  0.0828 -0.3935
  120MOL    C7845536   2.632   5.855   4.563 -0.7203 -0.0158 -0.0865
  120MOL    C7945537   2.746   5.759   4.612  1.0035 -0.2407 -0.0080
  120MOL    C8045538   2.876   5.827   4.647  0.2827  0.2019  0.6302
  120MOL    O8145539   2.889   5.875   4.760  1.1428 -0.1517  0.1232
  120MOL    N8245540   2.963   5.838   4.550 -0.0112  0.4289 -0.0545
  120MOL    C8345541   3.099   5.893   4.559  1.1266  1.0334 -0.2615
  120MOL    C8445542   3.198   5.809   4.480  0.1898  0.3993 -0.0635
  120MOL    C8545543   3.096   6.041   4.524  0.0455  0.0693 -0.1376
  120MOL    H8645544   2.536   5.804   4.553  0.1149 -2.0805  1.9663
  120MOL    H8745545   2.624   5.924   4.647  1.2133 -0.6416  0.6456
  120MOL    H8845546   2.766   5.696   4.525 -0.7995 -2.1550  0.9005
  120MOL    H8945547   2.959   5.782   4.466  2.4457  1.2388 -0.7498
  120MOL    H9045548   3.129   5.882   4.663  1.7329  1.7529 -0.3544
  120MOL    H9145549   3.224   5.709   4.516  2.9927  0.5583 -1.5558
  120MOL    H9245550   3.160   5.800   4.378  0.6041  1.3700 -0.3105
  120MOL    H9345551   3.296   5.852   4.464  0.9337 -0.9964  0.6463
  120MOL    H9445552   3.194   6.083   4.546 -0.3478  0.7744  0.2928
  120MOL    H9545553   3.021   6.091   4.585 -1.6166 -3.1702  0.5631
  120MOL    H9645554   3.061   6.061   4.423  1.0545  1.4916 -0.2287
  120MOL    C9745555   2.702   5.661   4.726  0.6908 -0.0142 -0.2466
  120MOL    C9845556   2.645   5.523   4.675  0.2185 -0.0856 -0.1182
  120MOL    C9945557   2.756   5.425   4.621  0.3185 -0.5118 -0.6536
  120MOL   O10045558   2.764   5.416   4.499 -0.2713  0.5484  0.1675
  120MOL   N10145559   2.848   5.378   4.709  0.0911 -0.4994  0.3019
  120MOL   C10245560   2.967   5.299   4.668  0.2040 -0.2559 -0.3769
  120MOL   C10345561   3.095   5.381   4.670 -0.5353  0.8087 -0.1442
  120MOL   C10445562   2.975   5.177   4.766  0.2222 -0.3568 -0.2132
  120MOL   H10545563   2.625   5.707   4.788  0.8238 -1.0012  0.6751
  120MOL   H10645564   2.784   5.650   4.798 -0.0313 -2.3268  0.2538
  120MOL   H10745565   2.607   5.473   4.764 -0.8786  1.4708  0.2977
  120MOL   H10845566   2.844   5.397   4.808 -1.2651 -0.9052  0.3320
  120MOL   H10945567   2.956   5.265   4.565  0.5497  0.5808 -0.6922
  120MOL   H11045568   3.175   5.312   4.643 -0.7634  0.4631  0.0452
  120MOL   H11145569   3.080   5.457   4.594  2.7080 -0.7363 -2.4439
  120MOL   H11245570   3.113   5.433   4.764 -0.4216  0.7577 -0.1377
  120MOL   H11345571   2.881   5.124   4.752 -0.9998  1.6284  0.4026
  120MOL   H11445572   2.989   5.200   4.871 -0.6332  0.5757 -0.3021
  120MOL   H11545573   3.056   5.112   4.730  0.5489  1.2049 -2.3868
  120MOL   C11645574   2.523   5.528   4.587  0.1603  0.6646 -0.2195
  120MOL   C11745575   2.389   5.562   4.657 -0.0954 -0.2354  0.2334
  120MOL   C11845576   2.332   5.439   4.725 -0.2674  0.0754  0.3621
  120MOL   O11945577   2.290   5.342   4.665 -0.2160  0.3108  0.2982
  120MOL   N12045578   2.326   5.457   4.857  0.1745  0.0022  0.3718
  120MOL   C12145579   2.292   5.340   4.944  0.1006 -0.4308  0.7185
  120MOL   C12245580   2.425   5.277   4.991 -0.5231 -0.0241  0.0457
  120MOL   C12345581   2.207   5.378   5.064  0.0206 -0.4952  0.5199
  120MOL   H12445582   2.513   5.436   4.529 -2.9876 -0.1217  1.4543
  120MOL   H12545583   2.548   5.602   4.510  2.3649  1.6373  1.3616
  120MOL   H12645584   2.409   5.632   4.738 -0.9881 -0.7747  0.9432
  120MOL   H12745585   2.377   5.536   4.894  0.0479  0.8880 -1.2576
  120MOL   H12845586   2.235   5.267   4.886  0.9910 -0.2493 -0.4181
  120MOL   H12945587   2.415   5.189   5.053  1.4961  1.9308  3.2966
  120MOL   H13045588   2.488   5.341   5.053  0.9850 -3.0588  1.7414
  120MOL   H13145589   2.499   5.257   4.913  1.1730  1.0359  1.3456
  120MOL   H13245590   2.207   5.303   5.142 -0.3259 -0.0470  0.9574
  120MOL   H13345591   2.247   5.464   5.118  0.2087  0.5708 -1.2568
  120MOL   H13445592   2.105   5.400   5.032 -0.3143 -2.1232  0.4572
  120MOL   C13545593   2.284   5.630   4.562  0.7263  0.0526 -0.1418
  120MOL   C13645594   2.151   5.679   4.615  0.4271 -0.0436 -0.2608
  120MOL   C13745595   2.167   5.761   4.747 -0.1846  0.0144  0.7267
  120MOL   O13845596   2.229   5.866   4.739  0.1118  0.3714 -0.4029
  120MOL   N13945597   2.098   5.719   4.853 -0.0154 -0.0491  0.6615
  120MOL   C14045598   2.056   5.802   4.955 -0.1603  0.0052  0.0689
  120MOL   C14145599   2.168   5.854   5.039  0.2572  0.6425 -0.1716
  120MOL   C14245600   1.951   5.723   5.042 -0.8043  0.0393 -0.0090
  120MOL   H14345601   2.269   5.579   4.468  1.7735  1.0376 -0.8537
  120MOL   H14445602   2.338   5.719   4.530 -0.0332  1.1233  1.4624
  120MOL   H14545603   2.101   5.586   4.643  1.1867 -0.2577  0.3859
  120MOL   H14645604   2.054   5.628   4.847 -2.6996  1.1106  1.8378
  120MOL   H14745605   1.995   5.883   4.916 -0.5982 -0.4880 -0.2851
  120MOL   H14845606   2.122   5.931   5.100 -0.0185  0.7923 -0.5666
  120MOL   H14945607   2.211   5.780   5.107 -0.6202 -1.2574 -1.6417
  120MOL   H15045608   2.250   5.894   4.979 -0.5956  1.6347 -0.6870
  120MOL   H15145609   1.994   5.632   5.083 -1.8476 -0.6989 -0.5231
  120MOL   H15245610   1.869   5.693   4.978  0.0858 -0.8239 -0.7629
  120MOL   H15345611   1.909   5.787   5.119 -1.1175  2.3096 -2.0058
  120MOL   C15445612   2.071   5.752   4.515  0.5868 -0.7130  0.2765
  120MOL   C15545613   1.919   5.769   4.533  0.1660  0.1868  0.0424
  120MOL   C15645614   1.856   5.628   4.521  0.7558 -0.1812 -0.9552
  120MOL   O15745615   1.870   5.557   4.427 -0.4525  0.0594 -0.2778
  120MOL   N15845616   1.786   5.594   4.628 -0.0640  0.1053 -0.4854
  120MOL   C15945617   1.767   5.458   4.668  0.3096 -0.4271  0.0581
  120MOL   C16045618   1.629   5.434   4.732 -0.1476 -0.4285 -0.0315
  120MOL   C16145619   1.883   5.409   4.757 -0.4975 -0.3948  1.0262
  120MOL   H16245620   2.092   5.709   4.418 -0.1883  0.2505 -0.3290
  120MOL   H16345621   2.097   5.858   4.514  0.4405 -0.6850 -0.9037
  120MOL   H16445622   1.900   5.810   4.632  1.3286  0.0433  0.3383
  120MOL   H16545623   1.739   5.656   4.692  0.8073  0.7968 -0.5126
  120MOL   H16645624   1.750   5.387   4.588  0.6531  1.5778 -1.8426
  120MOL   H16745625   1.630   5.474   4.833  0.6024  0.1531 -0.2670
  120MOL   H16845626   1.543   5.478   4.682  0.6368  0.4833 -0.6082
  120MOL   H16945627   1.609   5.328   4.748  0.1592 -0.6521 -1.0967
  120MOL   H17045628   1.961   5.360   4.698 -1.2335  0.6128 -0.8388
  120MOL   H17145629   1.842   5.331   4.821  0.8240 -0.3057  1.9734
  120MOL   H17245630   1.921   5.490   4.818  0.3506  0.1120 -0.1536
  120MOL   C17345631   1.859   5.852   4.415  0.3225 -0.0508 -0.1838
  120MOL   C17445632   1.885   6.009   4.421  0.0098  0.1244 -0.0306
  120MOL   C17545633   1.816   6.077   4.304 -0.4593  0.1796 -0.3041
  120MOL   O17645634   1.715   6.025   4.256  0.4270 -0.4050  0.5204
  120MOL   N17745635   1.865   6.196   4.268 -0.4127  0.5770 -0.2467
  120MOL   C17845636   1.815   6.295   4.174  0.2283 -0.7688 -0.1152
  120MOL   C17945637   1.927   6.393   4.125  0.2073 -0.1287  0.2022
  120MOL   C18045638   1.701   6.377   4.237 -0.3843 -0.0103 -0.4681
  120MOL   H18145639   1.752   5.839   4.430  0.1759  1.7791  0.5165
  120MOL   H18245640   1.889   5.802   4.323  1.8638  0.9234 -0.2343
  120MOL   H18345641   1.990   6.015   4.392 -0.1957 -0.5474 -0.9401
  120MOL   H18445642   1.938   6.231   4.329 -1.2071  1.5194  0.1903
  120MOL   H18545643   1.771   6.252   4.084 -0.3508 -1.3615  0.4453
  120MOL   H18645644   1.957   6.468   4.198  0.6683  0.2022 -0.3201
  120MOL   H18745645   1.897   6.452   4.039  0.2635  2.8649  2.1860
  120MOL   H18845646   2.013   6.334   4.092 -0.8251  0.1408 -3.0905
  120MOL   H18945647   1.735   6.420   4.331  0.6779  0.0502 -0.8824
  120MOL   H19045648   1.615   6.315   4.265 -1.4716  2.3578  1.6369
  120MOL   H19145649   1.653   6.441   4.163 -0.1973  0.3284 -0.2952
  120MOL   C19245650   1.857   6.073   4.559  0.7337 -0.9977  0.1717
  120MOL   C19345651   1.718   6.049   4.635 -0.1377 -0.7269  0.0916
  120MOL   C19445652   1.604   6.133   4.584  0.0824 -0.2403 -0.1508
  120MOL   O19545653   1.585   6.244   4.633  0.1237 -0.0752 -0.2905
  120MOL   N19645654   1.517   6.071   4.500 -0.2226  0.8483 -0.1231
  120MOL   C19745655   1.391   6.114   4.452  0.0829 -0.2823 -0.2675
  120MOL   C19845656   1.358   6.043   4.320 -0.0376  0.0117  0.4579
  120MOL   C19945657   1.281   6.102   4.560 -0.4684  0.0048 -0.3576
  120MOL   H20045658   1.888   6.178   4.553  0.4867 -1.0578 -3.0212
  120MOL   H20145659   1.941   6.039   4.619  0.1725  0.1877  1.6576
  120MOL   H20245660   1.703   5.942   4.622  0.2368 -0.7451 -0.2043
  120MOL   H20345661   1.559   6.003   4.438  1.0746 -0.1444  1.7902
  120MOL   H20445662   1.394   6.221   4.433 -0.1567 -0.1955  0.1770
  120MOL   H20545663   1.355   5.934   4.330  1.0550 -0.1711 -0.9911
  120MOL   H20645664   1.433   6.067   4.245 -1.2375 -1.1557 -1.1542
  120MOL   H20745665   1.261   6.079   4.286 -0.2584 -0.6822  0.3479
  120MOL   H20845666   1.290   6.003   4.604 -0.0722  0.6270  0.9859
  120MOL   H20945667   1.179   6.128   4.532 -1.0530 -1.0543  0.7236
  120MOL   H21045668   1.307   6.173   4.639  2.1010 -2.3576  1.0081
  120MOL   C21145669   1.722   6.051   4.784 -0.0351  0.0185  0.3332
  120MOL   C21245670   1.599   6.000   4.858  0.3763 -0.1569 -0.0297
  120MOL   C21345671   1.572   5.852   4.835 -0.5287 -0.4666 -0.3079
  120MOL   O21445672   1.660   5.770   4.796 -0.1266 -0.3353  0.4104
  120MOL   N21545673   1.451   5.807   4.865 -0.2884 -0.5759  0.0232
  120MOL   C21645674   1.396   5.681   4.898  0.6620 -0.9112 -0.7497
  120MOL   C21745675   1.241   5.691   4.899 -0.7088 -0.3651 -0.2325
  120MOL   C21845676   1.453   5.627   5.029  0.2361  0.4300 -0.6377
  120MOL   H21945677   1.753   6.152   4.812  1.7495  0.1354 -1.9213
  120MOL   H22045678   1.810   5.995   4.817  1.8596  2.2609 -0.7630
  120MOL   H22145679   1.512   6.061   4.833 -0.6396 -1.9244 -0.9484
  120MOL   H22245680   1.398   5.884   4.902 -0.1700 -0.2586 -0.4611
  120MOL   H22345681   1.411   5.601   4.826  0.3232 -0.6564 -1.1048
  120MOL   H22445682   1.196   5.596   4.928 -2.4336  0.5067  0.0152
  120MOL   H22545683   1.206   5.776   4.957  2.0481  0.6909 -0.0653
  120MOL   H22645684   1.211   5.701   4.794 -3.3227  0.1288  0.5345
  120MOL   H22745685   1.424   5.684   5.117  3.3682  2.8463 -1.0718
  120MOL   H22845686   1.561   5.633   5.043  0.0335  0.9410  0.8036
  120MOL   H22945687   1.427   5.521   5.034  1.8565  0.0396  0.0903
  120MOL   C23045688   1.603   6.013   5.015 -0.0921  0.0525 -0.6767
  120MOL   C23145689   1.597   6.154   5.073  0.2450 -0.0271  0.5550
  120MOL   C23245690   1.478   6.241   5.030 -0.0254  0.2166  0.6367
  120MOL   O23345691   1.374   6.230   5.092  0.0756  0.0365 -0.2000
  120MOL   N23445692   1.491   6.328   4.923 -0.1892 -0.2465 -0.1133
  120MOL   C23545693   1.404   6.437   4.905 -0.5619  0.0437 -0.0987
  120MOL   C23645694   1.442   6.546   5.009 -0.4948  0.6858 -0.0978
  120MOL   C23745695   1.381   6.488   4.758  0.3454 -0.4608 -0.1126
  120MOL   H23845696   1.689   5.953   5.044 -0.8285 -1.0010 -0.6020
  120MOL   H23945697   1.515   5.964   5.057  0.4324  0.8329  1.3596
  120MOL   H24045698   1.679   6.215   5.035 -1.0084  0.9074 -0.6965
  120MOL   H24145699   1.573   6.317   4.865  1.1333 -1.7473  1.9677
  120MOL   H24245700   1.300   6.408   4.923 -0.2688 -2.2357 -1.8876
  120MOL   H24345701   1.436   6.505   5.110 -1.2019 -2.5160 -1.3928
  120MOL   H24445702   1.545   6.571   4.983  0.4465 -0.7428  2.0414
  120MOL   H24545703   1.379   6.635   5.006  1.6937  2.2500 -0.8446
  120MOL   H24645704   1.355   6.406   4.691 -3.7161  1.0286 -0.4857
  120MOL   H24745705   1.461   6.552   4.719 -1.3756  2.3670  0.8199
  120MOL   H24845706   1.284   6.538   4.752  0.1594 -0.8079  0.0036
  120MOL   C24945707   1.616   6.143   5.236 -0.8380  0.7812 -0.3292
  120MOL   C25045708   1.646   6.269   5.310  0.0372  0.2048  0.0724
  120MOL   C25145709   1.778   6.324   5.250 -0.7126 -0.0597  0.5265
  120MOL   O25245710   1.886   6.272   5.288  0.1349  0.3054  0.0973
  120MOL   N25345711   1.772   6.430   5.170  0.8278 -0.7036 -0.1357
  120MOL   C25445712   1.880   6.481   5.083  0.0319  0.7046  0.2704
  120MOL   C25545713   1.829   6.475   4.937 -0.2703  0.2812 -0.0616
  120MOL   C25645714   1.928   6.615   5.119  1.2412 -0.2127 -1.1273
  120MOL   H25745715   1.701   6.077   5.256 -0.4878  2.1378  3.0285
  120MOL   H25845716   1.523   6.101   5.274  0.6696 -0.7400  1.8193
  120MOL   H25945717   1.563   6.334   5.282  1.3203  1.6201 -0.5187
  120MOL   H26045718   1.679   6.470   5.162  1.0203 -0.1611  0.3174
  120MOL   H26145719   1.966   6.415   5.095 -0.8576 -0.5153  0.0244
  120MOL   H26245720   1.915   6.472   4.869  1.0032  0.5249  1.5130
  120MOL   H26345721   1.758   6.396   4.912  2.4316 -3.0773  2.4240
  120MOL   H26445722   1.785   6.571   4.911 -0.8502  0.0361  0.0071
  120MOL   H26545723   1.976   6.615   5.217 -0.2673  0.4811 -0.3812
  120MOL   H26645724   1.990   6.656   5.039 -0.6314  3.1795 -0.9183
  120MOL   H26745725   1.842   6.682   5.123 -0.4263 -2.4115  0.8161
  120MOL   C26845726   1.658   6.252   5.465  0.4882  0.0040 -0.3369
  120MOL   C26945727   1.528   6.266   5.547  0.2381 -0.2810 -0.6753
  120MOL   C27045728   1.452   6.136   5.549  0.0078  0.0644 -0.8728
  120MOL   O27145729   1.508   6.029   5.581  0.0515 -0.3950  0.2635
  120MOL   N27245730   1.323   6.143   5.507 -0.4109 -0.0714 -0.0470
  120MOL   C27345731   1.240   6.028   5.472 -0.7646 -0.0526  0.2244
  120MOL   C27445732   1.169   5.966   5.593 -0.3795  0.2643 -0.0649
  120MOL   C27545733   1.136   6.052   5.360  0.5788 -0.1827 -0.0183
  120MOL   H27645734   1.698   6.153   5.485 -1.1021 -0.4713  0.5991
  120MOL   H27745735   1.723   6.337   5.489  3.7387 -2.1474 -1.2536
  120MOL   H27845736   1.471   6.353   5.513 -0.8781 -0.4297  0.7691
  120MOL   H27945737   1.283   6.231   5.479 -0.9548  0.0622  1.0852
  120MOL   H28045738   1.301   5.948   5.429 -0.0233 -0.8587  2.7334
  120MOL   H28145739   1.088   5.896   5.572 -0.3847 -0.4123  2.0527
  120MOL   H28245740   1.244   5.928   5.662  0.0834  1.0705 -0.1110
  120MOL   H28345741   1.116   6.044   5.649  0.5261  0.7176  0.1681
  120MOL   H28445742   1.172   6.113   5.277  0.2312 -0.4318 -0.3541
  120MOL   H28545743   1.101   5.955   5.324 -1.3012  0.0373  1.1284
  120MOL   H28645744   1.045   6.109   5.380 -0.4921 -2.1983  1.0859
  120MOL   C28745745   1.569   6.318   5.687  0.6224  0.9204 -0.1593
  120MOL   C28845746   1.470   6.313   5.807  0.1023 -0.1511  0.5163
  120MOL   C28945747   1.341   6.375   5.778  0.9748  0.3866 -0.5419
  120MOL   O29045748   1.329   6.461   5.689 -0.0836 -0.1230  0.3775
  120MOL   N29145749   1.237   6.351   5.862  0.8332  0.0845 -0.4059
  120MOL   C29245750   1.100   6.398   5.848 -0.1043  0.0543 -0.6322
  120MOL   C29345751   1.014   6.304   5.766 -0.4186  0.3855  0.3161
  120MOL   C29445752   1.031   6.408   5.989 -0.3734  0.5407  0.0789
  120MOL   H29545753   1.646   6.250   5.723 -0.5531 -0.2444  0.1797
  120MOL   H29645754   1.609   6.416   5.661 -1.0191  1.6989  0.1804
  120MOL   H29745755   1.453   6.206   5.811 -0.4768 -0.2271 -2.5704
  120MOL   H29845756   1.269   6.295   5.940 -2.1107  0.5363  1.1542
  120MOL   H29945757   1.106   6.501   5.812  0.0893  0.4087  0.4087
  120MOL   H30045758   1.009   6.204   5.809 -0.3277  0.4668  0.5146
  120MOL   H30145759   0.914   6.344   5.748 -0.6106 -1.1140 -2.2603
  120MOL   H30245760   1.059   6.298   5.667  0.3468  1.6655  0.5775
  120MOL   H30345761   0.933   6.455   5.980 -0.8879 -0.4702  0.2968
  120MOL   H30445762   1.018   6.312   6.039 -0.4041  1.0483  1.0570
  120MOL   H30545763   1.082   6.475   6.058  0.8211 -0.7595  0.4813
  120MOL   C30645764   1.532   6.348   5.946 -0.1012  0.7661 -0.1054
  120MOL   C30745765   1.597   6.227   6.020 -0.7236  0.3704  0.1793
  120MOL   C30845766   1.489   6.122   6.049  0.3541  0.1548 -0.6486
  120MOL   O30945767   1.394   6.151   6.125 -0.2825  0.6605 -0.1475
  120MOL   N31045768   1.497   6.011   5.985  0.6469 -0.2211  0.1440
  120MOL   C31145769   1.405   5.892   5.986 -0.3468 -0.2219  0.1851
  120MOL   C31245770   1.265   5.939   5.964  0.4845 -0.0621 -0.1490
  120MOL   C31345771   1.445   5.790   5.882  0.4784  1.0268  1.0642
  120MOL   H31445772   1.602   6.431   5.937 -0.3368  0.9246 -0.5230
  120MOL   H31545773   1.455   6.382   6.015 -0.6225  0.7237 -0.6598
  120MOL   H31645774   1.670   6.191   5.947 -2.5981 -0.5849 -1.2575
  120MOL   H31745775   1.581   5.990   5.932 -0.1274 -1.2805 -0.6734
  120MOL   H31845776   1.406   5.842   6.083 -0.4102  0.0732  0.3397
  120MOL   H31945777   1.194   5.857   5.953  1.1851 -0.3054 -3.0328
  120MOL   H32045778   1.257   6.000   5.875 -1.7639  2.8338  1.9251
  120MOL   H32145779   1.226   6.005   6.042  1.9325 -0.3980  0.8997
  120MOL   H32245780   1.460   5.848   5.791  3.0162 -1.2509 -0.0181
  120MOL   H32345781   1.363   5.720   5.866  0.9676  0.7671 -0.3181
  120MOL   H32445782   1.542   5.742   5.880  0.0035  0.1343 -1.4572
  120MOL   C32545783   1.674   6.267   6.148  0.9775  0.4686 -0.3555
  120MOL   C32645784   1.773   6.155   6.210 -0.6124 -0.0254  0.1417
  120MOL   C32745785   1.862   6.091   6.100  0.6657  0.9290  0.6018
  120MOL   O32845786   1.932   6.163   6.026  0.1853 -0.0451  0.8659
  120MOL   N32945787   1.861   5.960   6.090  0.6903 -0.6465 -0.4252
  120MOL   C33045788   1.924   5.866   5.992 -0.0011 -0.1684 -0.3862
  120MOL   C33145789   1.820   5.819   5.895 -0.4322 -0.0236  0.5392
  120MOL   C33245790   1.999   5.756   6.055 -0.5180 -0.2357  0.2742
  120MOL   H33345791   1.600   6.281   6.227 -1.8469 -2.2530 -2.4111
  120MOL   H33445792   1.720   6.364   6.129 -2.9206  2.7644  1.2233
  120MOL   H33545793   1.713   6.073   6.250 -2.5152  0.5467 -1.4696
  120MOL   H33645794   1.835   5.911   6.175  0.7105  1.5485  0.8982
  120MOL   H33745795   2.001   5.915   5.932 -0.7248  2.6449  0.8693
  120MOL   H33845796   1.867   5.746   5.829  1.7884  2.4441 -0.7203
  120MOL   H33945797   1.743   5.767   5.952  0.6926 -1.8130  0.4919
  120MOL   H34045798   1.767   5.889   5.831 -1.1596 -0.5455  0.5619
  120MOL   H34145799   2.067   5.793   6.133 -1.3234  0.3523  0.7045
  120MOL   H34245800   2.057   5.702   5.980 -0.3244 -0.8282  0.8474
  120MOL   H34345801   1.934   5.685   6.107  0.6182  0.7381  3.1523
  120MOL   C34445802   1.869   6.220   6.316  0.3850  0.2204  0.1932
  120MOL   C34545803   1.944   6.122   6.410  0.2621  0.2920 -0.7118
  120MOL   C34645804   2.074   6.189   6.469 -0.5946  0.1528  0.8677
  120MOL   O34745805   2.059   6.261   6.566  0.3212 -0.4471  0.2595
  120MOL   N34845806   2.196   6.162   6.411  0.0800  0.0472  0.1340
  120MOL   C34945807   2.318   6.223   6.459 -0.1633  0.0082 -0.0363
  120MOL   C35045808   2.361   6.158   6.589 -0.1867  0.1997  0.1905
  120MOL   C35145809   2.432   6.206   6.360 -0.4852 -0.7821 -0.3439
  120MOL   H35245810   1.811   6.287   6.380 -0.4298  0.5234 -0.8527
  120MOL   H35345811   1.932   6.289   6.259  0.1664  1.3893  1.3288
  120MOL   H35445812   1.985   6.044   6.346  0.5399  0.6617 -0.9902
  120MOL   H35545813   2.194   6.098   6.333 -0.3098  0.2758 -0.0452
  120MOL   H35645814   2.299   6.328   6.480  0.0628  0.2838 -1.1851
  120MOL   H35745815   2.293   6.182   6.671  1.1967 -0.1473  1.4713
  120MOL   H35845816   2.361   6.049   6.589  0.8434  0.1997 -0.9899
  120MOL   H35945817   2.460   6.181   6.628 -1.0989  0.9551  2.1728
  120MOL   H36045818   2.397   6.247   6.265 -0.1699  0.2041 -0.0465
  120MOL   H36145819   2.519   6.267   6.381 -1.0982  0.5169 -1.4457
  120MOL   H36245820   2.461   6.101   6.364  1.8037 -0.1542 -0.1450
  120MOL   C36345821   1.841   6.067   6.511 -0.4094 -0.7318  0.2767
  120MOL   C36445822   1.863   5.921   6.538 -0.3917  0.5408  0.3861
  120MOL   C36545823   1.775   5.832   6.449  0.1218  0.9962  0.6932
  120MOL   O36645824   1.781   5.843   6.326 -0.0463  0.4091 -0.2203
  120MOL   N36745825   1.690   5.745   6.510 -0.0420  0.0106 -0.5888
  120MOL   C36845826   1.603   5.634   6.461 -0.1224 -1.0592 -0.4034
  120MOL   C36945827   1.496   5.597   6.557  0.2100 -0.7170  0.2692
  120MOL   C37045828   1.566   5.646   6.311 -0.1651 -0.4790  0.0850
  120MOL   H37145829   1.734   6.071   6.489  0.0443 -0.7497 -2.0282
  120MOL   H37245830   1.844   6.123   6.605  2.4863  2.0887 -1.4068
  120MOL   H37345831   1.828   5.899   6.640  1.9215 -1.6475  0.7640
  120MOL   H37445832   1.679   5.762   6.609  0.5832 -3.8342  0.2452
  120MOL   H37545833   1.656   5.539   6.464 -0.4309 -1.2612 -1.1837
  120MOL   H37645834   1.429   5.515   6.528 -0.7981  0.0534  0.3841
  120MOL   H37745835   1.541   5.567   6.651 -1.7453  1.8701  2.1222
  120MOL   H37845836   1.432   5.685   6.565 -2.1689 -2.3616  0.0162
  120MOL   H37945837   1.486   5.586   6.268 -1.1989  0.1909  1.0481
  120MOL   H38045838   1.552   5.748   6.277 -1.1784 -0.5047  0.4045
  120MOL   H38145839   1.658   5.609   6.265  0.0601  0.4940 -0.2424
  120MOL   H38245840   1.970   5.899   6.528 -0.1804  1.7256  0.0409
  121MOL     C145841   1.254   1.524   6.721  0.3813  0.2895 -0.4285
  121MOL     C245842   1.178   1.602   6.829  0.4456  0.3471  0.2887
  121MOL     C345843   1.242   1.734   6.873 -0.3871  0.7267  0.0887
  121MOL     O445844   1.312   1.740   6.978 -0.0763  0.2121 -0.4017
  121MOL     N545845   1.214   1.829   6.785 -0.1992  0.3434 -0.8700
  121MOL     C645846   1.252   1.961   6.804  0.5879 -0.2212  0.4254
  121MOL     C745847   1.321   2.005   6.676 -0.3272  0.2694  0.0318
  121MOL     C845848   1.134   2.054   6.844  0.4809 -0.1693  0.6076
  121MOL     H945849   1.244   1.588   6.633 -0.8018  1.7100  0.7030
  121MOL    H1045850   1.217   1.425   6.696 -0.2163  0.6249 -0.8862
  121MOL    H1145851   1.204   1.539   6.914  1.4583 -0.2788 -0.4684
  121MOL    H1245852   1.155   1.802   6.708 -0.4925  2.4531 -1.3965
  121MOL    H1345853   1.324   1.973   6.885 -0.9652  2.5700  1.4724
  121MOL    H1445854   1.270   1.980   6.583  0.2231  1.1485 -0.5009
  121MOL    H1545855   1.417   1.955   6.662 -0.8242 -0.3487 -1.2711
  121MOL    H1645856   1.360   2.106   6.678 -1.2166  0.6493  5.2934
  121MOL    H1745857   1.076   2.010   6.925 -1.6797 -0.5712 -1.1212
  121MOL    H1845858   1.166   2.150   6.884 -1.3711  1.2310 -1.1418
  121MOL    H1945859   1.065   2.078   6.763  1.4190 -1.8952 -0.7202
  121MOL    H2045860   1.362   1.533   6.735  0.4452  0.2455 -0.8898
  121MOL    C2145861   1.027   1.611   6.796  0.5585  0.2149  0.2351
  121MOL    C2245862   0.931   1.689   6.896 -0.5762 -0.2251  0.9018
  121MOL    C2345863   0.898   1.601   7.014  0.4914 -0.2259  0.2263
  121MOL    O2445864   0.878   1.479   6.998  0.2001 -0.1840 -0.2560
  121MOL    N2545865   0.906   1.655   7.134 -0.1990 -0.2650  0.0385
  121MOL    C2645866   0.888   1.578   7.256 -0.4278  0.5346  0.8532
  121MOL    C2745867   0.773   1.637   7.337  0.2966  0.0962 -0.5363
  121MOL    C2845868   1.012   1.601   7.338 -0.6519  0.2303  0.1540
  121MOL    H2945869   0.988   1.510   6.785 -0.8851  0.8803 -0.9736
  121MOL    H3045870   1.017   1.655   6.697 -0.5756  1.1260  0.7250
  121MOL    H3145871   0.990   1.775   6.928 -0.6068  0.4917 -0.8882
  121MOL    H3245872   0.912   1.755   7.147 -0.0546 -0.3733  0.8176
  121MOL    H3345873   0.875   1.471   7.235 -0.9715  0.8943 -0.7320
  121MOL    H3445874   0.762   1.741   7.306  1.7720  0.2448 -0.5826
  121MOL    H3545875   0.783   1.632   7.445 -0.6338  0.8440 -0.4033
  121MOL    H3645876   0.677   1.594   7.307  0.1973 -0.6715  0.8505
  121MOL    H3745877   1.032   1.708   7.353 -0.6410  0.3118 -0.4343
  121MOL    H3845878   1.014   1.538   7.427  3.2863 -0.8384 -0.5766
  121MOL    H3945879   1.105   1.571   7.290  0.9454  2.5540  1.6165
  121MOL    C4045880   0.806   1.729   6.817 -0.0369 -0.3039  0.1970
  121MOL    C4145881   0.698   1.832   6.877  0.5529  0.4432  0.4065
  121MOL    C4245882   0.755   1.954   6.954  0.5563  0.0427  0.3455
  121MOL    O4345883   0.854   1.937   7.026 -0.2287 -0.3653  0.6233
  121MOL    N4445884   0.698   2.077   6.927  0.0535 -0.0328 -0.1740
  121MOL    C4545885   0.755   2.200   6.975 -0.0848 -0.8812 -0.3227
  121MOL    C4645886   0.776   2.283   6.856  0.1706  0.0422 -0.3767
  121MOL    C4745887   0.646   2.263   7.067  0.3490 -0.2653 -0.1593
  121MOL    H4845888   0.753   1.637   6.794 -1.1026  0.8539 -2.1442
  121MOL    H4945889   0.840   1.768   6.721 -0.0763  0.5477  0.5213
  121MOL    H5045890   0.660   1.887   6.791  0.1228  0.9761  0.9335
  121MOL    H5145891   0.617   2.076   6.867  0.4946  1.5537 -0.7967
  121MOL    H5245892   0.849   2.194   7.031  1.2128 -0.6925 -2.4531
  121MOL    H5345893   0.842   2.363   6.888 -0.3677  0.6468 -0.7545
  121MOL    H5445894   0.680   2.321   6.821 -0.6581 -0.6372  1.1376
  121MOL    H5545895   0.835   2.239   6.776  1.4722  1.8741 -0.4648
  121MOL    H5645896   0.550   2.269   7.015 -0.4066 -0.6999  1.1859
  121MOL    H5745897   0.665   2.366   7.100  1.5501 -0.6423  0.3481
  121MOL    H5845898   0.640   2.192   7.148  3.9118  0.6050  0.9633
  121MOL    C5945899   0.599   1.761   6.968  0.2405 -0.7955 -0.5561
  121MOL    C6045900   0.453   1.759   6.895 -0.7805  0.4468  0.0507
  121MOL    C6145901   0.394   1.898   6.868 -0.0802 -0.0003  0.1670
  121MOL    O6245902   0.370   1.973   6.962 -0.6629 -0.3150  0.4307
  121MOL    N6345903   0.384   1.942   6.739  0.4743  0.0606 -0.0679
  121MOL    C6445904   0.349   2.078   6.696  0.1743 -0.7961  0.0786
  121MOL    C6545905   0.465   2.158   6.636  0.0716 -0.2298  0.2947
  121MOL    C6645906   0.236   2.061   6.588  0.0804 -0.0037  0.2228
  121MOL    H6745907   0.619   1.658   6.996 -0.0223 -0.7569 -0.2224
  121MOL    H6845908   0.580   1.810   7.063  1.8841  0.8036 -1.0282
  121MOL    H6945909   0.457   1.715   6.795 -1.3253 -0.6853  0.5113
  121MOL    H7045910   0.419   1.877   6.670 -0.2451  1.6852 -2.0095
  121MOL    H7145911   0.305   2.132   6.780  2.0956 -0.5972  0.9855
  121MOL    H7245912   0.525   2.193   6.720 -0.7924  0.7191  0.5287
  121MOL    H7345913   0.518   2.111   6.553 -0.6423 -1.2662  0.4187
  121MOL    H7445914   0.433   2.251   6.589  0.2192  0.3069  1.2395
  121MOL    H7545915   0.267   1.997   6.506  2.9480 -0.9025  1.9282
  121MOL    H7645916   0.141   2.012   6.605  1.9869 -4.3278 -0.9550
  121MOL    H7745917   0.211   2.157   6.544 -0.5695  0.3287  1.2916
  121MOL    C7845918   0.358   1.659   6.974  0.2346  0.5711  0.8574
  121MOL    C7945919   0.317   1.691   7.115  0.5610 -0.2511  0.1393
  121MOL    C8045920   0.169   1.738   7.120  0.1208  0.0459 -1.0894
  121MOL    O8145921   0.072   1.663   7.108  0.4740  0.2307 -0.3210
  121MOL    N8245922   0.147   1.873   7.127 -0.2865  0.0036  0.2286
  121MOL    C8345923   0.027   1.942   7.111  0.9266 -0.2630 -0.7361
  121MOL    C8445924   7.804   1.941   7.256 -0.0977 -0.7279  0.3250
  121MOL    C8545925   0.056   2.077   7.054  0.2638 -0.3343 -0.2209
  121MOL    H8645926   0.411   1.563   6.969  1.1513  1.2058 -3.6563
  121MOL    H8745927   0.265   1.638   6.920  1.2290 -0.0711 -0.6644
  121MOL    H8845928   0.387   1.760   7.163  1.6100 -0.4924 -1.0322
  121MOL    H8945929   0.227   1.933   7.115 -0.5967  0.3057 -0.3720
  121MOL    H9045930   7.789   1.894   7.048  0.8118  0.1468 -0.9133
  121MOL    H9145931   7.764   1.841   7.273 -0.2608 -0.5888  0.7592
  121MOL    H9245932   0.029   1.992   7.329  0.5552  0.5205 -1.0622
  121MOL    H9345933   7.720   2.010   7.253  0.6995  0.2812  1.1154
  121MOL    H9445934   0.088   2.069   6.950  1.7030 -0.4912  0.2245
  121MOL    H9545935   0.144   2.111   7.108  0.1080  0.9706 -0.7571
  121MOL    H9645936   7.809   2.147   7.050  1.7590  1.5584  0.9798
  121MOL    C9745937   0.329   1.550   7.193 -0.6345 -0.1426  0.4979
  121MOL    C9845938   0.309   1.547   7.346 -0.6423  0.4543  0.4367
  121MOL    C9945939   0.381   1.665   7.429  0.2173  0.0642 -0.0555
  121MOL   O10045940   0.486   1.644   7.490  0.2516 -0.4986  0.5146
  121MOL   N10145941   0.326   1.783   7.412  0.1187 -0.0249  0.1482
  121MOL   C10245942   0.383   1.905   7.469 -0.4943 -0.1778 -0.3289
  121MOL   C10345943   0.399   2.003   7.358 -0.6549  0.0621 -0.5042
  121MOL   C10445944   0.296   1.960   7.580  0.5153 -0.9143  0.0864
  121MOL   H10545945   0.433   1.521   7.179 -0.3315  0.6318  1.0938
  121MOL   H10645946   0.277   1.468   7.143 -1.4706  0.6094  0.1324
  121MOL   H10745947   0.202   1.563   7.359 -0.5160  0.0995  2.0606
  121MOL   H10845948   0.237   1.796   7.366 -0.4136 -0.2597  1.1182
  121MOL   H10945949   0.484   1.884   7.505  0.0883 -1.1281 -2.4469
  121MOL   H11045950   0.454   1.954   7.278 -1.4547  0.1507 -1.1232
  121MOL   H11145951   0.305   2.046   7.324 -0.5673 -0.0114 -0.8435
  121MOL   H11245952   0.467   2.080   7.396  0.2647 -0.1566 -1.6764
  121MOL   H11345953   0.296   1.896   7.668 -1.1550 -0.2910  0.5659
  121MOL   H11445954   0.196   1.973   7.538 -0.0646  1.9442  2.1565
  121MOL   H11545955   0.323   2.062   7.608 -0.1179  0.0954 -2.7252
  121MOL   C11645956   0.359   1.408   7.398 -0.5091  0.2338 -0.6311
  121MOL   C11745957   0.322   1.363   7.546 -0.3266 -0.2383  0.4299
  121MOL   C11845958   0.443   1.279   7.599  0.0511 -0.1137 -0.7311
  121MOL   O11945959   0.452   1.155   7.583  0.8662  0.9408  0.1481
  121MOL   N12045960   0.533   1.356   7.664  0.5083 -0.1938  0.7307
  121MOL   C12145961   0.652   1.319   7.738  1.1091 -0.6685 -0.0637
  121MOL   C12245962   0.775   1.333   7.648 -0.0661  0.0964 -0.2832
  121MOL   C12345963   0.664   1.415   0.024  0.2895 -0.1222  0.1932
  121MOL   H12445964   0.464   1.389   7.374 -0.1479 -0.0333  1.0912
  121MOL   H12545965   0.314   1.335   7.331 -0.9985 -0.3255  0.2989
  121MOL   H12645966   0.311   1.459   7.597 -1.9526  0.1697 -0.6313
  121MOL   H12745967   0.514   1.455   7.652 -1.1222 -0.5575  0.1873
  121MOL   H12845968   0.637   1.215   7.765  1.0391 -0.4146  0.9030
  121MOL   H12945969   0.793   1.420   7.585  0.9697  0.7228  0.8428
  121MOL   H13045970   0.772   1.251   7.576 -0.0666  0.2044 -0.4071
  121MOL   H13145971   0.862   1.315   7.711 -1.2577 -1.2546  1.0260
  121MOL   H13245972   0.569   1.406   0.077 -0.4030 -0.2262 -1.0483
  121MOL   H13345973   0.744   1.375   0.086  0.5965  0.7282  0.3509
  121MOL   H13445974   0.689   1.518   7.836 -3.1356  0.7241  0.0278
  121MOL   C13545975   0.190   1.280   7.554 -0.3061 -0.1485 -0.6475
  121MOL   C13645976   0.129   1.243   7.695 -0.4209  0.2638  0.0718
  121MOL   C13745977   0.046   1.358   7.746 -0.6926  0.0052 -0.0342
  121MOL   O13845978   7.764   1.368   7.708  0.3566  0.1921  0.1925
  121MOL   N13945979   0.111   1.450   7.813 -0.7781  0.8209  0.3034
  121MOL   C14045980   0.063   1.569   0.031  0.3126 -0.1383  0.0265
  121MOL   C14145981   0.150   1.690   7.826 -0.1046  0.6299  0.0085
  121MOL   C14245982   0.041   1.561   0.181 -0.5478 -0.0806  0.6126
  121MOL   H14345983   0.205   1.187   7.501  0.6222 -0.6188  0.4090
  121MOL   H14445984   0.130   1.334   7.481 -0.5679  1.6085  0.8045
  121MOL   H14545985   0.206   1.230   7.771  3.0100  1.2110 -3.0854
  121MOL   H14645986   0.204   1.423   0.008 -1.2706 -0.7153  0.4777
  121MOL   H14745987   7.801   1.587   7.824  0.2685 -0.7596 -0.1295
  121MOL   H14845988   0.090   1.772   0.029 -0.9648  1.0481 -2.0578
  121MOL   H14945989   0.250   1.684   0.031 -0.9551 -1.8658  1.8157
  121MOL   H15045990   0.147   1.702   7.717  1.9442 -5.5179 -0.9311
  121MOL   H15145991   0.124   1.499   0.215 -1.3769 -0.9890  1.0266
  121MOL   H15245992   7.786   1.509   0.210  1.0518 -4.1602 -1.2796
  121MOL   H15345993   0.045   1.657   0.233  0.9990 -0.4822  1.2559
  121MOL   C15445994   0.045   1.112   7.692 -0.0788 -0.0961  0.3242
  121MOL   C15545995   0.121   0.980   7.681 -0.6522 -0.6829 -0.2704
  121MOL   C15645996   0.099   0.906   7.547  0.5321 -0.6787  0.3373
  121MOL   O15745997   7.822   0.896   7.504 -0.2363 -0.5291  0.4848
  121MOL   N15845998   0.202   0.853   7.483  0.2029  0.0382  0.0287
  121MOL   C15945999   0.202   0.774   7.360 -0.3094 -0.2248  0.2116
  121MOL   C16046000   0.247   0.635   7.400  0.3358  0.4781  0.1348
  121MOL   C16146001   0.303   0.829   7.257  0.0194 -0.4858  0.1014
  121MOL   H16246002   7.815   1.117   7.606  0.7013 -0.6237 -0.3266
  121MOL   H16346003   7.808   1.109   7.772 -0.5839  0.6256 -0.1055
  121MOL   H16446004   0.226   1.004   7.666 -0.8895  0.9030  0.4922
  121MOL   H16546005   0.289   0.875   7.527 -1.0965  1.7760  1.8082
  121MOL   H16646006   0.103   0.759   7.318 -0.0820 -0.4689 -0.2400
  121MOL   H16746007   0.174   0.607   7.477  0.9739  1.5265  1.1302
  121MOL   H16846008   0.241   0.561   7.320 -1.1784  0.5984  0.1233
  121MOL   H16946009   0.344   0.631   7.449  0.1825 -0.6249  0.3525
  121MOL   H17046010   0.260   0.911   7.201  0.1345  1.3765  2.6646
  121MOL   H17146011   0.340   0.757   7.183 -0.0243 -0.1248 -0.2732
  121MOL   H17246012   0.395   0.870   7.297  2.1310 -4.5240 -0.3576
  121MOL   C17346013   0.108   0.881   7.803 -0.4620 -0.2695  0.1201
  121MOL   C17446014   0.184   0.930   0.091 -0.4852  0.8040  0.2075
  121MOL   C17546015   0.125   0.865   0.219  0.3621 -0.0319 -0.6088
  121MOL   O17646016   0.097   0.922   0.322  0.2020 -0.4354  0.0402
  121MOL   N17746017   0.115   0.733   0.205 -0.0644  0.3608  0.1833
  121MOL   C17846018   0.067   0.636   0.307  0.4074 -0.2597  0.5199
  121MOL   C17946019   0.183   0.579   0.382  0.2971 -0.0022 -0.1670
  121MOL   C18046020   7.833   0.526   0.224 -0.2656  0.4912 -0.9676
  121MOL   H18146021   0.151   0.784   7.777 -0.4548 -0.6954  1.6936
  121MOL   H18246022   0.006   0.845   7.822  0.4500 -2.7816  0.3896
  121MOL   H18346023   0.166   1.036   0.113 -1.9680  0.9993 -1.8051
  121MOL   H18446024   0.155   0.701   0.118 -0.0182 -1.0934  0.7240
  121MOL   H18546025   7.828   0.678   0.375 -0.4013 -1.0601  0.1284
  121MOL   H18646026   0.227   0.654   0.447 -2.0639 -0.6650  2.3016
  121MOL   H18746027   0.262   0.532   0.324 -0.2047  0.9322 -1.6452
  121MOL   H18846028   0.145   0.502   0.449 -0.4904 -0.9395 -1.6707
  121MOL   H18946029   7.757   0.564   0.155  0.5331  2.7913 -0.6188
  121MOL   H19046030   7.789   0.454   0.294  0.3537  1.1264  0.0796
  121MOL   H19146031   0.062   0.463   0.163  1.5948  0.0655  1.4021
  121MOL   C19246032   0.343   0.915   0.082  0.8591 -0.0634 -0.0368
  121MOL   C19346033   0.438   0.946   0.195 -0.0426  0.2004  0.1486
  121MOL   C19446034   0.412   1.093   0.242 -0.3371 -0.8442  0.9016
  121MOL   O19546035   0.469   1.185   0.184 -0.2974 -0.3311  0.3786
  121MOL   N19646036   0.339   1.107   0.351 -0.4303  0.1348 -0.4479
  121MOL   C19746037   0.305   1.233   0.416  0.3562 -0.5728 -0.7103
  121MOL   C19846038   0.157   1.258   0.387  1.0349  0.9209  0.7939
  121MOL   C19946039   0.330   1.225   0.565  0.5370  0.1774 -0.3277
  121MOL   H20046040   0.374   0.970   7.830 -1.1620 -0.1801 -0.8437
  121MOL   H20146041   0.362   0.812   0.051 -0.0489 -0.9342  2.2300
  121MOL   H20246042   0.421   0.878   0.278  0.1741  1.5785  1.3261
  121MOL   H20346043   0.289   1.025   0.381  1.1719 -0.5968  0.2904
  121MOL   H20446044   0.354   1.319   0.368  1.7467 -0.2179  1.2964
  121MOL   H20546045   0.108   1.164   0.410 -0.4781  1.1309 -1.4011
  121MOL   H20646046   0.120   1.268   0.285 -0.3693 -1.5300  1.0258
  121MOL   H20746047   0.117   1.334   0.454 -2.5103  0.6867 -0.9479
  121MOL   H20846048   0.432   1.193   0.584 -0.0839 -0.7047  1.6567
  121MOL   H20946049   0.244   1.177   0.613 -0.7149  2.7861  0.1362
  121MOL   H21046050   0.325   1.329   0.598 -1.4554 -0.1487  0.5099
  121MOL   C21146051   0.578   0.938   0.144 -0.0507  0.4469 -0.2666
  121MOL   C21246052   0.692   0.963   0.255  0.8229  0.3118  0.5080
  121MOL   C21346053   0.663   0.875   0.374 -0.1661  0.5054  0.8595
  121MOL   O21446054   0.699   0.755   0.383 -0.7079 -0.0964  0.2891
  121MOL   N21546055   0.589   0.935   0.469 -0.1240  0.0584 -0.3455
  121MOL   C21646056   0.570   0.877   0.602 -0.2812 -0.5316 -0.6377
  121MOL   C21746057   0.421   0.854   0.628  0.3853 -0.0932  0.4039
  121MOL   C21846058   0.645   0.970   0.703 -0.3944  0.7548 -0.1131
  121MOL   H21946059   0.591   1.011   0.064  0.0733  2.5436  1.6257
  121MOL   H22046060   0.582   0.835   0.109 -2.3546  0.2563  0.0038
  121MOL   H22146061   0.682   1.067   0.288  0.5858  1.2449 -2.3433
  121MOL   H22246062   0.558   1.030   0.451  0.4881  0.7588  2.0526
  121MOL   H22346063   0.610   0.777   0.616  0.9762  0.1181  0.5124
  121MOL   H22446064   0.371   0.809   0.543  2.1916  0.7969 -1.1854
  121MOL   H22546065   0.410   0.791   0.716 -0.0768  0.6156  0.8548
  121MOL   H22646066   0.376   0.951   0.649  0.7137  0.5783 -1.8387
  121MOL   H22746067   0.641   0.933   0.805 -1.4368  1.6582  0.1900
  121MOL   H22846068   0.590   1.064   0.712 -0.4512  0.6386  0.8008
  121MOL   H22946069   0.751   0.990   0.685 -0.1853 -0.7552 -0.6121
  121MOL   C23046070   0.836   0.942   0.207  0.5234 -0.0546 -0.3453
  121MOL   C23146071   0.944   0.975   0.306 -0.2935 -0.8560 -0.3606
  121MOL   C23246072   1.028   0.859   0.353  0.9209 -0.5209 -0.6847
  121MOL   O23346073   1.119   0.814   0.282 -0.2896  0.3089  0.0539
  121MOL   N23446074   1.006   0.804   0.471  0.0419  0.0610  0.1809
  121MOL   C23546075   1.056   0.675   0.511  0.6185  0.1580  0.0297
  121MOL   C23646076   1.081   0.662   0.663 -0.6827  0.7349  0.3816
  121MOL   C23746077   0.975   0.557   0.450  0.0550  0.1661 -0.2523
  121MOL   H23846078   0.839   0.998   0.114  1.0265  1.8620  0.7835
  121MOL   H23946079   0.844   0.842   0.164  0.2768 -0.0850 -0.3197
  121MOL   H24046080   0.894   1.010   0.397  1.6211  0.0148  0.3819
  121MOL   H24146081   0.939   0.851   0.531 -0.5929  0.8678 -1.1529
  121MOL   H24246082   1.154   0.651   0.470  0.5400 -2.0898  1.1085
  121MOL   H24346083   1.095   0.557   0.689  1.7114  0.6194 -1.2069
  121MOL   H24446084   1.176   0.712   0.682 -0.6657  1.6573 -1.8850
  121MOL   H24546085   1.003   0.701   0.729 -1.1270  1.3433 -0.4879
  121MOL   H24646086   0.869   0.575   0.469  0.1198 -2.3915  2.9127
  121MOL   H24746087   1.004   0.462   0.494 -1.4228  0.2649  0.9991
  121MOL   H24846088   0.980   0.556   0.341  0.2481  0.4984 -0.2460
  121MOL   C24946089   1.021   1.098   0.257  0.3477 -0.1501  0.2444
  121MOL   C25046090   1.115   1.163   0.361 -0.4015  0.1197 -0.3301
  121MOL   C25146091   1.040   1.210   0.487  0.3708  0.0636 -0.3279
  121MOL   O25246092   0.965   1.306   0.477  0.4838  0.3453  0.9109
  121MOL   N25346093   1.070   1.146   0.598  0.5622 -1.0813  0.4223
  121MOL   C25446094   1.013   1.170   0.727 -0.2647 -0.5696 -1.1013
  121MOL   C25546095   1.052   1.058   0.821 -0.5115 -0.7548  0.6234
  121MOL   C25646096   1.061   1.309   0.774 -0.5974 -0.7417 -0.8637
  121MOL   H25746097   0.948   1.174   0.228 -0.1469  0.1356  2.1956
  121MOL   H25846098   1.075   1.083   0.164  1.9185  1.8100  0.8134
  121MOL   H25946099   1.176   1.077   0.390  0.2492  0.2045 -1.4189
  121MOL   H26046100   1.152   1.087   0.602  2.0293  0.9201  0.3750
  121MOL   H26146101   0.904   1.173   0.729 -0.2179  2.3005  1.2651
  121MOL   H26246102   0.984   0.973   0.811 -1.5290  0.1049  0.0733
  121MOL   H26346103   1.158   1.035   0.816 -0.3114 -0.0107  1.3594
  121MOL   H26446104   1.035   1.080   0.927  2.9206  1.5738  0.7337
  121MOL   H26546105   1.008   1.398   0.739 -1.0884 -0.3363  0.8533
  121MOL   H26646106   1.032   1.307   0.879 -1.1578  1.9063 -0.9258
  121MOL   H26746107   1.169   1.325   0.766 -0.5532 -0.2979  0.3890
  121MOL   C26846108   1.189   1.284   0.291 -0.2837  0.2891 -0.8111
  121MOL   C26946109   1.344   1.266   0.298  0.5475  0.0104 -0.6592
  121MOL   C27046110   1.409   1.306   0.170  0.5010  0.1591 -0.0082
  121MOL   O27146111   1.414   1.422   0.131  0.7735 -0.3756  0.1165
  121MOL   N27246112   1.455   1.201   0.094 -0.7866  0.5722  0.0548
  121MOL   C27346113   1.522   1.214   7.803  0.6997 -0.4355 -0.5463
  121MOL   C27446114   1.670   1.227   7.824  0.5694 -0.0084  0.2654
  121MOL   C27546115   1.478   1.096   7.717 -0.2903 -0.0681  0.1942
  121MOL   H27646116   1.156   1.290   0.187 -0.9924  0.9674 -0.5479
  121MOL   H27746117   1.164   1.377   0.341  0.1508 -0.5318  0.9719
  121MOL   H27846118   1.365   1.160   0.289  0.7982  0.1483 -1.7312
  121MOL   H27946119   1.445   1.116   0.147  0.3210 -0.0653 -0.7448
  121MOL   H28046120   1.487   1.306   7.757  1.1607  0.4682  0.8623
  121MOL   H28146121   1.691   1.297   0.068 -0.8616 -2.4525  2.8605
  121MOL   H28246122   1.706   1.126   0.008 -1.5013 -0.7468  0.3532
  121MOL   H28346123   1.720   1.264   7.735  2.1456 -0.5830  0.8934
  121MOL   H28446124   1.377   1.112   7.680 -0.2257 -0.0607  0.0195
  121MOL   H28546125   1.543   1.084   7.630  1.3660  0.6597  1.2965
  121MOL   H28646126   1.475   1.001   7.770  0.5832 -1.2150 -1.7818
  121MOL   C28746127   1.424   1.316   0.421 -0.5414 -0.1244  0.6672
  121MOL   C28846128   1.537   1.214   0.463  1.0644 -0.2360 -0.7727
  121MOL   C28946129   1.478   1.107   0.560  0.0777 -0.3961  0.1224
  121MOL   O29046130   1.372   1.117   0.624 -0.3132 -0.0927 -0.0292
  121MOL   N29146131   1.556   1.000   0.577 -0.0987  0.1758 -0.0853
  121MOL   C29246132   1.508   0.883   0.654  0.1618  1.2244  0.1618
  121MOL   C29346133   1.601   0.767   0.621 -0.1720  0.3524 -0.7996
  121MOL   C29446134   1.508   0.908   0.810  0.0055 -0.3103  0.1783
  121MOL   H29546135   1.455   1.419   0.399 -1.7690  0.2587  0.7041
  121MOL   H29646136   1.342   1.331   0.491 -0.8107 -0.8177  0.5006
  121MOL   H29746137   1.582   1.171   0.373  2.4879 -1.1379  0.3423
  121MOL   H29846138   1.648   0.990   0.536  0.5826 -1.0704  1.6629
  121MOL   H29946139   1.411   0.862   0.610  1.0036 -1.0186 -0.7076
  121MOL   H30046140   1.605   0.728   0.519  1.2353  0.8867 -0.9602
  121MOL   H30146141   1.700   0.780   0.666 -0.3866 -1.2520  0.1983
  121MOL   H30246142   1.572   0.687   0.690  0.8419 -0.3183 -1.1233
  121MOL   H30346143   1.463   0.824   0.862  0.3248 -1.0602 -0.7451
  121MOL   H30446144   1.609   0.927   0.847  0.6274 -0.7958 -1.2236
  121MOL   H30546145   1.445   0.987   0.850  1.2008 -0.0253  1.5460
  121MOL   C30646146   1.654   1.297   0.518  0.2383  0.8125 -0.4324
  121MOL   C30746147   1.799   1.227   0.501  0.6955 -0.1484 -0.5928
  121MOL   C30846148   1.834   1.149   0.629  0.3222 -0.1231  0.0752
  121MOL   O30946149   1.847   1.026   0.632 -0.1384  0.2167  0.9179
  121MOL   N31046150   1.866   1.231   0.733 -0.2927 -0.2994  0.1782
  121MOL   C31146151   1.884   1.192   0.873  0.0228 -0.6837 -0.1470
  121MOL   C31246152   2.010   1.269   0.924  0.4076  0.3776  0.5784
  121MOL   C31346153   1.772   1.245   0.962  0.4954 -0.0139  0.5128
  121MOL   H31446154   1.660   1.399   0.482 -4.2773  1.4397  0.3411
  121MOL   H31546155   1.634   1.321   0.622 -1.6405 -0.3506 -0.4972
  121MOL   H31646156   1.801   1.153   0.421 -0.1387  2.6984 -3.3610
  121MOL   H31746157   1.863   1.330   0.712  0.7510 -0.3308 -0.1591
  121MOL   H31846158   1.894   1.085   0.891 -2.2978 -0.8938  0.0208
  121MOL   H31946159   2.025   1.279   1.032 -2.5590 -0.4259  1.1074
  121MOL   H32046160   2.019   1.368   0.878 -2.4325  0.9997  1.2600
  121MOL   H32146161   2.097   1.212   0.892 -0.3714  0.0629 -1.0538
  121MOL   H32246162   1.757   1.352   0.948 -0.9073  0.0952  2.6839
  121MOL   H32346163   1.789   1.217   1.066  1.1534 -0.4167  0.2982
  121MOL   H32446164   1.677   1.206   0.925 -0.0173  1.4916  0.1949
  121MOL   C32546165   1.920   1.317   0.455  0.2248 -0.1653  0.3972
  121MOL   C32646166   2.062   1.266   0.472  0.2727 -0.0864 -0.3938
  121MOL   C32746167   2.096   1.151   0.375  0.0510  0.0311 -0.0365
  121MOL   O32846168   2.153   1.184   0.271 -0.0915 -0.1012 -0.1219
  121MOL   N32946169   2.067   1.024   0.407  0.4299  0.2078  0.1836
  121MOL   C33046170   2.104   0.908   0.327 -0.7400 -1.1670 -0.2245
  121MOL   C33146171   2.005   0.791   0.338  0.0845  0.3112  0.0029
  121MOL   C33246172   2.253   0.874   0.362  0.2569 -0.0789 -0.2106
  121MOL   H33346173   1.901   1.402   0.520  0.4781 -0.3908  0.7759
  121MOL   H33446174   1.900   1.351   0.354  0.8840 -2.0404 -0.3957
  121MOL   H33546175   2.075   1.212   0.565  0.6838 -0.4119 -0.6349
  121MOL   H33646176   2.026   1.005   0.497  0.4847  2.2156  0.6584
  121MOL   H33746177   2.100   0.926   0.220  0.3480 -0.4291 -0.1541
  121MOL   H33846178   1.903   0.819   0.313  0.8666  0.6070 -3.0680
  121MOL   H33946179   2.043   0.715   0.270 -0.6331 -0.7962  0.8231
  121MOL   H34046180   2.003   0.742   0.436  1.4530  2.9491  1.4119
  121MOL   H34146181   2.271   0.845   0.466 -1.5783  2.5968  0.8958
  121MOL   H34246182   2.317   0.961   0.351  0.4629 -0.1432  0.4188
  121MOL   H34346183   2.291   0.789   0.305  0.6294 -1.2725  1.7698
  121MOL   C34446184   2.175   1.377   0.487  0.5346  0.5081 -0.2087
  121MOL   C34546185   2.317   1.332   0.531 -0.2770 -0.3354 -0.1841
  121MOL   C34646186   2.426   1.393   0.446  0.0978 -0.5265 -0.6423
  121MOL   O34746187   2.473   1.498   0.480 -0.0651 -0.4244 -0.0019
  121MOL   N34846188   2.455   1.319   0.334  0.3214 -0.2208  0.0241
  121MOL   C34946189   2.545   1.366   0.222  0.2045 -0.4121 -0.1826
  121MOL   C35046190   2.620   1.249   0.169  0.2359 -0.0317  0.4581
  121MOL   C35146191   2.481   1.461   0.118  0.3515  0.2098 -0.3613
  121MOL   H35246192   2.139   1.458   0.551 -1.6644 -0.5320 -0.0973
  121MOL   H35346193   2.179   1.417   0.386 -1.0277 -1.7530 -1.1976
  121MOL   H35446194   2.327   1.225   0.510  0.8895 -0.0533 -1.1176
  121MOL   H35546195   2.420   1.228   0.309  0.9546 -0.3881 -0.2503
  121MOL   H35646196   2.626   1.425   0.266  0.6556 -2.0776  1.3037
  121MOL   H35746197   2.556   1.179   0.116  0.2609 -0.6928  1.2871
  121MOL   H35846198   2.699   1.280   0.101 -1.1153 -1.5790 -1.8837
  121MOL   H35946199   2.676   1.203   0.250 -0.7758  1.4890  2.0577
  121MOL   H36046200   2.417   1.404   0.050  0.1171 -0.5270  0.4669
  121MOL   H36146201   2.415   1.530   0.169  0.1288  0.5835 -1.1502
  121MOL   H36246202   2.546   1.512   0.047  0.9470 -1.1798 -0.8467
  121MOL   C36346203   2.345   1.349   0.684  0.7322  0.9882  0.9369
  121MOL   C36446204   2.454   1.251   0.738  0.7042 -0.6308  0.4859
  121MOL   C36546205   2.395   1.118   0.777 -0.4454  0.2380 -0.4986
  121MOL   O36646206   2.280   1.082   0.733  0.0604 -0.3904  0.2716
  121MOL   N36746207   2.466   1.042   0.857 -0.2723 -0.4222  0.5585
  121MOL   C36846208   2.430   0.913   0.899 -0.6449  0.8276 -0.2434
  121MOL   C36946209   2.560   0.830   0.907  0.3342  0.3507 -0.0762
  121MOL   C37046210   2.351   0.919   1.024  0.1941  0.2968 -0.1233
  121MOL   H37146211   2.248   1.327   0.728 -0.6046  2.0138 -1.3891
  121MOL   H37246212   2.363   1.453   0.709  1.7562  1.3276 -1.0619
  121MOL   H37346213   2.485   1.297   0.832  1.5558  2.0887 -1.0687
  121MOL   H37446214   2.558   1.078   0.875 -0.7900  1.5148 -0.5219
  121MOL   H37546215   2.362   0.865   0.828  0.6155 -0.0522 -0.8718
  121MOL   H37646216   2.633   0.840   0.826  0.9224  0.8519  0.5080
  121MOL   H37746217   2.604   0.876   0.996  0.2959  0.8286 -0.2984
  121MOL   H37846218   2.554   0.727   0.940 -1.2768 -0.2414 -2.0629
  121MOL   H37946219   2.259   0.977   1.012 -0.7379 -1.6404 -2.8369
  121MOL   H38046220   2.306   0.822   1.049 -1.8217  1.3680  0.5554
  121MOL   H38146221   2.410   0.936   1.114  1.7871 -1.1674 -0.8707
  121MOL   H38246222   2.550   1.247   0.686  0.3228  0.1860 -0.3074
  122MOL     C146223   3.561   5.848   0.110 -0.2901 -0.0842 -0.7582
  122MOL     C246224   3.669   5.751   0.153  0.7719  0.3664  0.3569
  122MOL     C346225   3.678   5.632   0.058  0.0232 -0.6528  0.0557
  122MOL     O446226   3.748   5.634   7.791 -0.1854 -0.2405 -0.4270
  122MOL     N546227   3.608   5.527   0.100 -0.1058 -0.4743 -1.0685
  122MOL     C646228   3.572   5.404   0.036  0.0832  0.1069  0.3385
  122MOL     C746229   3.622   5.294   0.119 -0.0732  0.4346  0.2796
  122MOL     C846230   3.427   5.401   0.022  0.0465 -0.2233  0.2155
  122MOL     H946231   3.590   5.905   0.021  0.8753  0.4187 -0.0675
  122MOL    H1046232   3.564   5.923   0.188  1.1279 -0.0748 -0.8032
  122MOL    H1146233   3.659   5.713   0.254 -1.4656  0.0170  0.0237
  122MOL    H1246234   3.543   5.561   0.170 -0.1923 -3.6142  0.4919
  122MOL    H1346235   3.613   5.403   7.771  1.0070  1.8407  0.6907
  122MOL    H1446236   3.626   5.208   0.054  0.3385  0.3701  0.3936
  122MOL    H1546237   3.562   5.266   0.206  2.6427 -2.6789  1.2249
  122MOL    H1646238   3.726   5.316   0.142 -0.1899  2.2559 -0.8232
  122MOL    H1746239   3.373   5.409   0.116 -1.0243 -1.6761 -0.2531
  122MOL    H1846240   3.380   5.483   7.803 -1.1771 -0.7057  0.5209
  122MOL    H1946241   3.400   5.308   7.808 -2.4729 -0.2333  1.4726
  122MOL    H2046242   3.459   5.811   0.103 -1.6997  3.5087  0.1935
  122MOL    C2146243   3.802   5.834   0.159 -0.0125 -0.2080 -0.5711
  122MOL    C2246244   3.827   5.911   0.298 -0.2156  0.2406 -0.4014
  122MOL    C2346245   3.893   6.042   0.277  0.5320 -0.4136 -0.1105
  122MOL    O2446246   3.953   6.073   0.170 -0.3776 -0.2751 -0.2050
  122MOL    N2546247   3.888   6.121   0.385  0.6582 -0.3896  0.7394
  122MOL    C2646248   3.955   6.254   0.405  0.7754  0.2011  0.2623
  122MOL    C2746249   4.088   6.238   0.490  0.1135  0.3354  0.6062
  122MOL    C2846250   3.859   6.349   0.474  0.4997 -0.6257  0.1306
  122MOL    H2946251   3.794   5.910   0.081  2.5237  0.2566 -0.4361
  122MOL    H3046252   3.885   5.769   0.131 -0.2539 -1.5192  1.5997
  122MOL    H3146253   3.725   5.937   0.326 -0.3779  0.6578 -1.3622
  122MOL    H3246254   3.825   6.088   0.457 -1.0813  0.4654 -0.3587
  122MOL    H3346255   3.981   6.293   0.307  0.1729 -1.9865 -0.8178
  122MOL    H3446256   4.158   6.172   0.438  1.6186 -0.4542  3.4984
  122MOL    H3546257   4.070   6.191   0.587 -0.4682 -0.1605  0.2622
  122MOL    H3646258   4.146   6.329   0.498  0.1683  0.1714  2.2127
  122MOL    H3746259   3.758   6.355   0.433  0.1317  0.4140  1.1553
  122MOL    H3846260   3.856   6.317   0.578  2.8833  1.5068  0.9026
  122MOL    H3946261   3.909   6.445   0.473  1.8933 -1.3053  2.2270
  122MOL    C4046262   3.877   5.827   0.419  0.2441 -0.2535  0.5030
  122MOL    C4146263   4.035   5.834   0.437 -0.3415 -0.0896 -0.7245
  122MOL    C4246264   4.104   5.781   0.303 -0.1692 -0.3868 -0.1039
  122MOL    O4346265   4.081   5.665   0.260  0.2745  0.2939  0.6345
  122MOL    N4446266   4.188   5.865   0.233  0.8467 -1.1022 -0.0059
  122MOL    C4546267   4.220   5.857   0.093  0.1229  0.7640 -0.8329
  122MOL    C4646268   4.268   5.992   0.040 -0.2980 -0.3295 -0.1512
  122MOL    C4746269   4.330   5.741   0.068 -0.8154  0.2331 -0.0437
  122MOL    H4846270   3.865   5.722   0.394 -2.7129  0.5447 -1.7428
  122MOL    H4946271   3.817   5.850   0.508  1.1733  0.3031  0.9924
  122MOL    H5046272   4.064   5.938   0.452  0.9182 -0.6860  1.0772
  122MOL    H5146273   4.202   5.960   0.263  0.9438 -1.5095  1.2911
  122MOL    H5246274   4.130   5.827   0.039  1.4173 -0.9014 -2.1327
  122MOL    H5346275   4.332   6.050   0.105 -1.4701  1.6517 -0.7401
  122MOL    H5446276   4.190   6.064   0.018  1.2454  0.1439 -4.7507
  122MOL    H5546277   4.310   5.982   7.776 -1.3294  1.6141 -0.7991
  122MOL    H5646278   4.324   5.646   0.123  1.2816 -0.9191 -1.7366
  122MOL    H5746279   4.426   5.784   0.097 -0.0822 -0.6270 -1.1508
  122MOL    H5846280   4.319   5.701   7.804  1.1602  1.6251 -0.8291
  122MOL    C5946281   4.083   5.766   0.572  0.6396 -1.0544 -0.4415
  122MOL    C6046282   4.223   5.802   0.631 -0.1752  0.0691 -0.5056
  122MOL    C6146283   4.337   5.771   0.537  0.2558 -0.0703  0.5059
  122MOL    O6246284   4.413   5.868   0.509  0.0485  0.2688  0.1413
  122MOL    N6346285   4.349   5.651   0.482  0.2932  0.2818 -0.4231
  122MOL    C6446286   4.460   5.607   0.391  0.3279 -0.3522 -0.2228
  122MOL    C6546287   4.586   5.549   0.465 -0.0306  0.4546 -0.1324
  122MOL    C6646288   4.396   5.485   0.317  0.3128 -0.1922  0.3909
  122MOL    H6746289   4.001   5.785   0.642  1.1614 -0.1795 -0.0534
  122MOL    H6846290   4.083   5.660   0.548 -2.2308 -0.5810 -2.8818
  122MOL    H6946291   4.216   5.908   0.656  1.0817 -0.3679  1.8913
  122MOL    H7046292   4.282   5.580   0.507  1.5847 -0.9065 -0.3057
  122MOL    H7146293   4.478   5.686   0.317  1.2984  1.4520  1.8859
  122MOL    H7246294   4.575   5.456   0.522 -3.4178 -0.2859 -1.8489
  122MOL    H7346295   4.663   5.533   0.389 -0.5473  0.3591 -0.6402
  122MOL    H7446296   4.623   5.625   0.533  0.4569  0.3312 -0.2602
  122MOL    H7546297   4.389   5.404   0.390  0.5065 -0.7022 -0.1450
  122MOL    H7646298   4.296   5.509   0.280 -0.3003 -2.8353  0.1892
  122MOL    H7746299   4.461   5.456   0.234 -0.2126  1.8943 -0.7833
  122MOL    C7846300   4.236   5.738   0.769 -0.1628  0.6553  0.6123
  122MOL    C7946301   4.362   5.767   0.855  0.7018  0.2791  0.6774
  122MOL    C8046302   4.385   5.919   0.872 -0.1013 -0.0276 -0.3133
  122MOL    O8146303   4.349   5.981   0.968 -0.6345  0.2832  0.4495
  122MOL    N8246304   4.456   5.985   0.776  0.5756 -0.2521  0.0241
  122MOL    C8346305   4.510   6.121   0.765  0.0132 -0.3737  0.0565
  122MOL    C8446306   4.554   6.153   0.625 -0.6715 -0.4406 -0.0071
  122MOL    C8546307   4.426   6.232   0.830 -0.1731  0.0749  0.1108
  122MOL    H8646308   4.230   5.632   0.744 -2.3252  1.0799 -0.7371
  122MOL    H8746309   4.141   5.770   0.813  0.1516  1.1803  0.9280
  122MOL    H8846310   4.448   5.721   0.807  0.2558 -0.5007  0.6115
  122MOL    H8946311   4.485   5.937   0.692  1.5892 -0.0172  0.2384
  122MOL    H9046312   4.604   6.116   0.821 -0.4480  0.8315  0.9565
  122MOL    H9146313   4.613   6.068   0.591 -1.8090 -1.9889  1.7965
  122MOL    H9246314   4.471   6.159   0.555  0.0727 -0.5699 -0.9231
  122MOL    H9346315   4.616   6.241   0.608 -2.0655  0.4752 -0.3683
  122MOL    H9446316   4.392   6.216   0.933  0.9555  4.3272  1.2561
  122MOL    H9546317   4.348   6.253   0.758 -1.3082  2.7357  2.0104
  122MOL    H9646318   4.483   6.325   0.835  0.5101 -0.4468  2.8320
  122MOL    C9746319   4.342   5.695   0.989  0.6380  0.3645  1.3946
  122MOL    C9846320   4.467   5.643   1.052  0.2253 -0.0159  0.4704
  122MOL    C9946321   4.510   5.507   0.998  0.2873  0.0768  0.2457
  122MOL   O10046322   4.423   5.424   0.977 -0.4375  0.6070  0.0550
  122MOL   N10146323   4.632   5.502   0.941  0.1517  0.2045 -0.2748
  122MOL   C10246324   4.683   5.377   0.886  0.3512 -0.0883  0.6918
  122MOL   C10346325   4.795   5.413   0.790  0.0429  0.0818 -0.3686
  122MOL   C10446326   4.747   5.289   0.999 -0.3221  0.5166 -0.2098
  122MOL   H10546327   4.277   5.609   0.972 -0.2200  1.1228  0.7832
  122MOL   H10646328   4.287   5.762   1.055  1.3632  0.9023  1.4605
  122MOL   H10746329   4.555   5.702   1.026 -1.7412  2.5962 -0.4113
  122MOL   H10846330   4.694   5.581   0.935  1.0482 -0.3153  1.7441
  122MOL   H10946331   4.612   5.317   0.830 -0.4011  0.7184  0.7866
  122MOL   H11046332   4.858   5.330   0.756 -1.1509 -0.8320 -0.4047
  122MOL   H11146333   4.754   5.457   0.699  1.2764  0.5640 -0.6941
  122MOL   H11246334   4.851   5.497   0.831  3.1608 -1.3406 -1.5659
  122MOL   H11346335   4.809   5.213   0.951  0.2750  0.2753  0.9525
  122MOL   H11446336   4.669   5.241   1.057  0.4862 -0.2306  0.2798
  122MOL   H11546337   4.803   5.358   1.062 -0.2724 -0.1651  0.4926
  122MOL   C11646338   4.431   5.621   1.208  0.5444  0.0813  0.3167
  122MOL   C11746339   4.413   5.748   1.291  0.1771  0.7624  0.0167
  122MOL   C11846340   4.538   5.835   1.287  0.0122 -0.7842 -0.0343
  122MOL   O11946341   4.639   5.799   1.354  0.2015 -0.8919  0.2889
  122MOL   N12046342   4.528   5.959   1.235 -0.7461 -0.4007 -0.0095
  122MOL   C12146343   4.630   6.058   1.253  0.6480  0.1247 -0.2687
  122MOL   C12246344   4.640   6.137   1.121 -0.3697  0.3374  0.1096
  122MOL   C12346345   4.579   6.155   1.358 -0.0487 -0.0238 -0.2615
  122MOL   H12446346   4.515   5.568   1.254  0.1635 -1.0665 -0.2878
  122MOL   H12546347   4.339   5.566   1.228 -0.5140  1.6780 -0.0736
  122MOL   H12646348   4.325   5.795   1.247 -1.9406 -1.8256  1.3633
  122MOL   H12746349   4.453   5.985   1.172 -0.2501  0.6256 -0.1819
  122MOL   H12846350   4.726   6.023   1.291  0.3633  0.2310  0.5580
  122MOL   H12946351   4.554   6.202   1.102 -0.2638 -0.0578 -1.7602
  122MOL   H13046352   4.664   6.068   1.040  3.6159  0.4116  1.1184
  122MOL   H13146353   4.717   6.214   1.124  0.4215 -0.4688  0.7015
  122MOL   H13246354   4.573   6.099   1.451 -0.8736 -0.3176 -0.4869
  122MOL   H13346355   4.657   6.229   1.376 -0.8341  0.7912 -0.1936
  122MOL   H13446356   4.479   6.182   1.325 -0.1105 -0.8563 -0.7887
  122MOL   C13546357   4.366   5.728   1.433  0.3091  0.8180  0.3246
  122MOL   C13646358   4.330   5.859   1.518  0.2955  0.0263  0.2002
  122MOL   C13746359   4.200   5.922   1.465  0.2956 -0.3738  0.0301
  122MOL   O13846360   4.095   5.865   1.482 -0.2363  0.0462 -0.1480
  122MOL   N13946361   4.212   6.038   1.399  0.2600  0.0591 -0.4709
  122MOL   C14046362   4.107   6.098   1.318  0.6718 -0.7781 -0.6858
  122MOL   C14146363   4.167   6.204   1.223  0.5426 -0.8120 -0.5459
  122MOL   C14246364   3.984   6.154   1.397  0.0708 -0.0536  0.3312
  122MOL   H14346365   4.436   5.673   1.496  0.6346  0.9023  0.0379
  122MOL   H14446366   4.275   5.669   1.423 -0.8257  2.8399 -1.6354
  122MOL   H14546367   4.405   5.935   1.494 -1.6826  1.1361 -2.7949
  122MOL   H14646368   4.299   6.088   1.410  0.2960 -0.9481  5.8286
  122MOL   H14746369   4.062   6.021   1.254  0.7399 -0.2042 -1.4346
  122MOL   H14846370   4.226   6.160   1.142 -2.4920 -0.1642 -3.1993
  122MOL   H14946371   4.087   6.256   1.171 -0.1483  0.5025  1.7812
  122MOL   H15046372   4.224   6.281   1.274 -1.2700  0.2697 -0.1559
  122MOL   H15146373   4.026   6.231   1.462 -0.7251  1.9899 -1.4882
  122MOL   H15246374   3.918   6.080   1.442 -0.0384  0.5144  1.1129
  122MOL   H15346375   3.918   6.209   1.328  1.5052  3.7447  1.8391
  122MOL   C15446376   4.324   5.831   1.670 -0.2165  0.0236 -0.3539
  122MOL   C15546377   4.455   5.857   1.752  0.4060 -0.5099 -0.6799
  122MOL   C15646378   4.469   6.003   1.794  0.1011 -0.5364 -0.3266
  122MOL   O15746379   4.418   6.091   1.723  0.4364  0.2381 -0.5151
  122MOL   N15846380   4.529   6.034   1.906 -0.0729  1.0337  0.7589
  122MOL   C15946381   4.568   6.162   1.965  0.0915  0.4154  0.7470
  122MOL   C16046382   4.712   6.169   2.036 -1.0216  0.6159 -0.2542
  122MOL   C16146383   4.458   6.194   2.061 -0.4149 -0.1514  0.1779
  122MOL   H16246384   4.304   5.725   1.683 -1.4142  0.4656  1.7108
  122MOL   H16346385   4.251   5.896   1.717 -0.6900 -0.2094 -0.7620
  122MOL   H16446386   4.437   5.798   1.842 -0.7527 -0.1255 -0.6562
  122MOL   H16546387   4.575   5.961   1.958  1.3104  2.3131  1.3573
  122MOL   H16646388   4.568   6.245   1.894  1.9391  2.0001  2.5432
  122MOL   H16746389   4.787   6.150   1.959 -0.9110 -0.7145  0.1600
  122MOL   H16846390   4.729   6.265   2.084  2.2103  0.9296 -1.8712
  122MOL   H16946391   4.710   6.094   2.115 -1.6098  2.3890  1.4240
  122MOL   H17046392   4.500   6.270   2.127  1.0608 -0.2078 -0.6959
  122MOL   H17146393   4.422   6.103   2.110 -0.6510  0.7109  1.6452
  122MOL   H17246394   4.374   6.235   2.005 -0.1660  1.0687  0.6691
  122MOL   C17346395   4.586   5.799   1.689 -0.3388  0.4561  0.1235
  122MOL   C17446396   4.723   5.801   1.764  0.3501 -0.5366 -0.2146
  122MOL   C17546397   4.716   5.746   1.913 -0.1599  0.2399  0.6923
  122MOL   O17646398   4.704   5.820   2.005 -0.1370 -0.5844 -0.4025
  122MOL   N17746399   4.732   5.613   1.932  0.2247 -0.0445 -0.3929
  122MOL   C17846400   4.729   5.530   2.053  0.5294 -0.4597 -0.3163
  122MOL   C17946401   4.846   5.426   2.061  0.7606 -0.8156 -0.4111
  122MOL   C18046402   4.595   5.459   2.082  0.0133 -0.2166  0.2272
  122MOL   H18146403   4.588   5.842   1.588 -2.6287  0.9875  0.2789
  122MOL   H18246404   4.571   5.693   1.668  1.0448 -0.0344  1.5332
  122MOL   H18346405   4.755   5.905   1.775 -0.4104 -0.3276  0.0183
  122MOL   H18446406   4.755   5.559   1.849  0.1004  0.0472 -0.4866
  122MOL   H18546407   4.744   5.607   2.129 -0.1181 -1.4547  0.8256
  122MOL   H18646408   4.941   5.475   2.041  0.3610 -0.3280 -1.1249
  122MOL   H18746409   4.854   5.359   1.975  1.2239 -2.3545  0.8140
  122MOL   H18846410   4.862   5.382   2.159 -2.2952  1.7546  1.3232
  122MOL   H18946411   4.563   5.405   1.992 -0.1025  0.3607 -0.0841
  122MOL   H19046412   4.528   5.545   2.079  1.4112  0.9297  1.0156
  122MOL   H19146413   4.606   5.390   2.165 -0.0497 -0.6234 -0.1021
  122MOL   C19246414   4.821   5.722   1.670  0.9563  0.0939  0.0532
  122MOL   C19346415   4.971   5.733   1.712 -0.0366 -0.0562 -0.1825
  122MOL   C19446416   5.021   5.881   1.698  0.7193 -0.0861 -0.4579
  122MOL   O19546417   5.100   5.919   1.784  0.1206  0.4450 -0.2132
  122MOL   N19646418   4.965   5.970   1.614  0.4227 -0.1442 -0.2150
  122MOL   C19746419   4.989   6.114   1.622 -0.1036 -0.4389 -0.6559
  122MOL   C19846420   5.091   6.170   1.531  0.1525 -0.2041  0.5674
  122MOL   C19946421   4.857   6.181   1.604 -0.3288  0.1922  0.2829
  122MOL   H20046422   4.801   5.764   1.572 -1.5300 -0.6625  0.2068
  122MOL   H20146423   4.803   5.615   1.664  2.1068 -0.0181 -1.4869
  122MOL   H20246424   4.979   5.715   1.819 -1.2431 -1.5468 -0.3242
  122MOL   H20346425   4.898   5.938   1.547  0.7768  0.6534 -0.9622
  122MOL   H20446426   5.021   6.134   1.724  0.0640 -1.2789 -0.5416
  122MOL   H20546427   5.076   6.122   1.434  1.2469  1.0876 -0.2629
  122MOL   H20646428   5.191   6.142   1.563  0.2327 -0.9070 -0.2784
  122MOL   H20746429   5.073   6.275   1.508  2.1797 -0.0175 -0.2868
  122MOL   H20846430   4.788   6.116   1.658  1.9987 -2.8337 -0.2420
  122MOL   H20946431   4.821   6.172   1.502 -2.3476 -4.3184  1.2828
  122MOL   H21046432   4.857   6.286   1.633 -0.0532 -0.2118  1.7808
  122MOL   C21146433   5.070   5.638   1.646 -0.5477  0.4516 -0.6861
  122MOL   C21246434   5.224   5.652   1.681 -0.6936  0.2268  0.0491
  122MOL   C21346435   5.247   5.638   1.829 -0.1223  0.2583 -0.2738
  122MOL   O21446436   5.208   5.531   1.885 -0.7106 -0.0947 -0.5296
  122MOL   N21546437   5.299   5.746   1.896 -0.4757  1.2226  1.0760
  122MOL   C21646438   5.293   5.766   2.039 -0.4752 -0.5686 -0.1517
  122MOL   C21746439   5.403   5.692   2.107 -0.6538 -0.1811 -0.1793
  122MOL   C21846440   5.150   5.741   2.090  0.8129  0.2203 -0.6114
  122MOL   H21946441   5.064   5.663   1.540  0.5222  2.4251 -0.3098
  122MOL   H22046442   5.041   5.534   1.658 -0.9466  0.6553  0.0980
  122MOL   H22146443   5.255   5.753   1.652  2.7047 -0.4970  0.9667
  122MOL   H22246444   5.301   5.828   1.838  2.8266  1.3522  1.2765
  122MOL   H22346445   5.301   5.874   2.053 -0.9475 -0.3867 -1.2881
  122MOL   H22446446   5.506   5.712   2.076 -0.1633 -4.3179 -1.5422
  122MOL   H22546447   5.395   5.683   2.215  1.2500 -0.5850 -0.0597
  122MOL   H22646448   5.408   5.589   2.070 -0.5803  0.1177 -1.0206
  122MOL   H22746449   5.135   5.634   2.078  1.5231  0.0520 -0.0280
  122MOL   H22846450   5.067   5.784   2.035 -0.3841 -0.7836  0.3826
  122MOL   H22946451   5.132   5.758   2.196  0.5786  0.4066 -0.6808
  122MOL   C23046452   5.298   5.549   1.597 -0.0503  0.4710 -0.3878
  122MOL   C23146453   5.306   5.586   1.446 -0.1661  0.5239  0.3425
  122MOL   C23246454   5.452   5.639   1.414 -0.7428 -0.0243  0.3991
  122MOL   O23346455   5.496   5.724   1.491  0.3357  0.7379 -0.6926
  122MOL   N23446456   5.524   5.588   1.313  0.0841  0.6727 -0.1990
  122MOL   C23546457   5.664   5.632   1.286 -0.1616  0.2782 -0.0942
  122MOL   C23646458   5.753   5.517   1.327  0.0823 -0.2384  0.5177
  122MOL   C23746459   5.687   5.647   1.135  0.3629  0.7911  1.0948
  122MOL   H23846460   5.249   5.452   1.606  2.0529 -0.6207 -0.4052
  122MOL   H23946461   5.393   5.520   1.642 -1.2495 -1.4482  0.9532
  122MOL   H24046462   5.258   5.682   1.430  0.9253  1.1835  0.9290
  122MOL   H24146463   5.488   5.509   1.262  1.1398 -0.5274  0.8649
  122MOL   H24246464   5.687   5.721   1.345  0.8297  0.0013 -0.0476
  122MOL   H24346465   5.761   5.508   1.435 -0.9153 -2.6307  0.4259
  122MOL   H24446466   5.718   5.418   1.298 -4.0616  0.4003  3.0053
  122MOL   H24546467   5.857   5.530   1.296 -0.2752  1.3200 -0.0716
  122MOL   H24646468   5.779   5.705   1.127  1.4684 -1.0388  0.2429
  122MOL   H24746469   5.603   5.703   1.092  0.3935  1.6668  2.1371
  122MOL   H24846470   5.693   5.553   1.081 -2.1983  1.4975 -0.5339
  122MOL   C24946471   5.263   5.468   1.357 -0.1652 -0.4402 -0.2561
  122MOL   C25046472   5.213   5.502   1.214 -0.2550  0.2447  0.4455
  122MOL   C25146473   5.080   5.570   1.225 -0.2610  0.2337  0.1568
  122MOL   O25246474   4.983   5.510   1.257  0.6642  0.0105 -0.0500
  122MOL   N25346475   5.064   5.691   1.176  0.1164  0.0296 -0.4551
  122MOL   C25446476   4.949   5.770   1.179 -0.0613  0.6421 -0.8553
  122MOL   C25546477   4.974   5.911   1.131 -0.1703 -0.3197  0.2247
  122MOL   C25646478   4.841   5.713   1.090 -0.6285  0.2272 -0.5566
  122MOL   H25746479   5.177   5.421   1.404 -0.1965  0.1809  0.3168
  122MOL   H25846480   5.341   5.391   1.362  1.0123  0.7967  0.7326
  122MOL   H25946481   5.278   5.584   1.185  0.3517  0.1220  1.4214
  122MOL   H26046482   5.153   5.739   1.166  0.7891 -1.0983  0.0454
  122MOL   H26146483   4.918   5.778   1.283  0.1842 -0.9418 -0.6374
  122MOL   H26246484   5.035   5.962   1.206 -4.9677 -0.8458  4.7252
  122MOL   H26346485   5.022   5.910   1.033  1.2716  0.4371  0.9018
  122MOL   H26446486   4.887   5.975   1.115  0.0689 -0.4155 -1.5921
  122MOL   H26546487   4.889   5.663   1.006  1.1255  1.3640 -0.2524
  122MOL   H26646488   4.791   5.630   1.142  4.5113 -2.0012  1.1196
  122MOL   H26746489   4.767   5.787   1.058  0.1104  0.4978 -1.6761
  122MOL   C26846490   5.207   5.380   1.114 -0.2363 -0.1483  0.3042
  122MOL   C26946491   5.212   5.438   0.971 -0.6233  0.1218 -0.1063
  122MOL   C27046492   5.349   5.501   0.932 -0.2018 -0.1767 -0.8883
  122MOL   O27146493   5.442   5.495   1.010  0.1742  0.5579 -0.6962
  122MOL   N27246494   5.353   5.580   0.825  0.1734 -0.0894 -0.8357
  122MOL   C27346495   5.477   5.624   0.753  0.0141 -0.0811  0.0565
  122MOL   C27446496   5.496   5.535   0.632 -0.3071 -0.1086 -0.3779
  122MOL   C27546497   5.464   5.775   0.723 -0.0748 -0.6123  0.3580
  122MOL   H27646498   5.298   5.321   1.124 -1.6647 -2.4690 -0.0995
  122MOL   H27746499   5.119   5.320   1.134 -1.2878  1.6225  1.0848
  122MOL   H27846500   5.142   5.519   0.951 -0.2770  0.1791 -1.1634
  122MOL   H27946501   5.264   5.597   0.779 -0.8548 -0.3094  1.0458
  122MOL   H28046502   5.563   5.615   0.819 -0.6222 -0.0129  0.8978
  122MOL   H28146503   5.574   5.557   0.560  0.4634 -3.0041 -0.4883
  122MOL   H28246504   5.524   5.431   0.647 -1.6719 -0.6530 -1.4748
  122MOL   H28346505   5.402   5.529   0.578 -0.2273  2.0640 -0.8055
  122MOL   H28446506   5.479   5.832   0.815 -0.0133 -2.6373  1.6330
  122MOL   H28546507   5.548   5.802   0.659  1.1695 -1.5460  1.5687
  122MOL   H28646508   5.368   5.797   0.676  0.3447 -0.9468 -0.6641
  122MOL   C28746509   5.169   5.332   0.862  0.1957 -0.3661 -0.5548
  122MOL   C28846510   5.257   5.210   0.817  0.2503  0.1252  0.2131
  122MOL   C28946511   5.222   5.165   0.673 -1.0405 -0.3026  0.4385
  122MOL   O29046512   5.110   5.142   0.636  0.2446  0.0848 -0.8701
  122MOL   N29146513   5.322   5.150   0.587 -0.1395  0.1585  0.2634
  122MOL   C29246514   5.313   5.123   0.445  0.1044  0.2590 -0.5392
  122MOL   C29346515   5.438   5.183   0.377  0.6588  0.6538 -0.3335
  122MOL   C29446516   5.323   4.973   0.441  0.7643  1.0356  0.4118
  122MOL   H29546517   5.075   5.291   0.900  2.0908 -2.1073  2.3642
  122MOL   H29646518   5.138   5.390   0.774 -1.4547 -1.4447 -0.7135
  122MOL   H29746519   5.355   5.256   0.807  0.1477 -0.0091 -1.5647
  122MOL   H29846520   5.416   5.153   0.623  1.3307 -0.7393 -3.3235
  122MOL   H29946521   5.222   5.164   0.401  0.8143  0.1985 -2.0948
  122MOL   H30046522   5.437   5.292   0.385  3.6599  0.5519  2.6582
  122MOL   H30146523   5.529   5.137   0.416  0.5469 -0.8905 -1.8311
  122MOL   H30246524   5.435   5.173   0.268 -0.3553 -0.4422 -0.2279
  122MOL   H30346525   5.418   4.940   0.483  0.7618 -1.3749 -1.4055
  122MOL   H30446526   5.243   4.926   0.498 -1.2039  1.2553 -2.0597
  122MOL   H30546527   5.330   4.931   0.341  0.6937  0.1704  0.7728
  122MOL   C30646528   5.254   5.088   0.912  0.4671 -0.4895  0.3307
  122MOL   C30746529   5.348   4.976   0.875  0.5527  0.6551  0.3338
  122MOL   C30846530   5.318   4.853   0.959  0.2933  0.0540  0.2540
  122MOL   O30946531   5.323   4.861   1.082  0.2992 -0.6133 -0.5989
  122MOL   N31046532   5.297   4.736   0.894 -0.3247  0.0514 -0.3316
  122MOL   C31146533   5.318   4.602   0.948 -0.0260 -0.0670  0.0588
  122MOL   C31246534   5.461   4.552   0.974 -1.1507 -0.1521  0.2018
  122MOL   C31346535   5.224   4.581   1.069 -0.0849  0.9389 -0.3469
  122MOL   H31446536   5.257   5.116   1.017 -1.3184 -1.0629  0.5503
  122MOL   H31546537   5.154   5.047   0.898 -0.1126  0.9611  0.1567
  122MOL   H31646538   5.345   4.940   0.773 -2.6068 -1.9230  1.2822
  122MOL   H31746539   5.293   4.745   0.793 -1.2162  2.6675 -0.1098
  122MOL   H31846540   5.292   4.540   0.863  2.0218 -0.2453 -0.4617
  122MOL   H31946541   5.493   4.629   1.044  0.5377 -0.0778 -0.6194
  122MOL   H32046542   5.514   4.561   0.879 -0.2574 -0.1846  0.6953
  122MOL   H32146543   5.457   4.453   1.019  1.8407 -0.5957 -0.4023
  122MOL   H32246544   5.122   4.614   1.049 -0.4180  0.1456  0.0317
  122MOL   H32346545   5.264   4.638   1.153 -0.0455  0.5206 -0.0827
  122MOL   H32446546   5.226   4.477   1.100 -0.4549  0.3916 -2.0895
  122MOL   C32546547   5.499   5.020   0.894 -0.0295 -1.0396  0.4519
  122MOL   C32646548   5.602   4.904   0.859  0.1631 -0.1903  0.0266
  122MOL   C32746549   5.598   4.872   0.707  0.5765  0.1636 -0.5348
  122MOL   O32846550   5.596   4.968   0.632  0.2846 -0.0238 -0.6902
  122MOL   N32946551   5.586   4.749   0.664  0.6105  0.5871 -0.1530
  122MOL   C33046552   5.595   4.714   0.519  1.1601 -0.0632 -0.5125
  122MOL   C33146553   5.469   4.633   0.477  0.2035  0.6143  0.7896
  122MOL   C33246554   5.716   4.623   0.506 -0.0705  0.7531 -0.6444
  122MOL   H33346555   5.508   5.056   0.997  1.0535 -1.6291  0.5609
  122MOL   H33446556   5.515   5.114   0.840  0.2234 -0.4720  1.5070
  122MOL   H33546557   5.570   4.822   0.924 -0.7779 -1.4391 -1.9551
  122MOL   H33646558   5.583   4.665   0.721 -2.3754  0.3542 -0.5374
  122MOL   H33746559   5.608   4.794   0.447  0.9298  1.4961  1.1223
  122MOL   H33846560   5.447   4.631   0.370  0.8416 -1.2963  0.6676
  122MOL   H33946561   5.485   4.528   0.501 -1.2568  0.3541  0.7028
  122MOL   H34046562   5.376   4.674   0.516 -2.0144  0.8365 -4.3281
  122MOL   H34146563   5.806   4.683   0.521 -0.6606  0.6326  3.8625
  122MOL   H34246564   5.726   4.584   0.404  1.5880 -1.4939  0.3476
  122MOL   H34346565   5.722   4.540   0.576  0.7707  0.2322 -1.3114
  122MOL   C34446566   5.753   4.936   0.904  0.2751 -0.8867  0.3672
  122MOL   C34546567   5.858   4.831   0.895 -0.0676  0.3125  0.5102
  122MOL   C34646568   5.818   4.691   0.946  0.0972  0.1024 -0.4246
  122MOL   O34746569   5.758   4.616   0.868 -0.2472  0.7171  0.0959
  122MOL   N34846570   5.853   4.664   1.071  0.1281 -0.5966  0.0022
  122MOL   C34946571   5.842   4.530   1.122 -0.0238 -1.2840  0.3747
  122MOL   C35046572   5.991   4.490   1.156  0.1121  0.8395  0.2234
  122MOL   C35146573   5.755   4.527   1.251 -0.0436 -0.0085 -0.7080
  122MOL   H35246574   5.748   4.969   1.008 -1.2742 -0.5628  0.2040
  122MOL   H35346575   5.788   5.028   0.858  0.8600 -1.7817 -1.0115
  122MOL   H35446576   5.948   4.855   0.952  0.2621 -1.0688  0.5794
  122MOL   H35546577   5.902   4.729   1.131  0.6231 -2.3803  1.5612
  122MOL   H35646578   5.804   4.458   1.050  0.4070 -1.5810  0.4349
  122MOL   H35746579   5.981   4.383   1.171 -0.8341  0.8780 -0.0796
  122MOL   H35846580   6.072   4.512   1.087 -0.3877  0.8048 -0.3854
  122MOL   H35946581   6.021   4.541   1.248 -0.6205  0.2918  0.7737
  122MOL   H36046582   5.654   4.565   1.236 -0.0233  0.2115 -0.2922
  122MOL   H36146583   5.749   4.425   1.288 -0.3910  0.5274  0.7467
  122MOL   H36246584   5.792   4.584   1.336 -1.2055 -1.4990  0.8155
  122MOL   C36346585   5.918   4.827   0.745 -0.1889  0.7601  0.0345
  122MOL   C36446586   6.057   4.865   0.727 -0.3287  0.5128  1.0064
  122MOL   C36546587   6.058   5.013   0.695  0.2129 -0.1150  0.5491
  122MOL   O36646588   6.084   5.096   0.775  0.6421 -0.1067  0.1756
  122MOL   N36746589   6.042   5.042   0.563 -0.1645  0.0689  0.1333
  122MOL   C36846590   6.042   5.174   0.491  0.3880 -0.5318 -0.6078
  122MOL   C36946591   6.183   5.183   0.417 -0.1174 -0.4078  0.1283
  122MOL   C37046592   5.922   5.175   0.400 -0.1225  0.2551  0.0828
  122MOL   H37146593   5.851   4.881   0.678  0.2152  2.2956  0.8636
  122MOL   H37246594   5.911   4.724   0.709  0.3008  0.5137  0.6340
  122MOL   H37346595   6.085   4.819   0.632 -0.1271  2.0983  0.2773
  122MOL   H37446596   6.033   4.956   0.512  0.9594 -0.9172  1.5645
  122MOL   H37546597   6.034   5.255   0.564 -1.1075 -0.3110 -1.0181
  122MOL   H37646598   6.189   5.275   0.359  1.4007 -1.0907 -0.8182
  122MOL   H37746599   6.261   5.194   0.493  0.6166 -1.0015 -0.5282
  122MOL   H37846600   6.202   5.094   0.358 -1.9188  1.4583 -3.3853
  122MOL   H37946601   5.827   5.222   0.427 -0.2883  0.1946 -0.3805
  122MOL   H38046602   5.957   5.229   0.312  1.0946 -0.9042 -0.1594
  122MOL   H38146603   5.897   5.072   0.375 -0.4427 -0.1414  1.9913
  122MOL   H38246604   6.126   4.825   0.800  2.7991  0.7615 -1.6930
  123MOL     C146605   0.646   3.196   5.224 -0.3689 -0.2685 -0.1769
  123MOL     C246606   0.800   3.230   5.228  0.0708  0.1368 -0.7004
  123MOL     C346607   0.856   3.193   5.370  1.2045 -0.6802  0.4814
  123MOL     O446608   0.794   3.127   5.451 -0.1776 -0.0787 -0.2217
  123MOL     N546609   0.970   3.251   5.384 -0.8218  0.0144  0.9359
  123MOL     C646610   1.058   3.255   5.504  0.0962  0.0423 -0.1526
  123MOL     C746611   1.188   3.172   5.478 -0.5655 -0.5094  0.2268
  123MOL     C846612   1.090   3.402   5.548 -0.3839 -0.2731  0.1613
  123MOL     H946613   0.607   3.225   5.127  1.1706 -0.3454 -0.8374
  123MOL    H1046614   0.595   3.249   5.304 -1.9010 -2.3771  0.2928
  123MOL    H1146615   0.811   3.339   5.226  0.9668  0.0244 -3.4051
  123MOL    H1246616   0.993   3.304   5.301  1.1706 -2.2771 -0.0248
  123MOL    H1346617   1.015   3.205   5.590  2.0988  0.9054  1.4230
  123MOL    H1446618   1.171   3.068   5.451  1.4240 -1.0955  1.1563
  123MOL    H1546619   1.246   3.161   5.569 -1.5561 -2.1898  0.6800
  123MOL    H1646620   1.255   3.200   5.397  0.2020 -0.7763  0.7656
  123MOL    H1746621   0.992   3.448   5.555  0.1083  0.9191 -0.4388
  123MOL    H1846622   1.137   3.409   5.646 -0.5989  1.1382  0.1766
  123MOL    H1946623   1.144   3.471   5.482 -1.5283  0.2117 -0.2707
  123MOL    H2046624   0.623   3.089   5.229 -0.3452 -0.2940 -0.6019
  123MOL    C2146625   0.867   3.171   5.105 -0.1765  0.2498  0.1349
  123MOL    C2246626   1.023   3.170   5.080 -0.7235  0.2639 -0.0723
  123MOL    C2346627   1.083   3.311   5.087  0.1395  0.0777  0.0537
  123MOL    O2446628   1.010   3.410   5.062  0.0517  0.2504  0.5131
  123MOL    N2546629   1.206   3.331   5.123  0.2369  0.2520 -0.0777
  123MOL    C2646630   1.281   3.452   5.122 -0.2201  0.1150 -0.2845
  123MOL    C2746631   1.367   3.461   4.992 -0.0022  0.2788  0.6514
  123MOL    C2846632   1.354   3.458   5.248 -0.1962 -0.3728  0.0288
  123MOL    H2946633   0.823   3.230   5.025  0.1266  0.8796  0.4262
  123MOL    H3046634   0.840   3.067   5.092 -0.3304  0.2660  0.3340
  123MOL    H3146635   1.067   3.124   5.168  1.1729  1.7528 -0.2027
  123MOL    H3246636   1.259   3.246   5.140 -3.2329 -1.9952  0.0303
  123MOL    H3346637   1.216   3.540   5.121 -0.4110 -0.0269 -0.3547
  123MOL    H3446638   1.306   3.421   4.910 -1.2837 -0.6446  2.0218
  123MOL    H3546639   1.461   3.406   4.994  0.3938  0.9444  0.4391
  123MOL    H3646640   1.399   3.560   4.960  0.4458  0.5840  2.0346
  123MOL    H3746641   1.415   3.546   5.264 -1.9279  1.2336 -1.9669
  123MOL    H3846642   1.279   3.464   5.328  0.1970 -0.8145  0.4383
  123MOL    H3946643   1.406   3.364   5.268 -0.1556 -0.7399 -1.7700
  123MOL    C4046644   1.065   3.107   4.939 -0.3337  0.6304 -0.5658
  123MOL    C4146645   1.139   2.975   4.953  0.2588  0.3500 -0.1864
  123MOL    C4246646   1.251   2.964   5.051  0.2443  0.5404  0.1013
  123MOL    O4346647   1.307   3.065   5.094 -0.3245  0.1389  0.2379
  123MOL    N4446648   1.295   2.843   5.093  0.4809  0.3331 -0.1288
  123MOL    C4546649   1.407   2.821   5.185 -0.2276  0.8393  0.2991
  123MOL    C4646650   1.371   2.864   5.333  0.7134 -1.1375 -0.2085
  123MOL    C4746651   1.431   2.669   5.193  0.0359 -0.1616  0.1343
  123MOL    H4846652   1.127   3.167   4.873  0.5615 -1.5175 -1.7217
  123MOL    H4946653   0.979   3.089   4.874 -0.1798 -2.6002  0.0142
  123MOL    H5046654   1.075   2.889   4.974  2.0745 -1.2337 -0.9750
  123MOL    H5146655   1.236   2.763   5.074 -1.2228  0.9472  2.2911
  123MOL    H5246656   1.494   2.882   5.159 -0.5749  1.5048  0.6689
  123MOL    H5346657   1.349   2.971   5.328  2.8842 -0.6804 -0.4470
  123MOL    H5446658   1.459   2.869   5.397 -0.4318 -0.8745  1.3931
  123MOL    H5546659   1.292   2.802   5.375  0.4311 -1.8338 -1.7404
  123MOL    H5646660   1.338   2.613   5.198  0.5438 -1.1761 -1.3865
  123MOL    H5746661   1.492   2.647   5.281  1.6223 -0.0283 -0.9129
  123MOL    H5846662   1.475   2.635   5.099 -2.0344 -1.1674 -0.4818
  123MOL    C5946663   1.198   2.942   4.815  0.6597  0.1820  0.0703
  123MOL    C6046664   1.236   2.792   4.778 -0.1865  0.3148  0.7549
  123MOL    C6146665   1.329   2.779   4.658 -0.0541 -0.0249 -0.1791
  123MOL    O6246666   1.288   2.745   4.546 -0.7355  0.4618 -0.3795
  123MOL    N6346667   1.458   2.812   4.670  0.2020 -0.1914 -0.2297
  123MOL    C6446668   1.529   2.832   4.795  0.7226 -0.3941  0.1555
  123MOL    C6546669   1.630   2.718   4.810  0.1598 -0.0312  0.0906
  123MOL    C6646670   1.600   2.972   4.799 -0.3198  0.1515  0.6184
  123MOL    H6746671   1.133   2.976   4.735 -0.9140 -1.8390  0.4430
  123MOL    H6846672   1.292   2.995   4.800  1.7713 -1.4474  1.1148
  123MOL    H6946673   1.287   2.738   4.858  0.4474  0.2164  0.2894
  123MOL    H7046674   1.511   2.800   4.585 -0.4788 -0.6673 -0.5912
  123MOL    H7146675   1.468   2.834   4.885 -0.5570 -1.4300 -0.6606
  123MOL    H7246676   1.577   2.622   4.808 -2.2229  1.2596 -2.7864
  123MOL    H7346677   1.700   2.714   4.727  0.7913 -0.3417  0.6388
  123MOL    H7446678   1.682   2.735   4.904  0.0134  0.7076  0.0452
  123MOL    H7546679   1.529   3.054   4.796 -1.6792 -0.9157  2.8405
  123MOL    H7646680   1.661   2.972   4.889  0.6142  1.6949  0.0092
  123MOL    H7746681   1.665   2.990   4.713  0.5055 -0.0506  1.1920
  123MOL    C7846682   1.108   2.710   4.754 -0.1771 -0.8081  0.3371
  123MOL    C7946683   1.128   2.559   4.763 -0.4948  0.2781  0.0545
  123MOL    C8046684   1.175   2.507   4.899  0.2562 -0.1261  0.0601
  123MOL    O8146685   1.132   2.568   4.995 -0.0994 -0.5254 -0.4922
  123MOL    N8246686   1.258   2.406   4.909  0.4596  0.0163 -0.3843
  123MOL    C8346687   1.299   2.342   5.042 -0.2469 -0.0430 -0.2219
  123MOL    C8446688   1.229   2.208   5.057  0.3214 -0.5713 -0.3579
  123MOL    C8546689   1.446   2.317   5.048 -0.4804 -0.4227  0.4018
  123MOL    H8646690   1.072   2.735   4.654  0.0053  0.1645  0.5108
  123MOL    H8746691   1.028   2.738   4.822 -0.9197 -1.3239 -0.3163
  123MOL    H8846692   1.197   2.534   4.682  1.1335  2.7643  0.6166
  123MOL    H8946693   1.260   2.351   4.825  0.6233 -1.3991  0.5236
  123MOL    H9046694   1.252   2.408   5.116 -2.3614 -0.0022 -1.5552
  123MOL    H9146695   1.268   2.147   4.976 -0.8009  0.6847 -1.8849
  123MOL    H9246696   1.252   2.157   5.150 -0.6371 -0.5141 -0.0860
  123MOL    H9346697   1.122   2.223   5.041  0.5929  1.8884 -0.0059
  123MOL    H9446698   1.470   2.247   4.968  1.0986  1.4703 -0.8259
  123MOL    H9546699   1.477   2.263   5.137  2.3030  1.8708  0.9034
  123MOL    H9646700   1.502   2.410   5.032 -1.3114  0.0471  0.1596
  123MOL    C9746701   0.997   2.482   4.721  0.6758  0.1279 -0.2098
  123MOL    C9846702   0.993   2.322   4.726 -0.3262 -0.3095 -0.2520
  123MOL    C9946703   1.095   2.279   4.615  0.1349 -0.4946 -0.2805
  123MOL   O10046704   1.083   2.326   4.504 -0.7177  0.2414 -0.1107
  123MOL   N10146705   1.182   2.187   4.654 -0.4819 -0.1476 -0.2590
  123MOL   C10246706   1.297   2.131   4.573  0.7513  0.3971  0.7094
  123MOL   C10346707   1.397   2.071   4.678  0.7012 -0.0880  0.2151
  123MOL   C10446708   1.249   2.018   4.480 -0.6102  0.3059 -0.4781
  123MOL   H10546709   0.971   2.508   4.618  2.0686 -2.1692 -1.1826
  123MOL   H10646710   0.917   2.518   4.785 -0.2521  0.8365 -1.7371
  123MOL   H10746711   1.033   2.284   4.820  0.6655 -1.5004 -1.1373
  123MOL   H10846712   1.157   2.149   4.745 -1.6469  1.2439  0.0216
  123MOL   H10946713   1.338   2.217   4.520 -0.6588  0.7295  0.1275
  123MOL   H11046714   1.438   2.139   4.753  0.3695  0.4561 -0.0948
  123MOL   H11146715   1.358   1.978   4.719 -1.3549  0.1715 -1.0980
  123MOL   H11246716   1.487   2.040   4.625  0.5003 -1.2745  0.5526
  123MOL   H11346717   1.186   1.941   4.525  0.9995 -0.1138  1.1411
  123MOL   H11446718   1.339   1.971   4.441  0.6226  2.4510 -0.2999
  123MOL   H11546719   1.206   2.058   4.389  0.6521 -0.8268 -1.5921
  123MOL   C11646720   0.852   2.263   4.717  0.5626  1.1444 -0.1068
  123MOL   C11746721   0.838   2.112   4.692  0.5685 -0.2111  0.6493
  123MOL   C11846722   0.702   2.080   4.638 -0.0514  0.2510  0.3851
  123MOL   O11946723   0.608   2.128   4.699  0.1554 -0.1662  0.3976
  123MOL   N12046724   0.703   2.014   4.519  0.7442 -0.4783 -0.0221
  123MOL   C12146725   0.587   1.988   4.441  0.2780  0.0724 -0.3168
  123MOL   C12246726   0.616   2.011   4.294  0.1999 -0.2682 -0.0485
  123MOL   C12346727   0.539   1.840   4.466  0.1926  1.1671  0.1418
  123MOL   H12446728   0.797   2.313   4.637 -0.0626  0.6570  0.0146
  123MOL   H12546729   0.794   2.281   4.808 -1.4693 -2.6589 -0.5571
  123MOL   H12646730   0.909   2.086   4.613 -2.1222 -0.0609 -1.9232
  123MOL   H12746731   0.788   2.004   4.465  2.2616  0.4921  2.1417
  123MOL   H12846732   0.505   2.054   4.466  0.5623  0.1171  0.5095
  123MOL   H12946733   0.637   2.111   4.258  1.5077 -0.6126 -0.2823
  123MOL   H13046734   0.516   2.001   4.253  0.2773 -1.2505 -0.0144
  123MOL   H13146735   0.694   1.945   4.254 -0.5449 -1.0012 -0.3246
  123MOL   H13246736   0.437   1.823   4.433  0.4990  0.8746 -0.6695
  123MOL   H13346737   0.598   1.779   4.397 -2.7722  0.6637 -2.0441
  123MOL   H13446738   0.552   1.798   4.565  1.8220  2.6574  0.5849
  123MOL   C13546739   0.863   2.043   4.835  0.1514  0.3893  0.1908
  123MOL   C13646740   0.871   1.891   4.839  0.6422  0.4175  0.0717
  123MOL   C13746741   0.988   1.842   4.763 -0.2431 -0.8359  0.4265
  123MOL   O13846742   1.098   1.887   4.793  0.1115 -0.1024 -0.0536
  123MOL   N13946743   0.970   1.745   4.672 -0.3028 -0.4007  0.7041
  123MOL   C14046744   1.078   1.653   4.630  0.6534  0.5792 -0.4075
  123MOL   C14146745   1.075   1.648   4.478  0.4200  0.0887  0.0143
  123MOL   C14246746   1.072   1.515   4.692  0.1386 -0.1939 -0.0427
  123MOL   H14346747   0.774   2.073   4.890 -0.4469  0.4382 -0.8013
  123MOL   H14446748   0.949   2.079   4.893 -0.6046 -0.3967  1.8350
  123MOL   H14546749   0.792   1.830   4.796 -0.6629  1.0700  1.4546
  123MOL   H14646750   0.873   1.718   4.661 -0.0481 -1.9647  2.0381
  123MOL   H14746751   1.178   1.691   4.651  1.1262  0.9598 -3.1305
  123MOL   H14846752   1.141   1.576   4.430  0.3321 -1.6018  2.3295
  123MOL   H14946753   0.973   1.622   4.450 -0.3471  2.6171  0.3393
  123MOL   H15046754   1.100   1.745   4.435  2.6621 -1.3793 -2.0576
  123MOL   H15146755   1.164   1.459   4.676 -0.5785 -0.9439 -1.7222
  123MOL   H15246756   0.996   1.454   4.643 -0.2841 -1.0691  1.6621
  123MOL   H15346757   1.062   1.507   4.800  0.9893  0.3869  0.0828
  123MOL   C15446758   0.890   1.843   4.992  0.2362 -0.4255  0.6640
  123MOL   C15546759   0.887   1.690   5.028 -0.1319 -0.1177 -0.4613
  123MOL   C15646760   0.758   1.616   5.003  0.2804 -0.0894 -0.5735
  123MOL   O15746761   0.672   1.618   5.087 -0.1193  0.5446  0.3819
  123MOL   N15846762   0.757   1.543   4.890 -0.0739  1.0321  0.7483
  123MOL   C15946763   0.648   1.455   4.849 -0.6057  0.8240 -0.0955
  123MOL   C16046764   0.716   1.331   4.789  0.9515 -0.3480  0.1825
  123MOL   C16146765   0.547   1.524   4.753  0.0281  0.0101 -0.3512
  123MOL   H16246766   0.807   1.882   5.051  0.3808  0.1115  0.5128
  123MOL   H16346767   0.981   1.893   5.022  1.9224 -2.4912 -0.8587
  123MOL   H16446768   0.965   1.637   4.973  0.2189  0.4988 -0.5655
  123MOL   H16546769   0.834   1.557   4.826  0.1892 -1.7360  0.3945
  123MOL   H16646770   0.588   1.424   4.935  1.1287  0.6183  1.0787
  123MOL   H16746771   0.754   1.260   4.861 -2.3624 -1.1331  1.2781
  123MOL   H16846772   0.634   1.276   4.742  0.0941  1.0015  0.0635
  123MOL   H16946773   0.794   1.345   4.714  1.2314  0.1473  0.5702
  123MOL   H17046774   0.602   1.577   4.675  0.4470 -0.6118 -0.4826
  123MOL   H17146775   0.488   1.602   4.801  0.4735 -0.4101  0.9154
  123MOL   H17246776   0.480   1.446   4.716  0.2678 -1.0819  1.4672
  123MOL   C17346777   0.926   1.677   5.178 -0.1128 -0.0018  0.2437
  123MOL   C17446778   1.077   1.691   5.212 -0.1461 -0.1811 -0.4929
  123MOL   C17546779   1.123   1.813   5.293 -0.0821  0.0110  0.4711
  123MOL   O17646780   1.223   1.879   5.256 -0.0580  0.0589  0.4975
  123MOL   N17746781   1.057   1.832   5.411  0.2805 -0.2647  0.6209
  123MOL   C17846782   1.111   1.918   5.515  0.4669  0.1430  0.1448
  123MOL   C17946783   1.078   1.855   5.654  0.4639  0.3827 -0.3321
  123MOL   C18046784   1.055   2.062   5.502  0.3949 -0.3191  0.1833
  123MOL   H18146785   0.897   1.574   5.203  0.9905 -0.5384 -0.6355
  123MOL   H18246786   0.859   1.731   5.244 -1.5177 -0.0130 -1.1367
  123MOL   H18346787   1.130   1.680   5.117  1.6592 -0.2083  0.4763
  123MOL   H18446788   0.970   1.780   5.416 -0.0666  0.0827 -1.2275
  123MOL   H18546789   1.217   1.915   5.494  0.6897 -1.2583  1.3668
  123MOL   H18646790   1.096   1.749   5.637  0.2469  0.2108  0.4768
  123MOL   H18746791   0.976   1.875   5.687 -0.0180 -0.6793 -1.1533
  123MOL   H18846792   1.145   1.885   5.735  1.3736 -2.9102  0.2042
  123MOL   H18946793   1.084   2.097   5.403  0.8029  0.0939  0.4481
  123MOL   H19046794   1.089   2.125   5.584 -0.6098  0.7128 -0.1818
  123MOL   H19146795   0.947   2.047   5.513  0.2685 -2.1596 -3.0340
  123MOL   C19246796   1.122   1.563   5.289 -1.6658  0.8934  0.3970
  123MOL   C19346797   1.273   1.558   5.345  0.3475 -0.1095 -0.0682
  123MOL   C19446798   1.361   1.521   5.225 -0.2275 -0.5301 -0.0353
  123MOL   O19546799   1.381   1.405   5.196  0.7633  0.1142  0.1270
  123MOL   N19646800   1.405   1.625   5.156  0.2886 -0.6572  0.7431
  123MOL   C19746801   1.501   1.624   5.049  0.0515  0.3659  0.7450
  123MOL   C19846802   1.437   1.574   4.916 -0.3251 -0.2427  0.4071
  123MOL   C19946803   1.582   1.756   5.041 -0.0449 -0.6274  0.2048
  123MOL   H20046804   1.095   1.471   5.238 -0.4575  0.8293 -0.1449
  123MOL   H20146805   1.048   1.547   5.367  0.0528 -0.3169  1.7982
  123MOL   H20246806   1.301   1.656   5.384  0.8894 -0.2624 -0.0691
  123MOL   H20346807   1.374   1.713   5.193  0.1084 -0.2694 -0.3178
  123MOL   H20446808   1.572   1.542   5.059  0.7741  0.7972 -0.7817
  123MOL   H20546809   1.508   1.548   4.838 -1.7945 -1.1086 -0.6714
  123MOL   H20646810   1.369   1.647   4.872  1.0810  0.9034  0.1308
  123MOL   H20746811   1.390   1.477   4.934  1.1373 -0.8554  0.9832
  123MOL   H20846812   1.648   1.741   4.956 -0.9419  0.6451 -0.7448
  123MOL   H20946813   1.619   1.790   5.138 -2.5175 -0.2730  1.0606
  123MOL   H21046814   1.504   1.827   5.013  2.6510  3.4791  2.5220
  123MOL   C21146815   1.288   1.467   5.473 -0.3532 -0.3753 -0.0805
  123MOL   C21246816   1.404   1.494   5.570 -0.1212  0.9017  0.2348
  123MOL   C21346817   1.538   1.447   5.511  0.0560  0.3138 -0.3082
  123MOL   O21446818   1.608   1.527   5.449  0.1533 -0.9443  0.1476
  123MOL   N21546819   1.576   1.322   5.540 -0.1659 -0.4629 -0.2199
  123MOL   C21646820   1.701   1.262   5.499 -0.2169  0.0935  0.2849
  123MOL   C21746821   1.712   1.123   5.568  0.2808  0.7370 -0.3626
  123MOL   C21846822   1.832   1.342   5.521  0.5156  0.1693 -0.7744
  123MOL   H21946823   1.279   1.362   5.445 -1.8760  0.3567 -2.5560
  123MOL   H22046824   1.194   1.476   5.528  0.3173  0.3561  0.9638
  123MOL   H22146825   1.387   1.426   5.654 -0.9257 -2.2957 -2.4079
  123MOL   H22246826   1.507   1.266   5.587 -2.1639  0.8495 -1.5233
  123MOL   H22346827   1.692   1.246   5.392  2.3756 -0.4578  0.1134
  123MOL   H22446828   1.733   1.141   5.674 -1.3543  0.1057  0.0818
  123MOL   H22546829   1.622   1.063   5.556  0.9346 -0.9955  2.9073
  123MOL   H22646830   1.799   1.070   5.530 -0.2338  1.5821 -2.7993
  123MOL   H22746831   1.877   1.382   5.430 -2.4046 -1.2343 -2.8933
  123MOL   H22846832   1.914   1.286   5.567  0.6600  1.3528  0.4564
  123MOL   H22946833   1.812   1.423   5.592 -0.5212 -1.4017  0.7702
  123MOL   C23046834   1.416   1.649   5.612 -0.1685  0.0868  0.4686
  123MOL   C23146835   1.503   1.677   5.741  0.4819 -0.1840  0.1561
  123MOL   C23246836   1.610   1.780   5.710 -0.0798 -0.5177 -0.2123
  123MOL   O23346837   1.596   1.893   5.754  0.3011  0.3015  0.1052
  123MOL   N23446838   1.708   1.748   5.621  0.4060  0.4361  0.0565
  123MOL   C23546839   1.820   1.823   5.581  0.1039 -0.2402  0.6299
  123MOL   C23646840   1.918   1.832   5.700 -0.0896  0.0547  0.3824
  123MOL   C23746841   1.869   1.750   5.455 -0.4638 -0.9447 -0.1811
  123MOL   H23846842   1.318   1.692   5.634  0.4308  0.1114  3.2405
  123MOL   H23946843   1.447   1.707   5.525  2.9699  0.5799  1.8397
  123MOL   H24046844   1.563   1.589   5.762  1.0412  0.3604  0.8472
  123MOL   H24146845   1.696   1.664   5.567 -0.2936 -0.3699  1.4245
  123MOL   H24246846   1.773   1.918   5.555  2.5898  1.0373  0.6357
  123MOL   H24346847   1.947   1.740   5.750 -0.3260  0.3490  1.0600
  123MOL   H24446848   2.003   1.894   5.670 -0.5730  0.1217 -0.8962
  123MOL   H24546849   1.868   1.893   5.775 -2.2220 -1.6448  0.3903
  123MOL   H24646850   1.891   1.648   5.484  2.5270  0.1597  1.6729
  123MOL   H24746851   1.951   1.800   5.403 -0.3297  0.4246  1.3016
  123MOL   H24846852   1.793   1.744   5.377 -1.1154 -0.6037  0.4303
  123MOL   C24946853   1.410   1.706   5.859  0.2058  0.2818 -0.6552
  123MOL   C25046854   1.474   1.706   6.005 -0.0077 -0.7034  0.7296
  123MOL   C25146855   1.568   1.581   6.030  0.2933 -0.3380  0.8771
  123MOL   O25246856   1.523   1.470   6.022 -0.2080 -0.0263  0.6404
  123MOL   N25346857   1.697   1.606   6.039  0.2806  0.5210 -0.1147
  123MOL   C25446858   1.798   1.502   6.051  1.2610 -0.1711 -0.0392
  123MOL   C25546859   1.854   1.465   5.912  0.4856 -0.0931  0.3563
  123MOL   C25646860   1.914   1.544   6.148  0.0448 -0.6581  0.5133
  123MOL   H25746861   1.347   1.617   5.851  2.4765 -1.6396  1.7013
  123MOL   H25846862   1.357   1.798   5.838  3.4782  1.7310 -3.0727
  123MOL   H25946863   1.524   1.803   6.010  1.9164 -1.4534 -2.5735
  123MOL   H26046864   1.723   1.703   6.035 -0.8649  0.8481  0.1724
  123MOL   H26146865   1.753   1.415   6.099 -0.8398  1.6138  1.3552
  123MOL   H26246866   1.913   1.542   5.863  0.3981  0.6530  1.3924
  123MOL   H26346867   1.914   1.375   5.926 -1.5491 -1.2112  2.3221
  123MOL   H26446868   1.774   1.437   5.844  0.3639  0.5436  0.2352
  123MOL   H26546869   1.867   1.578   6.241  2.4325  1.5123  0.9816
  123MOL   H26646870   1.978   1.461   6.177  0.1587 -0.4671  0.8064
  123MOL   H26746871   1.978   1.619   6.101  0.8109 -1.5620  0.1070
  123MOL   C26846872   1.375   1.715   6.120 -0.1826  0.4750 -0.0360
  123MOL   C26946873   1.268   1.606   6.136  0.2904  0.2733 -0.4757
  123MOL   C27046874   1.272   1.526   6.273 -0.9790 -0.0828  0.6709
  123MOL   O27146875   1.181   1.531   6.363  0.9050  0.5758  0.5338
  123MOL   N27246876   1.388   1.458   6.287 -0.7132  0.0002  0.3928
  123MOL   C27346877   1.421   1.406   6.418 -0.2433 -0.4114  0.4196
  123MOL   C27446878   1.352   1.268   6.434 -0.4842 -0.7256 -0.2758
  123MOL   C27546879   1.571   1.414   6.451 -0.6552  0.6838 -0.1181
  123MOL   H27646880   1.418   1.713   6.221 -0.2754 -2.4000 -0.0126
  123MOL   H27746881   1.327   1.812   6.127 -1.2461  0.0580 -1.4535
  123MOL   H27846882   1.293   1.526   6.066  0.8805  0.5408 -0.5750
  123MOL   H27946883   1.452   1.446   6.210 -0.4561 -0.2551  0.6469
  123MOL   H28046884   1.369   1.468   6.491  1.4799  1.4517  0.1186
  123MOL   H28146885   1.390   1.226   6.527  1.2518  1.0791 -0.1314
  123MOL   H28246886   1.244   1.277   6.444 -0.5385 -1.4644 -0.1482
  123MOL   H28346887   1.364   1.197   6.352 -1.8614 -0.7114 -0.4942
  123MOL   H28446888   1.622   1.341   6.387  1.0466  1.5782  0.1886
  123MOL   H28546889   1.629   1.505   6.433  3.0036 -1.5327 -0.1137
  123MOL   H28646890   1.585   1.387   6.555 -3.1834  2.1200  0.6259
  123MOL   C28746891   1.122   1.668   6.107  0.4991  0.2619 -0.1126
  123MOL   C28846892   1.002   1.577   6.079 -0.7674 -0.0900 -0.8866
  123MOL   C28946893   1.023   1.516   5.938 -0.0683 -0.1647  0.4179
  123MOL   O29046894   1.025   1.587   5.834  0.1442 -0.4295  0.3378
  123MOL   N29146895   1.043   1.381   5.938 -0.3982  0.0907  0.5381
  123MOL   C29246896   1.105   1.313   5.825 -0.4431 -0.7025 -0.2387
  123MOL   C29346897   1.245   1.282   5.870  0.0483 -0.2663  0.6413
  123MOL   C29446898   1.038   1.189   5.771  0.8503  0.3975 -0.2089
  123MOL   H29546899   1.097   1.721   6.199  0.2854  3.6808 -2.0509
  123MOL   H29646900   1.128   1.743   6.028 -2.2240 -0.4527 -1.0512
  123MOL   H29746901   1.008   1.498   6.154  0.6104  1.2464  0.4210
  123MOL   H29846902   1.042   1.331   6.026  1.1195  0.3110  0.6872
  123MOL   H29946903   1.114   1.376   5.737 -0.7776 -0.0660  0.1816
  123MOL   H30046904   1.259   1.209   5.950  1.2982 -0.9249 -0.1548
  123MOL   H30146905   1.301   1.236   5.788 -0.3121  0.8565 -0.2487
  123MOL   H30246906   1.288   1.377   5.901  1.3151  0.0283 -1.8495
  123MOL   H30346907   0.943   1.221   5.728  1.3395 -0.9474 -2.3637
  123MOL   H30446908   1.097   1.138   5.696 -1.5660 -0.0696 -1.8627
  123MOL   H30546909   1.023   1.112   5.847  0.9752 -0.1163 -0.7040
  123MOL   C30646910   0.867   1.646   6.088  0.3361  0.0713 -0.3111
  123MOL   C30746911   0.817   1.677   6.231  0.5304  0.3736 -0.1949
  123MOL   C30846912   0.765   1.545   6.278 -0.4335 -0.1652 -0.4637
  123MOL   O30946913   0.657   1.498   6.231  0.2496  0.6240 -0.3270
  123MOL   N31046914   0.836   1.484   6.371 -0.2159 -0.1742 -0.0733
  123MOL   C31146915   0.797   1.358   6.430 -1.4115  0.7833  0.2283
  123MOL   C31246916   0.923   1.310   6.511 -0.4411  0.0514  0.7016
  123MOL   C31346917   0.669   1.362   6.518 -0.0263  0.5423 -0.4551
  123MOL   H31446918   0.873   1.733   6.023  0.1721 -0.9284 -1.6693
  123MOL   H31546919   0.787   1.590   6.042 -0.6114 -0.4805  1.9190
  123MOL   H31646920   0.899   1.708   6.295 -1.8456 -1.3868  3.9307
  123MOL   H31746921   0.928   1.520   6.388  0.1293 -0.3010 -1.6127
  123MOL   H31846922   0.781   1.292   6.345  4.9600 -0.9633  0.1454
  123MOL   H31946923   0.927   1.363   6.606 -0.7477 -3.5978  2.8627
  123MOL   H32046924   1.017   1.319   6.456 -0.3966 -0.5771  0.6659
  123MOL   H32146925   0.907   1.206   6.540 -0.2459  0.2050  1.3673
  123MOL   H32246926   0.585   1.361   6.448  1.2443  0.2049 -1.9868
  123MOL   H32346927   0.670   1.453   6.578  2.5748  0.7046 -0.7087
  123MOL   H32446928   0.648   1.278   6.584 -1.0228  0.8608 -0.3531
  123MOL   C32546929   0.706   1.783   6.230 -0.0731  1.3670  0.6884
  123MOL   C32646930   0.654   1.839   6.366  0.6543 -0.9225  0.5503
  123MOL   C32746931   0.551   1.763   6.441 -0.2493 -0.9532 -0.3278
  123MOL   O32846932   0.536   1.780   6.563 -0.4986  0.7256 -0.1069
  123MOL   N32946933   0.474   1.677   6.373  0.6918 -0.1887 -0.0542
  123MOL   C33046934   0.362   1.605   6.416  0.2312  0.8502  0.4151
  123MOL   C33146935   0.338   1.480   6.327 -0.1780 -0.9546  0.6747
  123MOL   C33246936   0.239   1.700   6.424  0.4193 -0.1855  0.0534
  123MOL   H33346937   0.620   1.743   6.177  1.1612  0.9955 -1.0549
  123MOL   H33446938   0.738   1.854   6.153 -1.5946  1.9124  0.5241
  123MOL   H33546939   0.608   1.935   6.343  1.6581 -0.3670  0.7844
  123MOL   H33646940   0.512   1.648   6.284 -0.7866 -1.3544 -0.3366
  123MOL   H33746941   0.378   1.571   6.518 -1.0880 -0.2961  0.2581
  123MOL   H33846942   0.238   1.440   6.344 -0.1478 -1.8018 -1.0789
  123MOL   H33946943   0.344   1.511   6.223  0.2463 -0.0595  0.9614
  123MOL   H34046944   0.413   1.403   6.342 -0.4330 -1.0186  1.7321
  123MOL   H34146945   0.265   1.790   6.480  0.7887 -0.3267  0.1106
  123MOL   H34246946   0.168   1.660   6.496 -0.9232 -2.2412 -2.3058
  123MOL   H34346947   0.193   1.738   6.332  1.2092  1.3777  0.2900
  123MOL   C34446948   0.773   1.884   6.450  0.1830  0.6388 -0.5988
  123MOL   C34546949   0.857   2.000   6.389  0.2112  0.3091  0.7794
  123MOL   C34646950   0.779   2.131   6.372  0.2852 -0.3539 -0.4850
  123MOL   O34746951   0.767   2.210   6.467 -0.6013  0.5011  0.4590
  123MOL   N34846952   0.720   2.144   6.251  0.3787  0.0574  0.4179
  123MOL   C34946953   0.644   2.252   6.202  0.1790 -0.0905  0.2858
  123MOL   C35046954   0.689   2.293   6.061 -0.2248 -0.3084  0.2526
  123MOL   C35146955   0.492   2.224   6.202  0.4300 -0.3618 -0.0494
  123MOL   H35246956   0.836   1.798   6.472  1.5114  1.6017 -0.6378
  123MOL   H35346957   0.736   1.918   6.547 -0.3921  0.8756 -0.8968
  123MOL   H35446958   0.896   1.957   6.296 -0.1086  0.5731  0.5260
  123MOL   H35546959   0.731   2.076   6.177 -0.9232  1.4248 -1.0582
  123MOL   H35646960   0.669   2.342   6.259 -0.4561 -0.2853  0.8786
  123MOL   H35746961   0.794   2.320   6.066 -0.7567  1.5190  1.9487
  123MOL   H35846962   0.675   2.214   5.987 -0.0364  1.1787 -1.4180
  123MOL   H35946963   0.640   2.387   6.035  0.9204  0.8104  2.0146
  123MOL   H36046964   0.466   2.131   6.152  1.7108  1.2207 -3.8170
  123MOL   H36146965   0.463   2.211   6.306 -3.9329  0.8016 -1.0125
  123MOL   H36246966   0.431   2.299   6.151  0.8364  0.3857  0.5383
  123MOL   C36346967   0.978   2.025   6.468 -0.4926  0.1206  0.3152
  123MOL   C36446968   1.082   2.122   6.400 -0.1738 -0.3436 -0.0895
  123MOL   C36546969   1.144   2.069   6.267 -0.0742  0.8011 -0.3479
  123MOL   O36646970   1.210   1.961   6.275 -0.8201 -0.1763  0.1620
  123MOL   N36746971   1.109   2.120   6.151  0.8087  0.0616  0.0143
  123MOL   C36846972   1.126   2.058   6.017  0.6843  0.4962 -0.3648
  123MOL   C36946973   0.987   2.048   5.948 -0.1927 -0.1740  0.2501
  123MOL   C37046974   1.235   2.123   5.933 -0.5430 -0.2137 -0.4048
  123MOL   H37146975   1.023   1.927   6.488  0.6001  0.7212  0.8587
  123MOL   H37246976   0.961   2.068   6.566 -2.5069 -1.3768  0.6543
  123MOL   H37346977   1.175   2.129   6.457 -0.3758 -1.0046  0.3138
  123MOL   H37446978   1.061   2.208   6.146  1.9613  0.8037  1.9527
  123MOL   H37546979   1.160   1.954   6.023 -0.1673  0.2652  0.6309
  123MOL   H37646980   0.933   1.957   5.972 -1.4272  0.1577 -1.1979
  123MOL   H37746981   0.917   2.126   5.979  0.0393  0.5802 -1.0815
  123MOL   H37846982   1.002   2.044   5.840 -2.9412  3.6060 -0.3630
  123MOL   H37946983   1.322   2.139   5.996  0.1095 -0.1782 -1.3168
  123MOL   H38046984   1.262   2.076   5.838 -1.0141  0.2581 -0.7773
  123MOL   H38146985   1.197   2.220   5.903  0.9874  0.5742  0.1981
  123MOL   H38246986   1.045   2.225   6.394 -1.3121 -0.8382 -1.9384
  124MOL     C146987   2.110   3.151   3.859 -0.0890  0.0757 -0.7375
  124MOL     C246988   2.212   3.042   3.835 -0.1600 -0.0595  0.7181
  124MOL     C346989   2.359   3.091   3.855  0.1846 -0.0044  0.1150
  124MOL     O446990   2.394   3.127   3.966 -0.4450  0.3034  0.4405
  124MOL     N546991   2.443   3.092   3.745  0.2754 -0.1051 -0.2234
  124MOL     C646992   2.591   3.121   3.748  0.2614 -0.8627 -0.1169
  124MOL     C746993   2.661   2.990   3.704 -0.1400  0.3602 -0.4938
  124MOL     C846994   2.629   3.235   3.654 -0.1240 -0.2796 -0.4626
  124MOL     H946995   2.108   3.232   3.787  0.2744 -0.0567 -0.8959
  124MOL    H1046996   2.116   3.206   3.953 -2.8646 -1.3365  0.3257
  124MOL    H1146997   2.203   3.014   3.730 -3.2033  0.6377  0.7530
  124MOL    H1246998   2.404   3.087   3.652 -0.0325  1.6252 -0.2035
  124MOL    H1346999   2.618   3.150   3.850 -0.4859  2.6018 -0.8443
  124MOL    H1447000   2.768   2.992   3.726  0.0680 -0.1452 -1.4428
  124MOL    H1547001   2.643   2.967   3.599 -1.6202 -0.6473 -0.0425
  124MOL    H1647002   2.627   2.906   3.765  2.6273 -1.3992 -1.3095
  124MOL    H1747003   2.590   3.329   3.693  1.9100  0.6545 -0.6332
  124MOL    H1847004   2.735   3.256   3.664 -0.3114 -0.4491  2.3473
  124MOL    H1947005   2.615   3.209   3.549  1.7714 -2.6693 -0.1726
  124MOL    H2047006   2.008   3.113   3.852 -0.9555  2.7586 -3.4780
  124MOL    C2147007   2.167   2.919   3.921 -0.6161  0.5170  0.1819
  124MOL    C2247008   2.261   2.797   3.915  0.0447  0.0125 -0.2638
  124MOL    C2347009   2.256   2.722   3.783 -0.1380 -0.8131  0.1908
  124MOL    O2447010   2.166   2.647   3.753 -0.3398 -0.5907 -0.2219
  124MOL    N2547011   2.360   2.750   3.707 -0.2025  0.3807 -0.0577
  124MOL    C2647012   2.368   2.715   3.564  0.0098  0.1337 -0.5158
  124MOL    C2747013   2.509   2.656   3.542  0.7725 -0.2934  0.0420
  124MOL    C2847014   2.357   2.843   3.484 -0.4478 -0.5917 -0.2209
  124MOL    H2947015   2.070   2.879   3.889 -0.1448 -0.2284 -0.3314
  124MOL    H3047016   2.156   2.965   4.020 -0.8545 -1.1369  0.9439
  124MOL    H3147017   2.364   2.818   3.946 -0.1936 -1.5600  1.7506
  124MOL    H3247018   2.433   2.809   3.744 -1.0715  1.6947 -0.4289
  124MOL    H3347019   2.294   2.639   3.540  0.0094 -0.5139  1.4411
  124MOL    H3447020   2.520   2.649   3.434  1.5272 -0.5477  0.1334
  124MOL    H3547021   2.513   2.553   3.579  0.7956 -0.5875 -0.7679
  124MOL    H3647022   2.590   2.710   3.591  1.7070  0.4576 -2.2732
  124MOL    H3747023   2.330   2.812   3.383  2.1943 -1.6772 -0.6434
  124MOL    H3847024   2.277   2.908   3.519  1.3827  1.0786  0.9541
  124MOL    H3947025   2.457   2.886   3.490 -1.3354  1.3105  1.5777
  124MOL    C4047026   2.219   2.702   4.033 -0.3182  0.0718 -0.1977
  124MOL    C4147027   2.259   2.756   4.173 -0.3175 -0.1270  0.5423
  124MOL    C4247028   2.418   2.755   4.183  0.2078 -0.2249  0.2203
  124MOL    O4347029   2.485   2.669   4.124 -0.1833  0.1080 -0.6152
  124MOL    N4447030   2.480   2.850   4.254  0.5398  0.2415  0.8162
  124MOL    C4547031   2.618   2.879   4.254  0.5010  0.5920  0.0633
  124MOL    C4647032   2.668   2.959   4.133 -0.8170  1.0104 -0.4601
  124MOL    C4747033   2.658   2.935   4.389 -0.1348 -0.2845 -0.8397
  124MOL    H4847034   2.254   2.600   4.019 -0.0746  0.3725 -1.9675
  124MOL    H4947035   2.110   2.700   4.036 -0.3460 -0.3459 -1.0643
  124MOL    H5047036   2.224   2.857   4.191  1.2352  0.7408 -1.1770
  124MOL    H5147037   2.427   2.923   4.300  1.0741  0.4323  1.1313
  124MOL    H5247038   2.675   2.786   4.257 -0.3257  0.1145  2.0726
  124MOL    H5347039   2.773   2.982   4.153 -0.1968 -1.4185 -0.7079
  124MOL    H5447040   2.616   3.054   4.130  0.2150  1.5651 -1.0245
  124MOL    H5547041   2.649   2.903   4.042 -1.6133 -0.9886  0.9018
  124MOL    H5647042   2.603   3.028   4.406  0.2167  0.2707 -2.7052
  124MOL    H5747043   2.762   2.965   4.396 -0.2163  0.5425 -3.0583
  124MOL    H5847044   2.628   2.876   4.476 -0.7275  0.1814 -0.7278
  124MOL    C5947045   2.193   2.657   4.270  0.2396 -0.0388  0.4364
  124MOL    C6047046   2.211   2.684   4.420 -0.4848  0.4461 -0.2192
  124MOL    C6147047   2.191   2.550   4.488 -0.8150  0.0306 -0.5069
  124MOL    O6247048   2.081   2.514   4.529 -0.0361  0.3832  0.1889
  124MOL    N6347049   2.292   2.469   4.492  0.1791  0.3628  0.2493
  124MOL    C6447050   2.295   2.347   4.573  0.0960  0.4774  0.0855
  124MOL    C6547051   2.252   2.233   4.483 -0.6295 -0.1603 -0.4239
  124MOL    C6647052   2.434   2.321   4.636 -0.4381  0.1187  0.0175
  124MOL    H6747053   2.086   2.640   4.262  0.1968 -0.2905  1.4798
  124MOL    H6847054   2.227   2.557   4.243  0.7109  0.1093  0.4855
  124MOL    H6947055   2.314   2.709   4.445 -0.0181 -1.0230 -0.5944
  124MOL    H7047056   2.381   2.490   4.447 -0.3727 -1.0295 -1.5478
  124MOL    H7147057   2.231   2.355   4.661 -0.3557  3.5457 -0.4810
  124MOL    H7247058   2.265   2.139   4.537 -0.9832  0.6196  1.0597
  124MOL    H7347059   2.144   2.237   4.470 -0.4329 -0.4163 -2.2536
  124MOL    H7447060   2.285   2.206   4.383 -4.2705 -3.0789 -0.9570
  124MOL    H7547061   2.471   2.406   4.693  0.4112 -1.1364  1.3563
  124MOL    H7647062   2.442   2.241   4.709  1.7923  0.3184  0.0456
  124MOL    H7747063   2.505   2.300   4.556  0.8451 -0.5423  1.3069
  124MOL    C7847064   2.130   2.803   4.481  0.7429  0.5520  0.7555
  124MOL    C7947065   2.173   2.846   4.623 -0.5553 -0.4346  0.4702
  124MOL    C8047066   2.314   2.917   4.622 -0.4069  0.3575 -0.2580
  124MOL    O8147067   2.340   2.996   4.531  0.6561  0.0873  0.3609
  124MOL    N8247068   2.402   2.890   4.723  0.2735 -0.1552 -0.2952
  124MOL    C8347069   2.520   2.968   4.748  0.5586  0.2451 -0.7561
  124MOL    C8447070   2.491   3.040   4.885  0.6456  0.4292  0.3696
  124MOL    C8547071   2.635   2.866   4.774 -0.4950 -0.8365  0.8167
  124MOL    H8647072   2.028   2.764   4.478  0.7035  0.6172  1.1724
  124MOL    H8747073   2.138   2.885   4.410  0.7081  1.9741  2.3656
  124MOL    H8847074   2.172   2.760   4.690  0.9022  0.0699  1.1514
  124MOL    H8947075   2.378   2.828   4.798 -3.5198  1.4288 -0.0945
  124MOL    H9047076   2.546   3.034   4.665 -1.7518  2.0846 -0.0829
  124MOL    H9147077   2.450   3.140   4.867  0.9725  0.3547 -0.8062
  124MOL    H9247078   2.433   2.982   4.957  0.8609 -2.4575 -1.7119
  124MOL    H9347079   2.587   3.056   4.933  0.7309 -0.0447  0.3587
  124MOL    H9447080   2.660   2.810   4.685 -1.2313  1.0851 -0.6307
  124MOL    H9547081   2.602   2.798   4.853 -0.1067 -2.1286 -0.1234
  124MOL    H9647082   2.722   2.923   4.809 -0.3137 -0.4820 -0.2143
  124MOL    C9747083   2.071   2.950   4.674 -0.1720  0.5091 -0.0232
  124MOL    C9847084   2.081   2.990   4.825 -0.6207  0.1512 -0.7515
  124MOL    C9947085   2.100   2.879   4.927 -0.3111  0.2752 -0.4557
  124MOL   O10047086   2.198   2.874   5.000  0.1469  0.1066  0.1205
  124MOL   N10147087   2.013   2.772   4.923 -0.1975 -0.0293  0.0109
  124MOL   C10247088   2.035   2.643   4.983  0.3088  0.2429 -0.0537
  124MOL   C10347089   1.926   2.547   4.920 -0.1636 -0.0524 -0.0650
  124MOL   C10447090   2.171   2.579   4.954  0.1477 -0.5171 -0.1054
  124MOL   H10547091   1.974   2.901   4.660  0.4498 -0.6389 -0.3831
  124MOL   H10647092   2.074   3.043   4.618 -2.4843  1.6313  1.6115
  124MOL   H10747093   2.180   3.036   4.831 -0.0940 -1.1637  1.0616
  124MOL   H10847094   1.941   2.765   4.852  0.3730  0.6532 -0.6506
  124MOL   H10947095   2.022   2.653   5.091  0.3442 -2.8306  0.2971
  124MOL   H11047096   1.834   2.602   4.940 -0.6798 -0.2405 -1.8235
  124MOL   H11147097   1.949   2.524   4.816  0.0882  0.8866 -0.2253
  124MOL   H11247098   1.939   2.456   4.979 -2.7504 -0.7158 -0.4687
  124MOL   H11347099   2.254   2.640   4.989 -0.0710  0.1176 -0.6774
  124MOL   H11447100   2.182   2.553   4.849 -1.6494 -1.2479 -0.1210
  124MOL   H11547101   2.182   2.487   5.012  0.4474 -0.3697  0.0738
  124MOL   C11647102   1.969   3.089   4.855 -0.3356  0.0330 -0.3447
  124MOL   C11747103   1.994   3.195   4.960  0.3233 -0.6791  0.1448
  124MOL   C11847104   1.867   3.231   5.031 -0.0603 -0.8422  0.1906
  124MOL   O11947105   1.777   3.287   4.961  0.3261  0.3158  0.1816
  124MOL   N12047106   1.844   3.191   5.156  0.7034 -0.3031 -0.3154
  124MOL   C12147107   1.727   3.219   5.236  0.0569 -0.3389  0.0806
  124MOL   C12247108   1.602   3.161   5.183  0.5370 -0.6301 -0.2293
  124MOL   C12347109   1.746   3.167   5.384 -0.3062  0.5525  0.1587
  124MOL   H12447110   1.882   3.038   4.896 -0.8716  1.4438  0.3165
  124MOL   H12547111   1.919   3.128   4.767 -2.1257  0.4320  0.8365
  124MOL   H12647112   2.057   3.149   5.036 -0.3992  0.9533  1.7602
  124MOL   H12747113   1.910   3.128   5.200  0.6748 -0.3103 -0.2833
  124MOL   H12847114   1.721   3.327   5.249  0.0337 -0.3290 -0.0119
  124MOL   H12947115   1.527   3.139   5.259 -0.5416  1.9076 -0.4973
  124MOL   H13047116   1.622   3.073   5.122  2.4202 -0.1727 -0.2965
  124MOL   H13147117   1.548   3.235   5.123 -0.2146 -1.4279 -0.5454
  124MOL   H13247118   1.659   3.189   5.446  1.7956  0.1286  3.3295
  124MOL   H13347119   1.763   3.060   5.388  0.3594  0.6721  0.4228
  124MOL   H13447120   1.831   3.220   5.427  0.0426 -0.1256  0.3111
  124MOL   C13547121   2.069   3.315   4.907 -0.3840 -0.2337  0.4439
  124MOL   C13647122   1.996   3.423   4.810  0.1351 -0.7995 -0.1792
  124MOL   C13747123   1.964   3.549   4.891  0.3885  0.0812  0.2420
  124MOL   O13847124   2.052   3.632   4.898 -0.0689  0.0873 -0.2649
  124MOL   N13947125   1.847   3.563   4.945  0.4133 -0.6059 -0.3137
  124MOL   C14047126   1.800   3.660   5.046  0.3761 -0.3912 -0.0010
  124MOL   C14147127   1.670   3.610   5.110 -0.5892 -0.3419 -0.6864
  124MOL   C14247128   1.775   3.797   4.977 -0.2197 -0.3221 -0.1070
  124MOL   H14347129   2.172   3.306   4.871  0.3787  1.4698  2.0930
  124MOL   H14447130   2.092   3.379   4.992 -1.9334  0.9799 -0.0251
  124MOL   H14547131   1.898   3.381   4.783 -0.1280 -0.0529 -0.3870
  124MOL   H14647132   1.786   3.483   4.936  1.3541 -1.6544  2.0232
  124MOL   H14747133   1.878   3.678   5.120 -1.4388  0.0549  1.8704
  124MOL   H14847134   1.605   3.566   5.034 -2.8696  0.8127  0.5534
  124MOL   H14947135   1.685   3.536   5.189  0.9612  0.8687  0.1823
  124MOL   H15047136   1.606   3.685   5.157 -0.4790 -0.8352  0.2659
  124MOL   H15147137   1.749   3.883   5.038  0.5895 -0.2097  0.0901
  124MOL   H15247138   1.694   3.788   4.904 -0.0314 -1.6652 -0.1664
  124MOL   H15347139   1.859   3.829   4.914  1.5344 -2.2772  1.1655
  124MOL   C15447140   2.053   3.450   4.674  0.1331 -0.0682 -0.2017
  124MOL   C15547141   1.975   3.550   4.579  0.0705  0.1791 -0.8927
  124MOL   C15647142   1.842   3.486   4.533  0.1157  0.9158  0.4138
  124MOL   O15747143   1.844   3.406   4.442 -0.1919  0.3503  0.2528
  124MOL   N15847144   1.733   3.524   4.599  0.3356  0.5703 -0.0693
  124MOL   C15947145   1.595   3.468   4.604  0.3565  0.4483  1.1197
  124MOL   C16047146   1.496   3.581   4.630  0.4414 -0.7552 -0.5366
  124MOL   C16147147   1.575   3.366   4.716 -0.2977  0.0197 -0.1237
  124MOL   H16247148   2.077   3.356   4.624 -0.4758  0.4616 -1.5155
  124MOL   H16347149   2.157   3.483   4.686  0.6206 -1.2195 -1.1858
  124MOL   H16447150   1.942   3.642   4.628  0.3028  0.8057 -1.8851
  124MOL   H16547151   1.757   3.578   4.681  1.4118  0.0132 -0.0119
  124MOL   H16647152   1.571   3.420   4.509 -1.9951  1.3646  1.1960
  124MOL   H16747153   1.538   3.621   4.722 -1.2533  2.8017 -1.2344
  124MOL   H16847154   1.505   3.664   4.560 -0.2192  0.4214  0.7714
  124MOL   H16947155   1.393   3.550   4.647  1.0683 -1.1367  2.9845
  124MOL   H17047156   1.586   3.416   4.812 -0.5379  0.5832 -0.3835
  124MOL   H17147157   1.641   3.280   4.729 -2.0141 -0.8572  3.2037
  124MOL   H17247158   1.471   3.335   4.716 -0.2818 -0.0420 -0.9329
  124MOL   C17347159   2.062   3.587   4.455  0.1104  0.6833  0.2498
  124MOL   C17447160   2.010   3.705   4.370  0.4557 -0.4072 -0.2797
  124MOL   C17547161   1.998   3.839   4.454 -0.5896  0.4033  0.0152
  124MOL   O17647162   2.097   3.866   4.524 -0.3632  0.5714  0.2216
  124MOL   N17747163   1.883   3.903   4.466 -0.2656  0.4152  0.1226
  124MOL   C17847164   1.851   4.012   4.555  0.2911 -0.2412 -0.2435
  124MOL   C17947165   1.844   3.959   4.696 -0.8091 -0.7007  0.4815
  124MOL   C18047166   1.726   4.084   4.501 -0.5414  0.1344  0.1978
  124MOL   H18147167   2.089   3.498   4.398 -0.5728  0.7977 -0.2587
  124MOL   H18247168   2.151   3.619   4.509  0.5263 -0.5760  0.3301
  124MOL   H18347169   1.913   3.666   4.339 -0.1688  0.8486  0.0460
  124MOL   H18447170   1.817   3.879   4.393 -0.5618 -1.8500  1.0712
  124MOL   H18547171   1.930   4.085   4.541  1.0285 -1.0391 -0.2677
  124MOL   H18647172   1.814   4.039   4.762 -0.4424 -1.6706  1.8420
  124MOL   H18747173   1.936   3.911   4.730  0.4522 -0.3273 -2.1999
  124MOL   H18847174   1.766   3.886   4.715 -1.0558 -0.5104  0.2072
  124MOL   H18947175   1.735   4.106   4.395  2.2846 -0.7563  0.1993
  124MOL   H19047176   1.705   4.170   4.565 -1.2729 -0.0927  0.2630
  124MOL   H19147177   1.642   4.016   4.515 -1.7998  0.7273 -3.9052
  124MOL   C19247178   2.094   3.746   4.252 -0.5944 -0.3274  0.0503
  124MOL   C19347179   2.020   3.826   4.139 -0.5649 -0.0123 -0.9379
  124MOL   C19447180   1.899   3.751   4.099  0.2376  0.8444  0.5532
  124MOL   O19547181   1.788   3.790   4.140  0.4309 -0.2924 -0.2625
  124MOL   N19647182   1.917   3.646   4.019  0.3674 -0.3373 -0.6010
  124MOL   C19747183   1.816   3.557   3.963  0.0523  0.5291  0.1911
  124MOL   C19847184   1.872   3.486   3.835  0.1960 -0.1058 -0.6840
  124MOL   C19947185   1.783   3.449   4.070  0.7014 -0.1679 -0.7446
  124MOL   H20047186   2.129   3.651   4.212 -0.3291 -0.9507  1.7194
  124MOL   H20147187   2.186   3.795   4.284 -1.1624  1.5316 -1.0684
  124MOL   H20247188   1.991   3.919   4.187 -0.2764 -0.5973  0.4017
  124MOL   H20347189   2.016   3.627   4.013  0.7337  0.2993  2.2879
  124MOL   H20447190   1.723   3.613   3.951  2.3146  4.1611 -1.2582
  124MOL   H20547191   1.976   3.454   3.842  0.3129  0.3076 -0.4994
  124MOL   H20647192   1.860   3.545   3.743 -1.8251 -0.6309 -0.7800
  124MOL   H20747193   1.814   3.401   3.800 -0.7766  0.3329 -0.1533
  124MOL   H20847194   1.859   3.384   4.114  1.5597  0.0271 -1.9098
  124MOL   H20947195   1.703   3.390   4.025  1.0478 -0.3036 -1.1954
  124MOL   H21047196   1.748   3.507   4.155  0.0355  0.0964 -1.2042
  124MOL   C21147197   2.107   3.869   4.018 -0.5925  0.0722 -0.2714
  124MOL   C21247198   2.046   3.991   3.941 -0.7121  0.1475  0.5290
  124MOL   C21347199   2.101   4.125   3.996  0.4718  0.3980  0.3449
  124MOL   O21447200   2.213   4.152   3.969 -0.1649 -0.3575  0.1743
  124MOL   N21547201   2.022   4.201   4.071 -0.6012  0.2631  0.2371
  124MOL   C21647202   2.068   4.329   4.126  0.1783  0.0539 -0.0170
  124MOL   C21747203   2.010   4.336   4.266 -0.4027  0.4672  0.6136
  124MOL   C21847204   2.004   4.445   4.048 -0.1283 -0.0968  0.2550
  124MOL   H21947205   2.122   3.787   3.948  1.3576 -0.1147  0.3172
  124MOL   H22047206   2.206   3.894   4.057 -0.3344  0.6011 -1.2230
  124MOL   H22147207   1.939   3.989   3.960 -0.6545  2.7557  1.1999
  124MOL   H22247208   1.927   4.173   4.092 -0.6970  1.1730  1.0341
  124MOL   H22347209   2.176   4.343   4.133  0.4768 -1.7259 -0.9405
  124MOL   H22447210   2.055   4.251   4.317  1.2630 -0.2858 -2.0231
  124MOL   H22547211   2.020   4.436   4.307 -1.5148  0.6272  0.5112
  124MOL   H22647212   1.910   4.292   4.268 -1.1243  2.0133 -0.8223
  124MOL   H22747213   1.899   4.441   4.075  0.2340 -0.1213  1.7461
  124MOL   H22847214   2.014   4.423   3.942 -1.8906  0.5528 -0.0628
  124MOL   H22947215   2.049   4.542   4.069 -1.3807  0.1233  1.9771
  124MOL   C23047216   2.062   3.983   3.790 -0.6640 -0.0619 -0.4653
  124MOL   C23147217   1.955   3.893   3.722 -0.4016  0.1623  0.2144
  124MOL   C23247218   1.820   3.969   3.725  0.0840  0.1853  0.2819
  124MOL   O23347219   1.811   4.078   3.664  0.3578 -0.1452 -0.7612
  124MOL   N23447220   1.724   3.920   3.808 -0.2439 -0.0963  0.7372
  124MOL   C23547221   1.603   3.994   3.845  0.1963 -0.0428 -0.4482
  124MOL   C23647222   1.508   3.888   3.899 -0.5733  0.4356 -0.3405
  124MOL   C23747223   1.624   4.104   3.947 -0.5629 -0.3054  0.8467
  124MOL   H23847224   2.157   3.947   3.752 -1.4065 -0.4763 -1.9895
  124MOL   H23947225   2.062   4.079   3.739 -1.8034 -1.2169 -2.7380
  124MOL   H24047226   1.954   3.791   3.761  1.5226  0.0972  0.1361
  124MOL   H24147227   1.741   3.837   3.862 -1.1126 -1.5480 -1.1585
  124MOL   H24247228   1.559   4.039   3.756  0.5412  1.4863  0.1353
  124MOL   H24347229   1.476   3.822   3.818 -2.0396  1.7506 -0.8357
  124MOL   H24447230   1.561   3.839   3.981  0.7222  1.8183 -0.3469
  124MOL   H24547231   1.418   3.932   3.941 -0.2160 -1.0417  2.0677
  124MOL   H24647232   1.696   4.171   3.901 -1.0319  0.2844  0.9717
  124MOL   H24747233   1.676   4.066   4.035  0.5580  0.8696  0.7003
  124MOL   H24847234   1.530   4.153   3.973 -0.7433  0.6994 -1.5821
  124MOL   C24947235   1.994   3.880   3.570 -0.0510 -0.2428 -0.2396
  124MOL   C25047236   1.891   3.822   3.465 -0.1023 -0.3094 -0.3728
  124MOL   C25147237   1.844   3.682   3.494  0.1249 -0.2762 -0.1852
  124MOL   O25247238   1.928   3.591   3.501  0.3816  0.4743  0.2871
  124MOL   N25347239   1.712   3.660   3.492 -0.3194  0.1340  0.0177
  124MOL   C25447240   1.636   3.546   3.534 -0.5490  0.0754  0.1140
  124MOL   C25547241   1.529   3.587   3.631 -0.1579  0.6436 -0.6396
  124MOL   C25647242   1.577   3.476   3.409 -0.4351 -0.0886 -0.5741
  124MOL   H25747243   2.089   3.828   3.562 -1.3494 -2.6195 -0.5700
  124MOL   H25847244   2.010   3.984   3.544 -1.1722 -0.5226 -2.0952
  124MOL   H25947245   1.803   3.886   3.469  0.6539  0.6805  0.6294
  124MOL   H26047246   1.658   3.741   3.462  1.5535  0.8539 -1.5852
  124MOL   H26147247   1.702   3.474   3.582 -0.0190  0.0838 -0.5879
  124MOL   H26247248   1.497   3.502   3.691  2.0072 -2.1042 -3.2509
  124MOL   H26347249   1.564   3.665   3.699 -0.2076  0.9890 -1.0114
  124MOL   H26447250   1.441   3.631   3.583 -1.4875 -0.4587  0.7606
  124MOL   H26547251   1.516   3.548   3.354 -1.1766  1.2893  1.9350
  124MOL   H26647252   1.652   3.447   3.336  1.1166 -1.6537  1.5749
  124MOL   H26747253   1.517   3.387   3.430  1.5548 -1.2367  0.3984
  124MOL   C26847254   1.948   3.845   3.324 -1.1811  0.0440  0.0516
  124MOL   C26947255   1.904   3.752   3.205 -0.0572  0.0437  0.5968
  124MOL   C27047256   1.760   3.785   3.158  0.2354 -0.2931 -0.4253
  124MOL   O27147257   1.715   3.892   3.193 -0.6541  0.0442  0.6408
  124MOL   N27247258   1.692   3.697   3.084 -0.3179 -0.3265 -0.0823
  124MOL   C27347259   1.556   3.722   3.025 -0.5462 -0.0797 -0.1152
  124MOL   C27447260   1.512   3.584   2.960  0.0053  0.1593  0.0226
  124MOL   C27547261   1.452   3.779   3.125 -0.7917 -0.3553 -0.5963
  124MOL   H27647262   1.933   3.950   3.301 -0.6082  0.0270 -0.3926
  124MOL   H27747263   2.056   3.846   3.341 -1.5451  0.2682  2.5641
  124MOL   H27847264   1.908   3.649   3.240 -1.1244  0.3507  1.6710
  124MOL   H27947265   1.752   3.616   3.069  1.5481  0.7330  1.3614
  124MOL   H28047266   1.565   3.790   2.940  1.3580 -0.4312 -0.2183
  124MOL   H28147267   1.417   3.591   2.906  0.2619  1.7619 -0.2265
  124MOL   H28247268   1.587   3.559   2.885 -0.6522 -0.1543 -0.5389
  124MOL   H28347269   1.502   3.505   3.035  2.2897  0.6996  0.9465
  124MOL   H28447270   1.487   3.870   3.173  0.6541 -0.9209 -0.5578
  124MOL   H28547271   1.362   3.807   3.071 -0.5237 -0.7673 -1.2626
  124MOL   H28647272   1.422   3.708   3.202 -0.9290  0.6929  0.3292
  124MOL   C28747273   2.007   3.773   3.087 -0.3853 -0.4803 -0.0025
  124MOL   C28847274   2.100   3.661   3.053  0.0259 -0.0420 -0.3305
  124MOL   C28947275   2.031   3.547   2.984 -0.6806 -0.0702  0.2667
  124MOL   O29047276   1.912   3.519   3.003  0.1862  0.4029  0.1888
  124MOL   N29147277   2.107   3.468   2.905 -0.4853  0.2943 -0.0383
  124MOL   C29247278   2.059   3.367   2.807 -0.2576 -0.0760 -0.1292
  124MOL   C29347279   2.169   3.370   2.702  0.0818 -0.3929 -0.2321
  124MOL   C29447280   2.047   3.234   2.875 -0.1762  0.0490  0.4094
  124MOL   H29547281   1.954   3.802   2.996  0.5944 -1.1921 -0.8220
  124MOL   H29647282   2.070   3.858   3.115  0.8872 -0.4924 -2.6170
  124MOL   H29747283   2.170   3.699   2.978 -2.0516  1.6350 -1.5060
  124MOL   H29847284   2.203   3.501   2.911 -1.3047  2.3271  2.6453
  124MOL   H29947285   1.969   3.403   2.758  0.1600  3.7635  1.6735
  124MOL   H30047286   2.155   3.287   2.634 -2.0461 -1.0199  0.9346
  124MOL   H30147287   2.173   3.459   2.638  0.4122 -0.8465 -0.8528
  124MOL   H30247288   2.265   3.351   2.750  0.1751  1.3478  0.3121
  124MOL   H30347289   1.979   3.166   2.824 -0.1490  0.8954 -0.7562
  124MOL   H30447290   2.146   3.192   2.891  0.1672  1.4353  2.1718
  124MOL   H30547291   1.990   3.244   2.968 -1.9866  0.4163 -0.7031
  124MOL   C30647292   2.183   3.617   3.167 -1.0955  0.5979 -0.2886
  124MOL   C30747293   2.324   3.687   3.178 -0.1877 -0.4708  0.6872
  124MOL   C30847294   2.420   3.645   3.060  0.5780 -0.1107 -0.3211
  124MOL   O30947295   2.385   3.552   2.983  0.4524  0.2481 -0.0172
  124MOL   N31047296   2.530   3.710   3.045 -0.3592 -0.1271  0.4449
  124MOL   C31147297   2.638   3.670   2.953 -0.7234  0.0052 -0.1467
  124MOL   C31247298   2.620   3.721   2.811 -0.7571  0.8134  0.5166
  124MOL   C31347299   2.777   3.718   3.008 -0.0045  1.5098  0.2878
  124MOL   H31447300   2.129   3.621   3.262  0.3812  0.2833  0.5855
  124MOL   H31547301   2.215   3.513   3.156  1.2344  0.8081  3.6826
  124MOL   H31647302   2.302   3.793   3.169 -3.2782 -1.0014  1.5656
  124MOL   H31747303   2.552   3.786   3.108 -3.2013 -0.4043  1.8326
  124MOL   H31847304   2.648   3.561   2.954 -1.3090 -0.0504 -0.1994
  124MOL   H31947305   2.521   3.701   2.771 -1.2639  3.0134  0.5977
  124MOL   H32047306   2.692   3.683   2.739 -1.5301  1.0547 -0.3943
  124MOL   H32147307   2.625   3.829   2.797  0.6617  0.7100  0.0718
  124MOL   H32247308   2.775   3.820   3.046 -1.1905  1.1254  1.3277
  124MOL   H32347309   2.865   3.700   2.946 -0.5110  1.0500 -0.2995
  124MOL   H32447310   2.780   3.649   3.093  0.4640  0.2415 -0.7373
  124MOL   C32547311   2.396   3.671   3.314 -0.1061  0.4614 -0.2418
  124MOL   C32647312   2.425   3.528   3.354  0.0697  0.5848 -0.4564
  124MOL   C32747313   2.563   3.478   3.301  0.5843 -0.3419  0.4205
  124MOL   O32847314   2.668   3.542   3.320 -0.0174 -0.3682  0.4942
  124MOL   N32947315   2.564   3.355   3.252 -0.3542  0.4748 -0.8140
  124MOL   C33047316   2.669   3.291   3.170 -0.3426 -0.5937 -0.0774
  124MOL   C33147317   2.614   3.188   3.076  0.5694 -0.0516  0.2278
  124MOL   C33247318   2.790   3.250   3.255  0.3887  0.0101 -0.1433
  124MOL   H33347319   2.342   3.724   3.392 -1.7238 -1.3104 -0.0963
  124MOL   H33447320   2.490   3.724   3.298 -0.1503 -0.1571 -2.8544
  124MOL   H33547321   2.353   3.462   3.304  2.3069 -2.3185  0.0336
  124MOL   H33647322   2.472   3.314   3.256 -0.2647  0.2778 -0.7613
  124MOL   H33747323   2.713   3.369   3.108 -0.2812  0.2734  1.0449
  124MOL   H33847324   2.570   3.251   2.999  1.2931  2.2617  1.6512
  124MOL   H33947325   2.700   3.143   3.025 -0.8163 -1.3551 -0.9842
  124MOL   H34047326   2.543   3.119   3.120 -0.1792  1.4804  1.4846
  124MOL   H34147327   2.825   3.329   3.322 -0.5878  1.1265 -0.9169
  124MOL   H34247328   2.869   3.221   3.187  2.7681  1.8651  1.7550
  124MOL   H34347329   2.756   3.170   3.321 -0.9474  0.8710  0.2369
  124MOL   C34447330   2.416   3.510   3.505  0.0061 -0.2185  0.0588
  124MOL   C34547331   2.275   3.496   3.557  0.1225 -0.4893  0.1040
  124MOL   C34647332   2.208   3.356   3.525 -0.5809 -0.0890 -0.1316
  124MOL   O34747333   2.273   3.256   3.553  0.6288 -0.1811  0.3369
  124MOL   N34847334   2.094   3.361   3.461 -0.5140  0.1599  0.5400
  124MOL   C34947335   2.020   3.235   3.434 -0.3414  0.5404  0.3098
  124MOL   C35047336   1.873   3.239   3.457  0.3221 -0.1831  0.0029
  124MOL   C35147337   2.045   3.183   3.293 -0.4984  0.4659  0.8389
  124MOL   H35247338   2.461   3.595   3.556 -0.2217 -1.4379  2.3212
  124MOL   H35347339   2.464   3.421   3.546 -0.3133 -1.2183 -1.6829
  124MOL   H35447340   2.213   3.570   3.506  0.0184 -1.7509 -1.6390
  124MOL   H35547341   2.054   3.453   3.447 -1.0150  0.1512  1.7867
  124MOL   H35647342   2.059   3.158   3.501 -0.3360 -1.6872 -2.1932
  124MOL   H35747343   1.834   3.332   3.415  2.0934 -0.5758 -2.6573
  124MOL   H35847344   1.826   3.154   3.408 -0.5343  0.2772  0.0305
  124MOL   H35947345   1.834   3.241   3.559 -0.3553  1.6529 -0.2725
  124MOL   H36047346   2.002   3.247   3.216 -0.3467  0.2619  0.5838
  124MOL   H36147347   2.153   3.180   3.278 -0.5410  0.3314  0.5639
  124MOL   H36247348   2.013   3.082   3.269  1.0547  0.6114 -2.0958
  124MOL   C36347349   2.252   3.539   3.703  0.2516 -0.5032 -0.3950
  124MOL   C36447350   2.333   3.448   3.807 -0.4467  0.1037  0.1034
  124MOL   C36547351   2.273   3.471   3.949  0.1408  0.5110  0.4156
  124MOL   O36647352   2.193   3.563   3.973  0.1642 -0.3342 -0.4962
  124MOL   N36747353   2.303   3.376   4.041 -0.4759  0.2634  0.3368
  124MOL   C36847354   2.277   3.382   4.187  0.3274  0.3035  0.2901
  124MOL   C36947355   2.291   3.252   4.247  0.4022 -0.2884 -0.2454
  124MOL   C37047356   2.363   3.488   4.253  0.2492  0.6715 -0.7209
  124MOL   H37147357   2.146   3.540   3.728  0.3574  0.5014  0.0442
  124MOL   H37247358   2.280   3.644   3.703 -2.8130  0.3519 -1.8664
  124MOL   H37347359   2.440   3.468   3.810 -0.2777 -0.4426 -1.6521
  124MOL   H37447360   2.360   3.301   4.006  0.3831  0.6556  0.8669
  124MOL   H37547361   2.174   3.414   4.197 -0.6530 -2.4189 -0.7382
  124MOL   H37647362   2.266   3.174   4.175 -2.1364 -1.2903  1.6562
  124MOL   H37747363   2.392   3.231   4.283  0.4627 -0.1836 -0.3515
  124MOL   H37847364   2.220   3.237   4.327 -1.9430 -0.3780 -2.2894
  124MOL   H37947365   2.344   3.473   4.359  1.1940 -1.1782 -0.7838
  124MOL   H38047366   2.469   3.469   4.237  0.4789  1.1220  0.2350
  124MOL   H38147367   2.346   3.592   4.227 -0.6377  1.4507  2.6917
  124MOL   H38247368   2.321   3.341   3.791 -0.2205 -0.2830  2.4082
  125MOL     C147369   2.976   3.997   4.419 -0.2419  0.2672  0.9031
  125MOL     C247370   2.843   3.910   4.425  0.2408 -0.9949  0.5078
  125MOL     C347371   2.732   3.991   4.349 -1.1320  0.5256 -1.0775
  125MOL     O447372   2.748   4.038   4.240 -0.6113  0.3270  0.3333
  125MOL     N547373   2.618   3.999   4.411 -0.5125 -0.3346 -0.0779
  125MOL     C647374   2.497   4.073   4.363  0.3706 -0.1580 -0.0451
  125MOL     C747375   2.383   3.970   4.364 -0.2362  0.1467 -0.4175
  125MOL     C847376   2.450   4.184   4.463 -0.2789 -0.2942  0.2274
  125MOL     H947377   3.049   3.922   4.449 -1.4731 -1.0974  0.5755
  125MOL    H1047378   2.959   4.083   4.484 -1.0365  0.5741  0.3004
  125MOL    H1147379   2.807   3.913   4.528 -2.0244  1.0864 -0.3003
  125MOL    H1247380   2.607   3.947   4.497  0.8243 -0.2829  0.1302
  125MOL    H1347381   2.519   4.129   4.272 -2.3438  2.4755  0.8107
  125MOL    H1447382   2.304   4.021   4.309 -0.5769  0.6756  0.5580
  125MOL    H1547383   2.354   3.948   4.466  2.9213 -2.2185  0.0515
  125MOL    H1647384   2.402   3.883   4.300 -1.6004 -0.8419  0.4998
  125MOL    H1747385   2.527   4.259   4.480 -0.7797 -0.3662  3.0183
  125MOL    H1847386   2.355   4.224   4.426 -0.1296 -1.1386 -1.1130
  125MOL    H1947387   2.424   4.152   4.564  0.1016 -0.2827  0.3264
  125MOL    H2047388   2.993   4.038   4.320  0.3071 -2.4454 -0.1492
  125MOL    C2147389   2.858   3.755   4.383  1.0246  0.0808 -0.0320
  125MOL    C2247390   2.887   3.724   4.239 -0.3052  0.3300  0.2953
  125MOL    C2347391   2.765   3.689   4.160  0.6126 -0.2815 -0.1522
  125MOL    O2447392   2.722   3.574   4.156 -0.1860  0.6418  0.2716
  125MOL    N2547393   2.698   3.790   4.093 -0.2189 -0.0303  0.2932
  125MOL    C2647394   2.580   3.765   4.006  0.6409  0.0698  0.0647
  125MOL    C2747395   2.626   3.704   3.867 -0.3699 -0.4026  0.0589
  125MOL    C2847396   2.505   3.892   3.985 -0.4106  0.0685 -0.8809
  125MOL    H2947397   2.768   3.703   4.418  0.8929 -0.2601 -0.8698
  125MOL    H3047398   2.937   3.709   4.443  0.1495 -1.9766 -0.4086
  125MOL    H3147399   2.930   3.813   4.192  0.8838 -0.5637 -0.3065
  125MOL    H3247400   2.719   3.885   4.118  0.9918 -0.3090  0.3452
  125MOL    H3347401   2.513   3.704   4.068  2.0186  1.0217  2.5663
  125MOL    H3447402   2.636   3.596   3.853  1.4811 -0.6442  2.8421
  125MOL    H3547403   2.714   3.754   3.827 -1.0478  0.3233 -0.5599
  125MOL    H3647404   2.555   3.726   3.787  0.5589 -0.0981 -0.6878
  125MOL    H3747405   2.478   3.931   4.083 -1.2430  1.1695 -1.5441
  125MOL    H3847406   2.561   3.973   3.937  2.2695 -1.3736 -0.3176
  125MOL    H3947407   2.411   3.878   3.933  0.0122  2.1141 -2.2864
  125MOL    C4047408   2.998   3.611   4.219  0.1346 -0.1075  0.5044
  125MOL    C4147409   3.063   3.606   4.079 -0.2845 -0.5545  0.3708
  125MOL    C4247410   3.097   3.465   4.031  0.2229  0.1099 -0.1263
  125MOL    O4347411   3.204   3.412   4.051  0.1319 -0.4285  0.9771
  125MOL    N4447412   2.999   3.394   3.974  0.1987 -0.1289 -0.4761
  125MOL    C4547413   2.994   3.258   3.934  0.1128 -0.1232  0.2147
  125MOL    C4647414   2.873   3.187   3.998  0.1236  0.0742  0.0437
  125MOL    C4747415   2.991   3.250   3.788 -0.2280  0.3672 -0.8529
  125MOL    H4847416   2.964   3.509   4.237  1.2903 -0.7140 -0.6566
  125MOL    H4947417   3.070   3.608   4.302 -1.1786  1.9865  1.7597
  125MOL    H5047418   2.999   3.642   3.999 -0.6013 -2.4758 -0.2614
  125MOL    H5147419   2.913   3.448   3.971  0.5421  0.6264  1.8995
  125MOL    H5247420   3.080   3.200   3.969  0.9058 -0.6539 -2.5482
  125MOL    H5347421   2.775   3.214   3.960  0.4734  0.1886 -0.7861
  125MOL    H5447422   2.890   3.173   4.105  2.0476 -1.3704 -0.4191
  125MOL    H5547423   2.875   3.084   3.962 -2.8740  0.4215 -1.2781
  125MOL    H5647424   2.968   3.153   3.742  1.6292 -0.4326 -0.1336
  125MOL    H5747425   3.087   3.281   3.748  1.1340 -2.6281 -0.0349
  125MOL    H5847426   2.931   3.332   3.747 -0.5043  0.7360  0.2720
  125MOL    C5947427   3.183   3.703   4.079  0.3129 -0.0094 -0.9985
  125MOL    C6047428   3.226   3.774   3.948  0.4783 -0.2317 -0.2593
  125MOL    C6147429   3.108   3.835   3.873 -0.6981  0.3619  0.4349
  125MOL    O6247430   3.033   3.762   3.805  0.1751  0.4481  0.3801
  125MOL    N6347431   3.096   3.971   3.878  0.2658  0.1264  0.0811
  125MOL    C6447432   2.989   4.054   3.828  0.1678  0.3740  0.0269
  125MOL    C6547433   2.953   4.028   3.681 -0.4691  0.4001  0.4221
  125MOL    C6647434   2.872   4.073   3.925 -0.0976  1.0176 -0.6165
  125MOL    H6747435   3.163   3.780   4.154  0.1402 -1.6713  0.6898
  125MOL    H6847436   3.272   3.654   4.120  0.2160  1.4327  1.0239
  125MOL    H6947437   3.290   3.854   3.984  2.7890 -0.7088 -3.1096
  125MOL    H7047438   3.169   4.014   3.933  0.8817 -1.1479  0.2590
  125MOL    H7147439   3.047   4.144   3.807  0.2822  0.6789  1.5872
  125MOL    H7247440   2.911   3.928   3.666  2.9319 -0.8731 -1.1534
  125MOL    H7347441   2.871   4.086   3.640  0.5981  1.4913 -0.1793
  125MOL    H7447442   3.039   4.045   3.617 -0.0767  0.5235  0.9855
  125MOL    H7547443   2.815   3.980   3.937  1.4057  0.3498  1.7267
  125MOL    H7647444   2.902   4.107   4.024 -2.5107  2.5973 -0.3796
  125MOL    H7747445   2.798   4.146   3.892 -1.0911  0.9172  1.3226
  125MOL    C7847446   3.307   3.694   3.851 -0.9886  0.0166  0.1951
  125MOL    C7947447   3.413   3.787   3.776  0.6879 -0.2001  0.2475
  125MOL    C8047448   3.552   3.754   3.824 -0.0259  0.1093 -0.2310
  125MOL    O8147449   3.600   3.648   3.776 -0.1317  0.0596  1.0642
  125MOL    N8247450   3.610   3.830   3.924  0.2277 -0.6913 -0.0329
  125MOL    C8347451   3.732   3.793   3.994  0.3520 -0.5223 -0.7076
  125MOL    C8447452   3.830   3.910   3.995 -0.7126 -0.7359 -0.2502
  125MOL    C8547453   3.701   3.738   4.134  0.0647 -0.1324  0.4144
  125MOL    H8647454   3.255   3.619   3.791 -2.4455  0.5976  0.7281
  125MOL    H8747455   3.371   3.635   3.916  0.2790  2.2537  1.0564
  125MOL    H8847456   3.382   3.890   3.792 -0.3662 -0.4389 -0.2496
  125MOL    H8947457   3.567   3.916   3.954  1.0827  0.6540 -2.5062
  125MOL    H9047458   3.777   3.713   3.934 -2.7284 -1.7635 -1.4774
  125MOL    H9147459   3.851   3.941   3.893 -1.4576  1.5772  0.2879
  125MOL    H9247460   3.790   3.992   4.055  1.1110  1.2086 -1.6486
  125MOL    H9347461   3.922   3.882   4.047 -0.1905 -0.6563 -1.1176
  125MOL    H9447462   3.787   3.727   4.201 -1.0117  2.2958  2.2663
  125MOL    H9547463   3.649   3.643   4.128  0.4474 -0.2261 -1.8742
  125MOL    H9647464   3.636   3.814   4.177  1.4696  0.2707  1.9084
  125MOL    C9747465   3.400   3.782   3.624 -0.0331  0.5908  0.1437
  125MOL    C9847466   3.305   3.884   3.551 -0.7001  0.4113  0.0374
  125MOL    C9947467   3.207   3.790   3.471  0.0726 -0.2749  0.2350
  125MOL   O10047468   3.237   3.744   3.360  0.2077  0.5705  0.0616
  125MOL   N10147469   3.094   3.757   3.525  0.2335  0.9545 -0.0121
  125MOL   C10247470   2.988   3.689   3.461  0.1848  0.1992 -0.0826
  125MOL   C10347471   2.896   3.632   3.558  0.1924  0.3636  0.1325
  125MOL   C10447472   2.920   3.771   3.353 -0.0428  0.4226  0.0282
  125MOL   H10547473   3.379   3.679   3.598 -0.9407  0.1760  2.3969
  125MOL   H10647474   3.495   3.790   3.571  0.9494 -0.6601  1.6778
  125MOL   H10747475   3.252   3.945   3.625 -0.3515 -1.7722  2.1153
  125MOL   H10847476   3.083   3.764   3.625  2.6976 -1.3170  0.4585
  125MOL   H10947477   3.024   3.605   3.402 -0.1061 -0.1292  0.2071
  125MOL   H11047478   2.827   3.693   3.617  1.0421  2.5204 -1.0346
  125MOL   H11147479   2.837   3.562   3.499  0.2920  0.1523  0.2857
  125MOL   H11247480   2.963   3.583   3.629 -1.7372  0.3266  2.0019
  125MOL   H11347481   2.989   3.792   3.271  0.8820 -0.3994  0.5850
  125MOL   H11447482   2.879   3.864   3.392 -1.3976  0.0538 -0.5049
  125MOL   H11547483   2.828   3.734   3.307  0.4451 -0.9507  0.1395
  125MOL   C11647484   3.383   3.972   3.451  0.6164 -0.0793 -0.9552
  125MOL   C11747485   3.300   4.089   3.398  0.4084 -0.5242 -0.9898
  125MOL   C11847486   3.342   4.123   3.258 -0.1641 -0.4280 -0.0347
  125MOL   O11947487   3.445   4.179   3.224  0.3052 -0.4828  0.1704
  125MOL   N12047488   3.240   4.086   3.177 -0.2372  0.3414 -0.3384
  125MOL   C12147489   3.240   4.079   3.027 -0.9242 -0.5019 -0.0711
  125MOL   C12247490   3.123   3.985   2.984  0.1384  0.1493  0.6095
  125MOL   C12347491   3.230   4.207   2.949  0.0696 -0.4323 -0.2585
  125MOL   H12447492   3.436   3.917   3.374 -1.1932 -0.3221 -2.0456
  125MOL   H12547493   3.469   4.020   3.499 -0.0767  0.9435 -0.7137
  125MOL   H12647494   3.194   4.064   3.393 -0.3361  1.9682  1.1506
  125MOL   H12747495   3.153   4.056   3.219 -0.0001 -0.8797 -0.6858
  125MOL   H12847496   3.341   4.041   3.011 -0.4234  0.4651  0.7275
  125MOL   H12947497   3.157   3.882   2.992 -0.7165 -0.0643  1.4913
  125MOL   H13047498   3.099   3.996   2.878 -1.3617  0.4661  0.9797
  125MOL   H13147499   3.033   4.006   3.041  0.2002 -2.1473  1.6220
  125MOL   H13247500   3.146   4.271   2.978  0.6191  0.0585  0.2809
  125MOL   H13347501   3.313   4.269   2.982  0.3954 -0.8496 -0.2964
  125MOL   H13447502   3.226   4.197   2.841 -1.8798  1.4433 -0.4126
  125MOL   C13547503   3.295   4.197   3.507 -0.2480  0.3766 -0.2678
  125MOL   C13647504   3.286   4.347   3.459 -0.2287 -0.4539 -0.3352
  125MOL   C13747505   3.140   4.373   3.417  1.3968  0.2146  0.5993
  125MOL   O13847506   3.050   4.307   3.467 -0.4587  0.3347 -0.1528
  125MOL   N13947507   3.119   4.470   3.327  0.2834 -0.5351  0.4719
  125MOL   C14047508   2.996   4.503   3.262  0.3390 -0.3439  0.7868
  125MOL   C14147509   2.988   4.467   3.117 -0.2339  0.3492  0.8890
  125MOL   C14247510   2.961   4.649   3.291 -0.1315 -0.0924 -0.1427
  125MOL   H14347511   3.391   4.198   3.560  0.8423  2.3914 -2.2157
  125MOL   H14447512   3.230   4.181   3.593 -1.9960  3.2151 -1.0099
  125MOL   H14547513   3.352   4.373   3.376 -2.5498  2.6677 -1.2874
  125MOL   H14647514   3.200   4.501   3.274  0.0676 -0.8181 -0.0256
  125MOL   H14747515   2.920   4.449   3.319 -0.1496  1.4832  1.9373
  125MOL   H14847516   3.061   4.524   3.060  0.8953  0.4981  2.4494
  125MOL   H14947517   3.007   4.361   3.100  0.1865  0.3217  1.5428
  125MOL   H15047518   2.886   4.471   3.079  0.3134 -1.6335 -0.8560
  125MOL   H15147519   3.016   4.729   3.241  0.7163  1.6409  3.4653
  125MOL   H15247520   2.968   4.680   3.395  0.3931  0.2191 -0.2725
  125MOL   H15347521   2.860   4.663   3.252  0.6264  1.2840 -1.6786
  125MOL   C15447522   3.325   4.443   3.581  0.4392  0.5185  0.0925
  125MOL   C15547523   3.319   4.600   3.551  0.0886  0.2528  0.1431
  125MOL   C15647524   3.436   4.650   3.464  0.3940 -0.4607  0.3081
  125MOL   O15747525   3.549   4.603   3.461  0.4187  0.0367  0.2558
  125MOL   N15847526   3.392   4.753   3.384 -0.0337  0.1804  0.1715
  125MOL   C15947527   3.456   4.789   3.261 -0.6522 -0.5808 -0.0948
  125MOL   C16047528   3.461   4.942   3.247  0.2290  0.4124 -0.4301
  125MOL   C16147529   3.399   4.716   3.144  0.2365 -0.6642  0.4407
  125MOL   H16247530   3.425   4.410   3.609  1.5479  3.2089 -0.5774
  125MOL   H16347531   3.272   4.422   3.674  1.4076 -2.4940  0.0244
  125MOL   H16447532   3.229   4.619   3.492 -1.0536  0.3860  1.9010
  125MOL   H16547533   3.299   4.790   3.398 -0.5079 -1.3157  1.0294
  125MOL   H16647534   3.561   4.761   3.270  0.0950  1.9521 -0.6040
  125MOL   H16747535   3.510   4.986   3.334  0.4939 -2.4623  0.9273
  125MOL   H16847536   3.515   4.966   3.156 -0.1769 -2.0017 -1.3427
  125MOL   H16947537   3.361   4.984   3.234  0.2277  0.3073 -0.7619
  125MOL   H17047538   3.409   4.607   3.146  0.7180 -0.6131  1.1271
  125MOL   H17147539   3.444   4.741   3.048  0.4866 -0.5595  0.5834
  125MOL   H17247540   3.298   4.752   3.126  0.4071 -1.3790 -2.0798
  125MOL   C17347541   3.315   4.684   3.674 -0.6349 -0.0983 -0.4531
  125MOL   C17447542   3.174   4.749   3.712 -0.1517  0.2364  0.3779
  125MOL   C17547543   3.132   4.878   3.618 -0.9794  0.3544  0.3852
  125MOL   O17647544   3.097   4.858   3.503  0.8265  0.7459 -0.0460
  125MOL   N17747545   3.125   4.999   3.675 -0.2594 -0.5521  0.1556
  125MOL   C17847546   3.087   5.121   3.603 -0.0000  1.0984 -0.1829
  125MOL   C17947547   3.200   5.159   3.508  0.4505  1.2235 -0.2102
  125MOL   C18047548   3.058   5.239   3.699 -1.0086  0.5944  0.6423
  125MOL   H18147549   3.371   4.776   3.658  0.0319 -0.4822 -0.3432
  125MOL   H18247550   3.363   4.648   3.765 -3.0937  1.0648  1.3853
  125MOL   H18347551   3.179   4.798   3.810  0.8894  2.7221 -0.8851
  125MOL   H18447552   3.157   5.008   3.770 -0.9553 -1.4137  0.4780
  125MOL   H18547553   3.005   5.094   3.536  1.1194  0.1449 -1.1985
  125MOL   H18647554   3.161   5.225   3.431  1.3265  0.9557 -0.8926
  125MOL   H18747555   3.254   5.080   3.456  0.9678  1.5076 -0.1105
  125MOL   H18847556   3.259   5.233   3.563  0.0858 -0.3697  2.4309
  125MOL   H18947557   2.960   5.241   3.746 -0.9770 -0.4167  0.7732
  125MOL   H19047558   3.057   5.329   3.638  1.8347 -0.3658 -0.9146
  125MOL   H19147559   3.122   5.246   3.788 -0.9802 -0.1962  0.6896
  125MOL   C19247560   3.060   4.644   3.702 -0.7791  0.8032 -0.2635
  125MOL   C19347561   2.915   4.692   3.746  0.4108  0.0516 -0.4102
  125MOL   C19447562   2.927   4.757   3.886  0.4582 -0.3409  0.1674
  125MOL   O19547563   3.009   4.724   3.977  0.1977 -0.1115  0.0706
  125MOL   N19647564   2.844   4.862   3.904  0.7726  0.4974 -0.7220
  125MOL   C19747565   2.822   4.937   4.025 -0.0954  0.0603  0.5048
  125MOL   C19847566   2.848   5.080   4.001 -0.0457  0.0216  0.4426
  125MOL   C19947567   2.680   4.909   4.072 -0.0745  0.3255  0.6795
  125MOL   H20047568   3.089   4.557   3.762 -1.8616  1.9841  2.0449
  125MOL   H20147569   3.054   4.607   3.600  0.3976 -1.6104  0.4908
  125MOL   H20247570   2.871   4.768   3.682  2.1698 -0.0049 -1.7227
  125MOL   H20347571   2.778   4.874   3.829 -0.3969  0.7686  0.3299
  125MOL   H20447572   2.906   4.906   4.087  1.2397 -0.1862 -1.4063
  125MOL   H20547573   2.819   5.130   4.093 -1.7438  1.7915 -1.0200
  125MOL   H20647574   2.795   5.131   3.921  0.9404  0.4768  0.0728
  125MOL   H20747575   2.952   5.105   3.981 -0.4744  0.0740 -1.8146
  125MOL   H20847576   2.603   4.925   3.997  0.1862  1.2910  0.6163
  125MOL   H20947577   2.660   4.967   4.162 -1.6586 -1.1332  1.3028
  125MOL   H21047578   2.679   4.800   4.085 -1.5649 -0.0626 -2.3014
  125MOL   C21147579   2.809   4.574   3.756 -0.1778 -0.6496 -0.3521
  125MOL   C21247580   2.663   4.620   3.778 -0.4773 -0.0756 -0.3284
  125MOL   C21347581   2.609   4.710   3.669 -0.7240 -0.2161 -0.0717
  125MOL   O21447582   2.632   4.666   3.556  0.0705  0.1773  0.0768
  125MOL   N21547583   2.546   4.821   3.697 -0.1154 -0.8024 -0.4125
  125MOL   C21647584   2.490   4.920   3.603 -0.6895  0.2561  0.0680
  125MOL   C21747585   2.543   5.055   3.629  1.1700 -0.3887  0.6032
  125MOL   C21847586   2.344   4.924   3.607 -0.3498 -0.0584  0.0922
  125MOL   H21947587   2.831   4.505   3.838 -0.1399  0.8347  0.9030
  125MOL   H22047588   2.818   4.517   3.664 -1.9538 -0.9783 -0.3466
  125MOL   H22147589   2.667   4.679   3.870  0.6026 -1.6803  0.6688
  125MOL   H22247590   2.526   4.839   3.794 -1.4554 -0.4942 -0.7347
  125MOL   H22347591   2.516   4.892   3.501 -0.5596 -2.8600  0.9029
  125MOL   H22447592   2.542   5.088   3.733 -2.2029 -1.7395  1.0577
  125MOL   H22547593   2.645   5.068   3.592  1.0762 -2.0815 -0.3038
  125MOL   H22647594   2.497   5.130   3.565  1.3201 -0.6176  0.2215
  125MOL   H22747595   2.299   4.828   3.632 -0.8804  0.3947  0.8988
  125MOL   H22847596   2.302   4.963   3.514  2.8514  1.6499 -0.7165
  125MOL   H22947597   2.301   5.000   3.673  0.3030 -0.0079  0.4723
  125MOL   C23047598   2.571   4.494   3.791  0.4133 -0.5048  0.1681
  125MOL   C23147599   2.432   4.516   3.863 -0.2221 -0.8606 -0.2844
  125MOL   C23247600   2.428   4.621   3.982  0.0683 -0.1171 -0.0370
  125MOL   O23347601   2.443   4.740   3.957 -0.0498  0.1558  0.5522
  125MOL   N23447602   2.407   4.581   4.110  0.6481  0.2092  0.0928
  125MOL   C23547603   2.385   4.668   4.224 -0.8349  0.2956 -0.1644
  125MOL   C23647604   2.239   4.661   4.276 -0.3596 -0.1279  0.1322
  125MOL   C23747605   2.485   4.614   4.327 -0.0704 -0.2725  0.5822
  125MOL   H23847606   2.621   4.422   3.856  1.0260  1.3926  1.8511
  125MOL   H23947607   2.537   4.448   3.698  0.4218  1.1304 -0.6747
  125MOL   H24047608   2.407   4.423   3.915 -0.6916 -0.5617  0.0309
  125MOL   H24147609   2.393   4.481   4.117 -2.0687  0.5482  0.0099
  125MOL   H24247610   2.420   4.770   4.207 -0.1236 -0.1708 -1.5608
  125MOL   H24347611   2.232   4.723   4.365  1.8381  1.1883 -0.5669
  125MOL   H24447612   2.172   4.708   4.203  1.0951  0.3969 -0.8797
  125MOL   H24547613   2.205   4.561   4.302 -1.8406  0.0374 -1.0356
  125MOL   H24647614   2.456   4.640   4.429  1.9703  0.8692  0.9044
  125MOL   H24747615   2.581   4.666   4.323 -0.8827  1.1927 -0.2997
  125MOL   H24847616   2.502   4.507   4.334 -0.1695 -0.3907 -0.9151
  125MOL   C24947617   2.320   4.533   3.761  0.0313  0.8575  0.1082
  125MOL   C25047618   2.232   4.406   3.730  0.3534 -0.5306  1.1765
  125MOL   C25147619   2.314   4.302   3.643 -0.6460 -0.4385  0.4033
  125MOL   O25247620   2.343   4.332   3.525  0.0600  0.5090 -0.6171
  125MOL   N25347621   2.334   4.188   3.708  0.2634 -0.2190 -0.2240
  125MOL   C25447622   2.404   4.066   3.667 -0.2555 -0.2501  0.2685
  125MOL   C25547623   2.361   4.019   3.528  0.2362 -0.9583  0.6535
  125MOL   C25647624   2.556   4.092   3.676  0.1864  0.1968 -0.3994
  125MOL   H25747625   2.349   4.577   3.666 -1.0552  1.2112 -0.0660
  125MOL   H25847626   2.261   4.615   3.801 -1.5934 -0.3937  0.3500
  125MOL   H25947627   2.205   4.363   3.827  1.0333 -0.5568  1.3548
  125MOL   H26047628   2.296   4.182   3.801 -0.9777  0.8173 -0.6494
  125MOL   H26147629   2.366   3.991   3.736  0.1865 -2.6524 -2.0632
  125MOL   H26247630   2.388   4.095   3.456 -0.1168  0.5027  2.0372
  125MOL   H26347631   2.417   3.928   3.505 -0.5869 -0.7394 -2.4952
  125MOL   H26447632   2.254   4.003   3.513  0.0183  0.7604  0.2792
  125MOL   H26547633   2.586   4.155   3.759 -0.4649 -1.4510  1.1228
  125MOL   H26647634   2.619   4.004   3.690  0.9062  0.6619 -0.7002
  125MOL   H26747635   2.576   4.138   3.579 -0.2494  1.0861 -0.0617
  125MOL   C26847636   2.105   4.459   3.671  0.7900 -0.0101 -0.1714
  125MOL   C26947637   1.988   4.364   3.638  0.0545  0.1538 -0.4519
  125MOL   C27047638   1.850   4.436   3.641 -0.6251 -0.3269  0.3699
  125MOL   O27147639   1.835   4.552   3.662 -0.0145 -0.2207 -0.0306
  125MOL   N27247640   1.745   4.354   3.621 -0.7469 -0.0890  0.0655
  125MOL   C27347641   1.612   4.394   3.582  0.2400 -0.3261  0.0131
  125MOL   C27447642   1.559   4.297   3.474 -0.3334  0.1240 -0.0720
  125MOL   C27547643   1.510   4.393   3.701 -0.6400 -0.2461 -0.7844
  125MOL   H27647644   2.070   4.540   3.735  0.6666  0.5378 -0.9293
  125MOL   H27747645   2.119   4.523   3.584  0.9001 -0.3804 -0.4262
  125MOL   H27847646   1.969   4.293   3.719 -3.0853  0.9077 -0.4696
  125MOL   H27947647   1.770   4.256   3.617  0.0422  0.0666  0.9633
  125MOL   H28047648   1.614   4.492   3.535 -1.5330 -0.7920 -1.0891
  125MOL   H28147649   1.623   4.298   3.386  1.3294 -2.2676  1.0328
  125MOL   H28247650   1.574   4.196   3.514  1.2291  0.2367 -0.3407
  125MOL   H28347651   1.457   4.311   3.440 -0.5235  2.3339  1.3436
  125MOL   H28447652   1.496   4.301   3.758 -1.4384  0.3798  0.0351
  125MOL   H28547653   1.535   4.478   3.764  1.5623 -1.8109  0.5208
  125MOL   H28647654   1.410   4.417   3.665 -0.3150  0.4110 -1.2563
  125MOL   C28747655   2.006   4.286   3.508 -0.6210  0.0562  0.4397
  125MOL   C28847656   2.061   4.356   3.378  1.8985 -1.2196 -0.1609
  125MOL   C28947657   1.959   4.457   3.321  0.2139 -0.0856  0.0149
  125MOL   O29047658   1.847   4.414   3.286  0.3065 -0.3906 -0.2461
  125MOL   N29147659   2.009   4.581   3.304 -0.0019 -0.0385  0.0614
  125MOL   C29247660   1.930   4.697   3.268 -0.5099 -0.2756 -0.3227
  125MOL   C29347661   1.875   4.764   3.392  0.0519 -0.1270 -0.0468
  125MOL   C29447662   2.008   4.791   3.176  0.4265  0.4790  0.0552
  125MOL   H29547663   2.055   4.190   3.520  1.0363  0.4049 -2.8150
  125MOL   H29647664   1.915   4.246   3.464 -0.6530 -1.3443  1.7429
  125MOL   H29747665   2.152   4.409   3.405  0.5552  0.1217  1.9172
  125MOL   H29847666   2.109   4.586   3.322 -0.1846 -0.1143  1.1474
  125MOL   H29947667   1.843   4.670   3.208 -0.6360  0.5778 -0.5301
  125MOL   H30047668   1.809   4.692   3.441 -0.2311 -0.4253 -0.8624
  125MOL   H30147669   1.959   4.801   3.450 -0.0549  2.1482 -1.3030
  125MOL   H30247670   1.805   4.845   3.371 -1.7761 -1.1215  2.0211
  125MOL   H30347671   2.091   4.834   3.232  2.4323 -1.2644 -1.4854
  125MOL   H30447672   2.055   4.743   3.090  0.3459 -0.5050  0.5485
  125MOL   H30547673   1.940   4.867   3.138 -1.9516 -1.1572  0.8973
  125MOL   C30647674   2.092   4.245   3.266  0.0309  0.0747 -0.5873
  125MOL   C30747675   2.232   4.248   3.209 -0.8121 -0.3186  0.1806
  125MOL   C30847676   2.279   4.389   3.165  0.0475  0.0020  0.8042
  125MOL   O30947677   2.234   4.434   3.067 -0.0321  0.1674  0.7371
  125MOL   N31047678   2.365   4.455   3.241 -0.0194 -0.4560  0.1406
  125MOL   C31147679   2.416   4.595   3.219  0.1715 -0.1940  0.2408
  125MOL   C31247680   2.368   4.691   3.322  0.1265  0.2616  0.6673
  125MOL   C31347681   2.565   4.593   3.215 -0.3907 -0.1270 -0.1559
  125MOL   H31447682   2.083   4.145   3.310  0.1534  0.6090  0.6555
  125MOL   H31547683   2.024   4.256   3.182  0.4412  1.7164 -0.7078
  125MOL   H31647684   2.298   4.219   3.291  0.1898  0.4155 -0.3481
  125MOL   H31747685   2.409   4.408   3.318  0.5756 -2.4592 -1.3753
  125MOL   H31847686   2.378   4.637   3.126  1.8135  0.8317  0.0208
  125MOL   H31947687   2.383   4.654   3.424  1.5827 -0.1985  0.2993
  125MOL   H32047688   2.260   4.704   3.320  0.0154 -0.6862  0.1038
  125MOL   H32147689   2.416   4.789   3.321  0.3939  0.1246 -0.9129
  125MOL   H32247690   2.607   4.528   3.138  1.8283 -0.0646  0.9622
  125MOL   H32347691   2.616   4.553   3.302 -0.1820 -0.2141 -0.3160
  125MOL   H32447692   2.590   4.698   3.199 -3.9924  0.7384 -0.5319
  125MOL   C32547693   2.260   4.141   3.099  0.3164 -0.0183 -0.2384
  125MOL   C32647694   2.405   4.137   3.045  0.0684  0.8095 -0.4052
  125MOL   C32747695   2.508   4.091   3.149  0.2685 -0.2474 -0.6575
  125MOL   O32847696   2.517   3.971   3.177 -0.7718  0.4155  0.2525
  125MOL   N32947697   2.576   4.189   3.203  0.6210 -0.4262 -0.5901
  125MOL   C33047698   2.672   4.164   3.313  0.0320 -0.2609  0.1972
  125MOL   C33147699   2.679   4.292   3.390  0.1391  0.7472 -0.3870
  125MOL   C33247700   2.811   4.120   3.257  0.5958 -0.4215  0.0852
  125MOL   H33347701   2.192   4.164   3.016  1.4219 -0.4905 -1.2945
  125MOL   H33447702   2.231   4.045   3.142 -0.8784 -0.0822 -1.1531
  125MOL   H33547703   2.426   4.232   2.995 -0.7893  0.9565 -0.4910
  125MOL   H33647704   2.537   4.281   3.196  2.1106  0.6269  3.4547
  125MOL   H33747705   2.632   4.084   3.374 -0.1461 -2.9503 -3.2999
  125MOL   H33847706   2.580   4.325   3.423 -0.0256  1.2853 -1.4185
  125MOL   H33947707   2.735   4.275   3.482 -0.4661 -1.5289 -0.4126
  125MOL   H34047708   2.721   4.377   3.336  1.1055 -0.5738 -1.7249
  125MOL   H34147709   2.888   4.097   3.331  1.3501 -0.1571 -0.6078
  125MOL   H34247710   2.838   4.213   3.207 -2.0957  1.1591  1.4420
  125MOL   H34347711   2.811   4.039   3.185  0.5610  0.1620 -0.5751
  125MOL   C34447712   2.417   4.038   2.922 -0.4486  0.1891 -0.3240
  125MOL   C34547713   2.352   4.076   2.782  0.3426 -0.1433  0.2287
  125MOL   C34647714   2.404   4.206   2.713 -0.0115  0.2333  0.6682
  125MOL   O34747715   2.481   4.191   2.622 -0.3691  0.5509  0.5018
  125MOL   N34847716   2.364   4.320   2.761  0.4277  0.1069  0.4654
  125MOL   C34947717   2.413   4.450   2.708  0.2562  0.6311 -0.0279
  125MOL   C35047718   2.339   4.516   2.595  0.3159  0.4349 -0.4104
  125MOL   C35147719   2.423   4.543   2.827 -0.0122 -0.6894  0.4087
  125MOL   H35247720   2.392   3.935   2.948  0.8620 -0.9722 -3.3921
  125MOL   H35347721   2.526   4.030   2.912 -0.4581  0.2033 -0.4395
  125MOL   H35447722   2.247   4.090   2.808  0.0879 -0.5168 -0.5826
  125MOL   H35547723   2.290   4.324   2.829 -0.0312  1.0440 -0.0857
  125MOL   H35647724   2.511   4.442   2.661  0.2939 -1.9087  0.4559
  125MOL   H35747725   2.410   4.590   2.559  1.8200  0.3598  2.2503
  125MOL   H35847726   2.300   4.451   2.517 -0.2338 -2.1581  1.9253
  125MOL   H35947727   2.253   4.568   2.637 -0.0639 -1.5575  1.4095
  125MOL   H36047728   2.324   4.579   2.854  1.2879  3.7542 -0.3315
  125MOL   H36147729   2.468   4.493   2.913 -1.0286 -1.5691  0.4342
  125MOL   H36247730   2.470   4.641   2.813  0.2149 -0.8553  0.0095
  125MOL   C36347731   2.350   3.954   2.684 -0.5493  1.0548 -0.5992
  125MOL   C36447732   2.253   3.971   2.557  0.4044 -0.1737  0.2252
  125MOL   C36547733   2.104   3.962   2.592 -0.4864 -0.7816  0.0584
  125MOL   O36647734   2.050   4.054   2.655  0.5055 -0.4838 -0.2249
  125MOL   N36747735   2.047   3.852   2.541 -0.6244 -0.1593  0.1090
  125MOL   C36847736   1.912   3.810   2.572 -0.4716  0.7460  0.0354
  125MOL   C36947737   1.838   3.746   2.453 -0.2211 -0.0400 -0.4086
  125MOL   C37047738   1.914   3.716   2.699 -0.2682 -0.3442 -0.5982
  125MOL   H37147739   2.319   3.867   2.742 -0.4447  0.4066 -1.5133
  125MOL   H37247740   2.454   3.933   2.658 -0.6030 -1.7375  1.2389
  125MOL   H37347741   2.281   3.905   2.476  1.8605 -1.4704  1.7379
  125MOL   H37447742   2.097   3.796   2.474  0.1286  1.4954 -0.7444
  125MOL   H37547743   1.851   3.894   2.605 -1.3255 -0.1882  0.9114
  125MOL   H37647744   1.734   3.725   2.480 -0.5522  1.5682 -0.3638
  125MOL   H37747745   1.836   3.811   2.365  2.5957  0.4388 -0.1369
  125MOL   H37847746   1.893   3.655   2.430  2.4107  1.3773  0.1334
  125MOL   H37947747   1.808   3.697   2.715 -0.6024 -0.6997 -2.9597
  125MOL   H38047748   1.952   3.618   2.670 -0.8119 -0.1757 -1.9477
  125MOL   H38147749   1.972   3.762   2.779 -1.2257  1.5057 -0.9443
  125MOL   H38247750   2.265   4.065   2.502 -0.5973  0.9903  1.9378
  126MOL     C147751   5.735   3.038   5.894 -0.6618 -0.2485 -0.5110
  126MOL     C247752   5.859   3.045   5.996 -0.5078 -0.0804 -0.2691
  126MOL     C347753   5.828   3.132   6.118  0.4459 -0.5981  0.4994
  126MOL     O447754   5.740   3.100   6.194  0.6292  0.4030 -0.4564
  126MOL     N547755   5.892   3.246   6.130 -0.4992 -0.4224  0.3202
  126MOL     C647756   5.862   3.354   6.221 -0.3434  0.5951  0.5730
  126MOL     C747757   5.976   3.461   6.232 -0.3411  0.5381 -0.2202
  126MOL     C847758   5.723   3.412   6.189 -0.1573 -0.0908 -0.1494
  126MOL     H947759   5.639   3.073   5.933  1.5063  4.3473  1.1218
  126MOL    H1047760   5.717   2.952   5.829 -1.3282  1.5325 -2.7682
  126MOL    H1147761   5.941   3.093   5.941  0.1496 -0.7398  0.1225
  126MOL    H1247762   5.958   3.273   6.059 -0.6803 -0.9972 -0.0796
  126MOL    H1347763   5.861   3.300   6.316 -0.6732 -1.9147 -0.7924
  126MOL    H1447764   5.952   3.541   6.302  1.8762  0.4821  0.6516
  126MOL    H1547765   5.995   3.496   6.131 -0.6962 -3.1463 -1.6640
  126MOL    H1647766   6.071   3.417   6.262  0.7569  2.8950 -0.1423
  126MOL    H1747767   5.717   3.510   6.236  0.5008  0.2312 -0.7171
  126MOL    H1847768   5.712   3.429   6.082 -0.5708  3.5311  0.4150
  126MOL    H1947769   5.641   3.348   6.221  0.2618 -1.4273 -1.6590
  126MOL    H2047770   5.729   3.118   5.820 -0.0139  0.0792 -0.2089
  126MOL    C2147771   5.897   2.903   6.038 -0.0370  0.3464 -0.3175
  126MOL    C2247772   6.016   2.882   6.133 -0.5339 -0.6664 -1.5489
  126MOL    C2347773   6.144   2.966   6.102  0.5982  0.4279 -0.2030
  126MOL    O2447774   6.169   3.012   5.994 -0.3048  0.1662 -0.1199
  126MOL    N2547775   6.225   2.973   6.204 -0.5076 -0.0223  0.2200
  126MOL    C2647776   6.358   3.028   6.203 -0.1034 -0.3093 -0.5118
  126MOL    C2747777   6.457   2.912   6.237  0.1376 -0.4078 -0.4769
  126MOL    C2847778   6.365   3.152   6.291  0.0851  0.1033 -0.1247
  126MOL    H2947779   5.926   2.843   5.952  1.1661 -0.6785  0.7728
  126MOL    H3047780   5.805   2.856   6.072 -1.3459  2.7637 -0.3871
  126MOL    H3147781   5.976   2.909   6.230  1.8624  2.4727 -1.3314
  126MOL    H3247782   6.208   2.914   6.284  1.1829 -1.6567 -0.5603
  126MOL    H3347783   6.378   3.065   6.103 -3.4254 -2.1900 -1.9621
  126MOL    H3447784   6.562   2.941   6.243  0.3958 -1.5833  1.1523
  126MOL    H3547785   6.441   2.835   6.161 -2.8578  0.1374 -0.4492
  126MOL    H3647786   6.444   2.869   6.337  1.8835  2.3555  1.0104
  126MOL    H3747787   6.280   3.213   6.260  0.5404  0.3411 -0.9151
  126MOL    H3847788   6.369   3.130   6.398 -0.2737  0.5252 -0.0244
  126MOL    H3947789   6.450   3.213   6.263 -1.6126  2.0850 -1.0636
  126MOL    C4047790   6.069   2.736   6.135 -0.6234 -0.3713 -0.4209
  126MOL    C4147791   6.006   2.639   6.236 -0.2631  0.4009 -0.3553
  126MOL    C4247792   6.060   2.674   6.376 -0.1856  0.6047  0.2550
  126MOL    O4347793   6.174   2.729   6.392  0.9830 -0.0989  0.2498
  126MOL    N4447794   5.985   2.643   6.485 -0.4611  0.3420  0.6071
  126MOL    C4547795   6.019   2.680   6.621  0.0823  0.0948 -0.3562
  126MOL    C4647796   5.898   2.711   6.701 -0.3339 -0.1713 -0.4823
  126MOL    C4747797   6.096   2.563   6.683 -0.5474  0.5382 -0.4934
  126MOL    H4847798   6.176   2.722   6.125 -0.1477  3.5331 -1.4783
  126MOL    H4947799   6.036   2.696   6.039 -0.1459  1.3981 -1.3347
  126MOL    H5047800   5.898   2.646   6.224 -0.2250  1.8339  0.0093
  126MOL    H5147801   5.895   2.604   6.464 -0.4373 -0.3421  1.7309
  126MOL    H5247802   6.088   2.764   6.630  0.3694 -0.3125  1.4648
  126MOL    H5347803   5.846   2.615   6.700 -2.3122  0.8748 -2.7664
  126MOL    H5447804   5.831   2.781   6.651 -2.5268 -2.9840 -1.6485
  126MOL    H5547805   5.911   2.718   6.809 -1.4477 -2.6478 -0.1346
  126MOL    H5647806   6.101   2.565   6.792  1.7630 -0.9560 -0.5315
  126MOL    H5747807   6.202   2.586   6.671 -0.6100  1.5923  0.8406
  126MOL    H5847808   6.081   2.463   6.643 -0.1789  0.0184  0.6325
  126MOL    C5947809   6.025   2.487   6.200 -0.5546  0.4377 -0.4663
  126MOL    C6047810   6.171   2.429   6.192  0.2332  0.6369  0.5981
  126MOL    C6147811   6.229   2.430   6.042 -0.1549 -0.6656  0.0452
  126MOL    O6247812   6.163   2.372   5.957  0.3721 -0.0122 -0.3283
  126MOL    N6347813   6.332   2.519   6.016 -0.1491 -0.4845 -0.4910
  126MOL    C6447814   6.394   2.524   5.888 -0.0454  0.1911  0.3282
  126MOL    C6547815   6.490   2.405   5.869  0.1410  0.4077  0.0456
  126MOL    C6647816   6.309   2.560   5.759 -0.0230 -0.4015 -0.1036
  126MOL    H6747817   5.975   2.420   6.271  1.4426 -0.1600  0.4096
  126MOL    H6847818   5.955   2.468   6.118 -3.0459  2.3032  1.1790
  126MOL    H6947819   6.241   2.484   6.255  3.1027 -1.3923 -0.6736
  126MOL    H7047820   6.359   2.590   6.083 -0.3293 -0.0643 -0.8627
  126MOL    H7147821   6.460   2.610   5.901  0.6920 -0.4776  0.9958
  126MOL    H7247822   6.551   2.374   5.954  0.5708 -0.7826 -0.6791
  126MOL    H7347823   6.426   2.320   5.846  1.4461  0.1158 -2.6240
  126MOL    H7447824   6.557   2.420   5.785 -0.1826  0.8082 -0.1406
  126MOL    H7547825   6.382   2.577   5.679  3.0225  0.3851  2.6919
  126MOL    H7647826   6.239   2.487   5.720 -0.4632  0.8149 -1.6385
  126MOL    H7747827   6.258   2.654   5.781  1.6920  0.6111 -0.3450
  126MOL    C7847828   6.176   2.278   6.242  0.8113 -0.8514  0.1626
  126MOL    C7947829   6.309   2.238   6.296 -0.2939 -0.5251  0.0778
  126MOL    C8047830   6.351   2.320   6.415  1.0274  0.6135 -0.1388
  126MOL    O8147831   6.274   2.337   6.509  0.3031  0.1002  0.5471
  126MOL    N8247832   6.480   2.367   6.411  0.2589 -0.8018  0.1287
  126MOL    C8347833   6.532   2.464   6.512  0.7359  0.1405 -0.1726
  126MOL    C8447834   6.687   2.440   6.549  0.7354 -0.5700  0.3886
  126MOL    C8547835   6.505   2.610   6.467 -0.0387  0.3184  0.0967
  126MOL    H8647836   6.140   2.216   6.161 -1.3130 -0.0997  0.4948
  126MOL    H8747837   6.102   2.273   6.322 -1.3861 -0.3988 -1.7637
  126MOL    H8847838   6.375   2.253   6.210 -0.1398  0.2015  0.3256
  126MOL    H8947839   6.533   2.359   6.325  1.1748  1.4394  0.4678
  126MOL    H9047840   6.476   2.462   6.605  2.1424  3.5075  0.8404
  126MOL    H9147841   6.747   2.438   6.458  0.6950  1.5405  0.3056
  126MOL    H9247842   6.719   2.523   6.612 -2.9315  1.3478 -0.1349
  126MOL    H9347843   6.707   2.345   6.598 -0.5202 -1.3523 -0.5915
  126MOL    H9447844   6.583   2.634   6.395  2.7303 -0.9077  2.5901
  126MOL    H9547845   6.505   2.683   6.548 -0.0975  1.3243 -0.8014
  126MOL    H9647846   6.412   2.624   6.412 -0.1451 -1.0346 -0.0972
  126MOL    C9747847   6.308   2.084   6.332  0.7669  0.4052 -0.3510
  126MOL    C9847848   6.442   2.019   6.380  0.0285 -0.9081 -0.1096
  126MOL    C9947849   6.566   2.045   6.297  0.2449  0.8316  0.5316
  126MOL   O10047850   6.571   2.009   6.182 -0.2818 -0.3955  0.0179
  126MOL   N10147851   6.675   2.096   6.358  0.0096 -1.0867 -0.2799
  126MOL   C10247852   6.807   2.105   6.298  0.2684 -0.4893 -0.0260
  126MOL   C10347853   6.822   2.243   6.233  0.1375  0.0732 -0.0567
  126MOL   C10447854   6.897   2.074   6.418 -0.2258  0.7043 -1.1408
  126MOL   H10547855   6.265   2.021   6.255 -0.4666 -1.8696  2.1537
  126MOL   H10647856   6.232   2.077   6.409  1.3188  0.6570  0.2171
  126MOL   H10747857   6.465   2.076   6.470  1.7998 -0.4853 -0.8177
  126MOL   H10847858   6.666   2.109   6.458 -2.9719 -0.4780 -0.5871
  126MOL   H10947859   6.828   2.026   6.227 -1.7487  0.9137 -2.2500
  126MOL   H11047860   6.819   2.334   6.294  1.5290 -0.1970  0.4348
  126MOL   H11147861   6.925   2.239   6.197  0.1288 -2.7755  0.1529
  126MOL   H11247862   6.754   2.264   6.150 -1.2083  0.3907  1.0979
  126MOL   H11347863   7.002   2.080   6.389  0.5720  0.8667  1.6451
  126MOL   H11447864   6.876   1.984   6.476  1.0065  1.0045 -0.2079
  126MOL   H11547865   6.879   2.155   6.488 -0.3880 -0.6557  0.4357
  126MOL   C11647866   6.432   1.873   6.427 -0.2253  0.1739 -0.3246
  126MOL   C11747867   6.425   1.759   6.318  0.3256  0.3362  0.1117
  126MOL   C11847868   6.297   1.761   6.232  0.7967 -1.1158  0.2323
  126MOL   O11947869   6.187   1.736   6.285 -0.0865 -0.0684 -0.2239
  126MOL   N12047870   6.307   1.792   6.097  0.0395 -0.2019 -0.0512
  126MOL   C12147871   6.193   1.782   6.006  0.5900  0.4301 -0.0167
  126MOL   C12247872   6.147   1.927   5.973  0.2195 -0.4183  0.4322
  126MOL   C12347873   6.233   1.700   5.888 -0.0148 -0.4877  0.0658
  126MOL   H12447874   6.352   1.853   6.499 -0.6396 -0.1182 -0.8673
  126MOL   H12547875   6.527   1.851   6.475  0.1839 -0.2940 -1.3398
  126MOL   H12647876   6.504   1.776   6.245 -0.3205  1.2954 -0.3846
  126MOL   H12747877   6.402   1.789   6.062  0.5973  0.6448  1.3769
  126MOL   H12847878   6.108   1.729   6.049  0.4693  0.7943  0.1955
  126MOL   H12947879   6.061   1.921   5.907 -0.2967  0.3574  1.0372
  126MOL   H13047880   6.222   1.993   5.929 -0.7201  0.9601  0.8713
  126MOL   H13147881   6.109   1.977   6.061  1.1562  5.0478 -2.0908
  126MOL   H13247882   6.287   1.768   5.823  1.8944  0.7281  2.8119
  126MOL   H13347883   6.293   1.615   5.920  1.0830  0.6360  1.0590
  126MOL   H13447884   6.151   1.656   5.832 -1.2822  0.4381  1.1706
  126MOL   C13547885   6.423   1.619   6.387  0.0870  0.1093 -0.3387
  126MOL   C13647886   6.463   1.508   6.294  0.0149  0.2387  0.7287
  126MOL   C13747887   6.606   1.516   6.235  0.1703  0.2047  0.1242
  126MOL   O13847888   6.622   1.463   6.127 -0.6321  0.3233  0.3430
  126MOL   N13947889   6.700   1.580   6.302  0.1724  0.0298  0.2228
  126MOL   C14047890   6.840   1.604   6.268 -0.0202 -0.7484  0.0006
  126MOL   C14147891   6.927   1.482   6.317  0.1301  0.6004  0.4851
  126MOL   C14247892   6.876   1.738   6.336 -0.5248 -0.6847 -0.4638
  126MOL   H14347893   6.328   1.600   6.437  0.3365  2.4697  1.1026
  126MOL   H14447894   6.491   1.612   6.471 -0.0939  0.3768 -0.1678
  126MOL   H14547895   6.386   1.505   6.216 -0.7305 -0.8312  1.4924
  126MOL   H14647896   6.667   1.625   6.386 -0.8576 -1.2957  0.5479
  126MOL   H14747897   6.853   1.611   6.160  0.0738 -0.0101  0.0616
  126MOL   H14847898   7.007   1.484   6.244 -0.5022  1.8101 -0.1806
  126MOL   H14947899   6.953   1.475   6.423  0.0751 -1.5250  0.3839
  126MOL   H15047900   6.896   1.379   6.297  0.8741  0.6845 -1.1272
  126MOL   H15147901   6.863   1.727   6.443 -0.6103  0.2699 -0.3723
  126MOL   H15247902   6.800   1.808   6.299  0.8165  0.0626 -1.9041
  126MOL   H15347903   6.977   1.766   6.306  0.3134 -1.0332  1.9882
  126MOL   C15447904   6.441   1.365   6.359 -0.3815 -0.6467  0.0960
  126MOL   C15547905   6.379   1.255   6.264  0.2442  0.4694  0.0824
  126MOL   C15647906   6.237   1.287   6.224 -0.1071  0.0378  0.0017
  126MOL   O15747907   6.157   1.290   6.314  0.0135 -0.3004 -0.1880
  126MOL   N15847908   6.208   1.282   6.096  0.3444 -0.5202 -0.5371
  126MOL   C15947909   6.067   1.288   6.055  0.2161 -0.0024 -0.2300
  126MOL   C16047910   6.043   1.219   5.916 -0.2009  0.5506  0.2774
  126MOL   C16147911   6.010   1.427   6.048 -0.2017  0.4287 -0.7085
  126MOL   H16247912   6.376   1.369   6.446  0.4407  3.1741  0.6484
  126MOL   H16347913   6.537   1.327   6.393  0.5693  0.6779 -1.0392
  126MOL   H16447914   6.442   1.252   6.174  1.4976  0.1080  0.9540
  126MOL   H16547915   6.284   1.272   6.030  1.7793 -0.5189  1.0539
  126MOL   H16647916   6.016   1.219   6.122 -1.5976  0.9880 -0.5573
  126MOL   H16747917   5.942   1.188   5.891 -0.3405  2.7573 -2.0303
  126MOL   H16847918   6.083   1.280   5.835  2.3440 -2.3895 -0.8352
  126MOL   H16947919   6.100   1.126   5.909 -0.4980  0.3917 -0.0202
  126MOL   H17047920   5.928   1.447   5.978 -0.1270  0.2840 -0.8335
  126MOL   H17147921   6.083   1.504   6.025  1.2028 -0.1761  1.6254
  126MOL   H17247922   5.978   1.450   6.149 -0.7444 -2.4267 -0.2008
  126MOL   C17347923   6.379   1.119   6.333 -0.5533  0.2900 -0.5106
  126MOL   C17447924   6.339   1.002   6.237  0.4520  0.6150 -0.2863
  126MOL   C17547925   6.446   0.989   6.124  0.2523  0.2155  0.1347
  126MOL   O17647926   6.568   0.996   6.142  0.0683 -0.5391  0.4922
  126MOL   N17747927   6.393   0.999   6.001 -0.8364 -0.7774 -0.0956
  126MOL   C17847928   6.457   1.062   5.886  0.0550 -0.3738  0.4128
  126MOL   C17947929   6.356   1.146   5.796 -0.1169 -0.3911  0.1020
  126MOL   C18047930   6.526   0.953   5.805 -0.5652 -0.4209  0.1254
  126MOL   H18147931   6.317   1.123   6.422  0.1588 -0.1948  0.0191
  126MOL   H18247932   6.480   1.094   6.367 -1.0167 -2.9875 -1.3576
  126MOL   H18347933   6.242   1.020   6.192  0.1753 -2.5944 -1.0897
  126MOL   H18447934   6.293   0.987   5.992 -0.9457 -1.0328  1.3793
  126MOL   H18547935   6.545   1.119   5.918  0.5212 -0.1862 -1.1508
  126MOL   H18647936   6.273   1.082   5.767 -1.7665  2.4376 -1.6036
  126MOL   H18747937   6.410   1.180   5.708  1.1866 -1.0736  0.6317
  126MOL   H18847938   6.310   1.237   5.834  0.2607  0.0257 -0.4262
  126MOL   H18947939   6.600   0.998   5.738 -0.2149  0.2657  0.9714
  126MOL   H19047940   6.453   0.890   5.754 -0.7258  0.0790 -0.2654
  126MOL   H19147941   6.581   0.882   5.867 -1.2910  2.2771  3.9922
  126MOL   C19247942   6.335   0.867   6.322  0.1735 -0.6228 -0.1177
  126MOL   C19347943   6.302   0.740   6.241  0.1585 -0.4313 -0.1995
  126MOL   C19447944   6.174   0.750   6.145 -0.4395  0.0286 -0.3228
  126MOL   O19547945   6.077   0.810   6.190  0.0280 -0.4975 -0.0522
  126MOL   N19647946   6.176   0.683   6.034 -0.1029 -0.3228 -0.0985
  126MOL   C19747947   6.068   0.666   5.935 -0.6199 -1.0879 -0.0878
  126MOL   C19847948   6.069   0.763   5.820 -0.2699 -0.7131  0.6331
  126MOL   C19947949   6.057   0.526   5.893 -0.1748 -0.3212 -0.7014
  126MOL   H20047950   6.266   0.877   6.406  0.2217 -1.7380  0.0619
  126MOL   H20147951   6.435   0.855   6.363 -0.4425  0.1903  1.7078
  126MOL   H20247952   6.382   0.725   6.168  1.2132 -0.9224  1.0507
  126MOL   H20347953   6.264   0.637   6.018 -0.2807 -1.0910  1.0989
  126MOL   H20447954   5.974   0.676   5.989 -1.3231 -2.0143 -1.1332
  126MOL   H20547955   6.059   0.865   5.856  0.0850 -0.0842 -0.9931
  126MOL   H20647956   5.986   0.749   5.750  0.4914 -1.9651 -0.0462
  126MOL   H20747957   6.149   0.753   5.747  1.3432  0.0253  2.2577
  126MOL   H20847958   6.003   0.468   5.969  0.6364  2.3364  2.0103
  126MOL   H20947959   6.144   0.461   5.884 -1.1520 -1.6946 -0.3556
  126MOL   H21047960   6.003   0.525   5.799 -0.0648  1.2242 -0.7848
  126MOL   C21147961   6.293   0.621   6.340  0.2450  0.5405  0.2302
  126MOL   C21247962   6.296   0.485   6.269  0.4027  0.2277  0.2088
  126MOL   C21347963   6.412   0.467   6.169  0.4186 -0.7381 -0.2166
  126MOL   O21447964   6.392   0.439   6.054 -0.5128 -0.2640 -0.2873
  126MOL   N21547965   6.537   0.474   6.220  0.5691 -0.5104  0.3524
  126MOL   C21647966   6.665   0.490   6.146  0.0103 -0.4495 -0.0326
  126MOL   C21747967   6.768   0.389   6.186 -0.0570  0.8886 -0.2699
  126MOL   C21847968   6.727   0.622   6.167 -0.0275  0.3799 -0.1645
  126MOL   H21947969   6.197   0.631   6.391  0.8029  0.0098  1.4110
  126MOL   H22047970   6.368   0.622   6.419  1.2310 -1.0507 -0.6611
  126MOL   H22147971   6.203   0.477   6.212 -0.5796 -1.9227  2.0192
  126MOL   H22247972   6.539   0.486   6.320 -0.8590  1.6947  0.1529
  126MOL   H22347973   6.646   0.479   6.040  0.1704 -2.5032  0.1423
  126MOL   H22447974   6.862   0.388   6.132  0.2446  0.6413  0.2652
  126MOL   H22547975   6.793   0.405   6.291 -0.8742 -1.7370  0.3494
  126MOL   H22647976   6.731   0.287   6.175 -1.4538  0.8278  4.1481
  126MOL   H22747977   6.800   0.654   6.093  0.5279  0.6367  0.4938
  126MOL   H22847978   6.779   0.636   6.262  1.6158  0.0617 -1.0138
  126MOL   H22947979   6.649   0.699   6.165  0.3251  0.7959  1.5272
  126MOL   C23047980   6.295   0.365   6.370 -0.0945  0.5792 -0.3222
  126MOL   C23147981   6.238   0.225   6.315 -0.3276 -0.3346  1.1140
  126MOL   C23247982   6.329   0.115   6.375  0.6019 -0.0529  0.2592
  126MOL   O23347983   6.314   0.082   6.492  0.1391  0.0464 -0.2995
  126MOL   N23447984   6.432   0.080   6.294  0.0512  0.1824  0.1648
  126MOL   C23547985   6.546   7.826   6.314  0.1884 -0.3935 -0.0900
  126MOL   C23647986   6.633   7.813   6.193 -0.5259 -0.9683 -0.7342
  126MOL   C23747987   6.617   0.021   6.447  0.2677 -0.1377 -0.5866
  126MOL   H23847988   6.232   0.392   6.455 -1.8117 -0.8871 -1.0812
  126MOL   H23947989   6.389   0.342   6.418 -0.9390  0.3235  1.2351
  126MOL   H24047990   6.253   0.220   6.208  1.9243  0.3463  1.3707
  126MOL   H24147991   6.441   0.124   6.203 -0.8725  1.5132  0.7028
  126MOL   H24247992   6.506   7.729   6.342 -1.8189  1.2274  2.8817
  126MOL   H24347993   6.709   7.735   6.201  1.7708  1.2715  0.0566
  126MOL   H24447994   6.576   7.818   6.100 -1.0513 -0.4857 -0.3862
  126MOL   H24547995   6.692   0.066   6.171 -2.2110 -0.0719 -1.6796
  126MOL   H24647996   6.679   0.110   6.452 -1.2965  0.9164  0.4466
  126MOL   H24747997   6.675   7.772   6.483  0.9522 -0.8627 -3.2763
  126MOL   H24847998   6.549   0.025   6.532  2.7391 -1.4745  1.5446
  126MOL   C24947999   6.091   0.222   6.348  0.5134  0.4792 -0.4357
  126MOL   C25048000   5.998   0.142   6.247 -0.2076 -0.2080 -0.4269
  126MOL   C25148001   5.857   0.199   6.226  0.1411 -0.0341 -0.2093
  126MOL   O25248002   5.785   0.212   6.326 -0.2800 -0.0712 -0.2927
  126MOL   N25348003   5.814   0.220   6.105  0.5055 -0.5868  0.0791
  126MOL   C25448004   5.681   0.267   6.065  0.3086 -0.0828  0.5094
  126MOL   C25548005   5.684   0.293   5.917 -0.7238  0.3956  0.8685
  126MOL   C25648006   5.569   0.181   6.108  0.2838 -0.7049 -0.4009
  126MOL   H25748007   6.056   0.325   6.355 -0.0779  0.2989 -0.7802
  126MOL   H25848008   6.081   0.190   6.451 -1.2337 -1.2602 -1.1202
  126MOL   H25948009   6.039   0.147   6.146 -0.1935  3.0138 -0.3071
  126MOL   H26048010   5.878   0.203   6.028 -1.2009 -2.9886 -0.8298
  126MOL   H26148011   5.670   0.363   6.115 -0.0740  1.1531 -1.8707
  126MOL   H26248012   5.751   0.375   5.888 -0.5618  0.4823  1.4755
  126MOL   H26348013   5.705   0.210   5.850  1.0375  1.2340  0.3378
  126MOL   H26448014   5.582   0.328   5.899 -0.4622  0.4730 -0.5257
  126MOL   H26548015   5.475   0.236   6.102 -0.1981 -1.7686 -2.9410
  126MOL   H26648016   5.563   0.085   6.057  1.2167 -0.6206 -0.6745
  126MOL   H26748017   5.582   0.156   6.214  0.7639  1.4194  0.0656
  126MOL   C26848018   5.989   7.828   6.271  1.0082  0.2798  0.3964
  126MOL   C26948019   5.943   7.744   6.147 -0.6324 -0.1081  0.4701
  126MOL   C27048020   6.044   7.739   6.033  0.0122 -0.8957  0.2677
  126MOL   O27148021   6.032   7.807   5.934 -0.1183  0.0135 -0.0129
  126MOL   N27248022   6.149   7.658   6.052  0.3815 -0.4267 -0.1839
  126MOL   C27348023   6.257   7.628   5.963 -0.4843 -0.4284 -0.9253
  126MOL   C27448024   6.382   7.603   6.049 -0.1158 -0.2513 -0.7047
  126MOL   C27548025   6.210   7.524   5.864 -0.6166 -0.9518 -0.0744
  126MOL   H27648026   6.085   7.789   6.307  1.1747  0.1038 -0.2229
  126MOL   H27748027   5.914   7.809   6.348 -1.8677  0.0833 -2.3782
  126MOL   H27848028   5.853   7.784   6.101 -0.9661 -2.0355 -0.6007
  126MOL   H27948029   6.120   7.589   6.120 -2.2895  0.5693 -0.2302
  126MOL   H28048030   6.281   7.723   5.914  1.6633 -1.1668 -1.3554
  126MOL   H28148031   6.368   7.517   6.115 -0.6315 -0.3377 -0.9175
  126MOL   H28248032   6.469   7.589   5.985 -0.4926 -0.4124 -1.1918
  126MOL   H28348033   6.411   7.684   6.115  0.2950  1.3598 -2.8300
  126MOL   H28448034   6.304   7.492   5.818  0.3534  0.5879  0.7942
  126MOL   H28548035   6.171   7.439   5.919 -1.3218 -0.3350  0.3754
  126MOL   H28648036   6.147   7.560   5.782 -0.2054  3.0105  1.2153
  126MOL   C28748037   5.897   7.601   6.193 -0.4731 -0.5999  0.1890
  126MOL   C28848038   5.743   7.605   6.236 -0.7137 -0.2687  0.2399
  126MOL   C28948039   5.719   7.665   6.369  0.1463  0.8696 -0.3928
  126MOL   O29048040   5.790   7.627   6.466  0.6485  0.1664  0.3777
  126MOL   N29148041   5.624   7.755   6.380  0.4497 -0.2535  0.1421
  126MOL   C29248042   5.552   7.785   6.501 -0.1032  0.1343 -0.1700
  126MOL   C29348043   5.480   0.087   6.485 -0.5220 -0.0924  0.3146
  126MOL   C29448044   5.454   7.677   6.548  0.1068  0.5640  0.5767
  126MOL   H29548045   5.904   7.529   6.111  3.1102 -1.6483  1.3120
  126MOL   H29648046   5.963   7.556   6.268  1.6287 -0.4140 -1.4896
  126MOL   H29748047   5.678   7.650   6.161  0.5868  2.1452  0.5198
  126MOL   H29848048   5.568   7.770   6.297  0.2183 -0.5377  0.2502
  126MOL   H29948049   5.618   7.804   6.586 -0.0662 -0.5295 -0.0428
  126MOL   H30048050   5.392   0.095   6.548 -0.2300  2.8170  0.4166
  126MOL   H30148051   5.554   0.166   6.502 -0.8008  0.3574 -0.5624
  126MOL   H30248052   5.445   0.094   6.382  0.2765  3.2562  0.2207
  126MOL   H30348053   5.396   7.692   6.639 -0.1709  0.4131  0.4266
  126MOL   H30448054   5.372   7.676   6.475 -0.2883  3.4688  0.9199
  126MOL   H30548055   5.496   7.578   6.565 -2.1589 -0.4578  0.5058
  126MOL   C30648056   5.700   7.455   6.249  0.5342 -0.0685 -0.0855
  126MOL   C30748057   5.548   7.425   6.267 -0.2221 -0.2248  0.6376
  126MOL   C30848058   5.529   7.298   6.346 -0.1718  0.2076  0.5647
  126MOL   O30948059   5.572   7.189   6.312 -0.4501 -0.2482 -0.9214
  126MOL   N31048060   5.450   7.309   6.454  0.0781 -0.4796 -0.6185
  126MOL   C31148061   5.386   7.202   6.533  0.4773 -0.3581  0.4576
  126MOL   C31248062   5.298   7.255   6.646 -0.8172 -0.3365 -0.4041
  126MOL   C31348063   5.305   7.108   6.438 -0.4277 -0.4740  0.0200
  126MOL   H31448064   5.734   7.391   6.167  1.3019  0.6769 -0.3546
  126MOL   H31548065   5.755   7.416   6.334 -0.6212  2.1750  1.7491
  126MOL   H31648066   5.510   7.512   6.320 -0.8574  0.0208 -0.2158
  126MOL   H31748067   5.423   7.402   6.483  1.8259  0.3648 -1.5695
  126MOL   H31848068   5.475   7.152   6.572  0.0692  0.5135  2.5830
  126MOL   H31948069   5.359   7.272   6.735  0.9589 -3.6820 -0.9102
  126MOL   H32048070   5.216   7.194   6.683  0.2774  0.0005  2.7794
  126MOL   H32148071   5.243   7.341   6.608  0.0134 -0.1976 -1.3276
  126MOL   H32248072   5.222   7.164   6.397  0.0228  0.6287  0.5855
  126MOL   H32348073   5.267   7.019   6.488  0.4525 -1.1371 -0.4709
  126MOL   H32448074   5.361   7.077   6.350 -2.4803 -1.6048 -0.9262
  126MOL   C32548075   5.482   7.420   6.133  0.1745  0.5588 -0.1458
  126MOL   C32648076   5.338   7.477   6.130  0.9626 -0.4837  0.2384
  126MOL   C32748077   5.324   7.633   6.134 -0.1755 -0.7192  0.3185
  126MOL   O32848078   5.416   7.708   6.150  0.2406 -0.6431 -0.2188
  126MOL   N32948079   5.204   7.684   6.122  0.0602  0.1247  0.1835
  126MOL   C33048080   5.166   7.823   6.137  0.0978  0.1511  0.3314
  126MOL   C33148081   5.143   0.023   6.285  0.1518  0.2754 -0.7864
  126MOL   C33248082   5.038   0.011   6.051 -0.8824 -0.1652 -0.0064
  126MOL   H33348083   5.478   7.316   6.101 -0.1486  0.6677 -0.4714
  126MOL   H33448084   5.546   7.475   6.065 -0.6491  1.8493  0.0929
  126MOL   H33548085   5.285   7.453   6.222  1.1466  0.6427  0.6344
  126MOL   H33648086   5.134   7.616   6.097  0.0015 -0.5286  2.0100
  126MOL   H33748087   5.250   0.049   6.105 -0.2784 -0.3470 -1.7110
  126MOL   H33848088   5.231   7.835   6.345 -1.6753 -2.1535  0.9588
  126MOL   H33948089   5.114   0.126   6.302 -0.4820  0.1914 -1.3163
  126MOL   H34048090   5.066   7.796   6.327  1.0644 -1.6428 -1.9293
  126MOL   H34148091   4.951   7.806   6.101 -1.4714  2.2458  1.0517
  126MOL   H34248092   5.049   7.809   5.950 -0.0284 -1.2639  0.4952
  126MOL   H34348093   5.016   0.117   6.042 -2.2014 -0.4817 -0.7233
  126MOL   C34448094   5.264   7.413   6.011 -0.1710 -0.0495 -0.2989
  126MOL   C34548095   5.174   7.296   6.063  0.0246  0.1808 -0.0987
  126MOL   C34648096   5.054   7.345   6.145  0.3568 -0.6256  0.1918
  126MOL   O34748097   5.012   7.463   6.133 -0.4067  0.7582  0.4620
  126MOL   N34848098   5.003   7.249   6.227  0.6840 -0.4412 -0.2444
  126MOL   C34948099   4.892   7.278   6.317 -0.7282 -0.0446  0.3999
  126MOL   C35048100   4.821   7.143   6.348 -0.1085 -0.7846  0.4411
  126MOL   C35148101   4.939   7.360   6.445 -0.1838 -0.5561 -0.3189
  126MOL   H35248102   5.342   7.382   5.941  1.0645  1.7113  0.2572
  126MOL   H35348103   5.200   7.482   5.956  2.6024  2.1920 -0.8599
  126MOL   H35448104   5.241   7.240   6.128  2.9954  2.3149 -1.1508
  126MOL   H35548105   5.049   7.159   6.232  0.1557 -0.6006  2.8543
  126MOL   H35648106   4.815   7.337   6.267  0.4920 -0.5155 -2.1106
  126MOL   H35748107   4.758   7.166   6.433 -0.0409 -2.7092  1.0264
  126MOL   H35848108   4.761   7.118   6.260  3.0667  1.2125 -2.4145
  126MOL   H35948109   4.885   7.060   6.378  0.4555 -0.7742 -0.6748
  126MOL   H36048110   4.858   7.386   6.514  1.8039  2.8312  0.8601
  126MOL   H36148111   5.009   7.300   6.504  0.2822  0.4539  0.1583
  126MOL   H36248112   4.996   7.448   6.417 -0.6702  0.1556  0.8988
  126MOL   C36348113   5.119   7.225   5.940 -0.3018  0.1012 -0.2253
  126MOL   C36448114   5.065   7.084   5.960 -0.1701 -0.6685 -0.3305
  126MOL   C36548115   5.153   6.998   6.056  0.1324 -1.0626 -0.1296
  126MOL   O36648116   5.125   6.987   6.175  0.2980 -0.6201 -1.0138
  126MOL   N36748117   5.258   6.941   5.991  0.4192 -0.4179  0.3432
  126MOL   C36848118   5.384   6.902   6.045 -0.7040 -0.3158 -0.2061
  126MOL   C36948119   5.372   6.758   6.101 -0.1262 -0.6702 -0.3012
  126MOL   C37048120   5.498   6.910   5.937  0.0881 -0.2931  0.0888
  126MOL   H37148121   5.208   7.208   5.879 -0.1995  0.4206 -0.1673
  126MOL   H37248122   5.053   7.295   5.889  0.6968  1.3412  0.1501
  126MOL   H37348123   5.055   7.039   5.862  1.5296  1.6329 -1.6309
  126MOL   H37448124   5.250   6.941   5.891 -0.7727  0.7071  0.4401
  126MOL   H37548125   5.406   6.970   6.128 -1.6072 -0.3976  0.1104
  126MOL   H37648126   5.293   6.766   6.175  1.1437 -2.3611  1.2722
  126MOL   H37748127   5.332   6.696   6.021 -2.0055 -1.3810  1.1723
  126MOL   H37848128   5.465   6.722   6.145 -1.3021 -1.1673  1.8194
  126MOL   H37948129   5.588   6.859   5.972 -0.4817 -2.2239 -1.1793
  126MOL   H38048130   5.466   6.856   5.849  0.0394 -3.2149  1.8414
  126MOL   H38148131   5.524   7.010   5.902 -1.1028  0.2805  0.8284
  126MOL   H38248132   4.963   7.080   5.997 -0.0007  1.4378  0.4855
  127MOL     C148133   4.009   3.201   4.252  0.0634 -0.0680 -0.7449
  127MOL     C248134   4.127   3.104   4.257 -0.9214 -0.4213  0.0986
  127MOL     C348135   4.259   3.194   4.246  0.6290  0.0736  0.0728
  127MOL     O448136   4.292   3.266   4.337  0.1394  0.0950 -0.0793
  127MOL     N548137   4.335   3.187   4.131 -0.2050  0.0178 -0.4820
  127MOL     C648138   4.459   3.261   4.110  0.2387  0.0001  0.1624
  127MOL     C748139   4.573   3.200   4.193 -0.2715 -1.0664  0.4790
  127MOL     C848140   4.490   3.260   3.961 -0.0959  0.1929  0.7342
  127MOL     H948141   3.925   3.132   4.242  1.5223 -1.5011 -3.9000
  127MOL    H1048142   4.021   3.273   4.171  1.2025  0.5980  0.0024
  127MOL    H1148143   4.139   3.039   4.171  0.9326  0.3934 -0.2690
  127MOL    H1248144   4.296   3.129   4.058 -3.0590  1.1766  0.0200
  127MOL    H1348145   4.433   3.362   4.141 -0.8805 -0.0698 -0.5218
  127MOL    H1448146   4.608   3.102   4.162 -1.4129 -1.3108 -0.0640
  127MOL    H1548147   4.562   3.199   4.302  1.2571  0.2978  0.6622
  127MOL    H1648148   4.669   3.251   4.187 -1.5274  1.3346 -0.0881
  127MOL    H1748149   4.403   3.274   3.897  1.8520 -0.3270 -2.1196
  127MOL    H1848150   4.570   3.332   3.945 -0.0224 -0.0807 -0.1334
  127MOL    H1948151   4.529   3.161   3.938 -0.8648 -0.4061  1.9906
  127MOL    H2048152   4.005   3.250   4.349  0.1811 -1.5668  0.0375
  127MOL    C2148153   4.118   3.003   4.377  0.2243 -0.2590 -0.1748
  127MOL    C2248154   4.172   2.858   4.346 -0.2610  0.2168 -0.1167
  127MOL    C2348155   4.104   2.789   4.220 -0.0282 -0.0785  0.1536
  127MOL    O2448156   4.176   2.716   4.151  0.8112  0.2943  0.7289
  127MOL    N2548157   3.986   2.824   4.183 -0.4291  0.0103 -0.4733
  127MOL    C2648158   3.912   2.771   4.072 -0.6230 -0.6997 -0.6113
  127MOL    C2748159   3.935   2.843   3.936  0.2162 -0.4538  0.5645
  127MOL    C2848160   3.764   2.753   4.109  0.1206  0.2173  0.6711
  127MOL    H2948161   4.020   3.000   4.424  0.5335  1.0120  0.5653
  127MOL    H3048162   4.178   3.039   4.461 -0.9764 -0.6841  0.8804
  127MOL    H3148163   4.271   2.888   4.310  0.5907  0.0084  2.0088
  127MOL    H3248164   3.943   2.900   4.233  0.4070  1.2578 -1.5893
  127MOL    H3348165   3.940   2.667   4.057 -0.4215 -0.8084  0.4456
  127MOL    H3448166   3.870   2.796   3.862 -0.9065  0.8789  0.6903
  127MOL    H3548167   4.036   2.835   3.894  0.1775 -0.2074  0.4204
  127MOL    H3648168   3.919   2.950   3.950 -1.1991 -0.5059 -0.5797
  127MOL    H3748169   3.714   2.848   4.131 -2.6037 -1.0238  0.0855
  127MOL    H3848170   3.710   2.704   4.027  1.5542 -1.2485  0.5820
  127MOL    H3948171   3.766   2.696   4.202 -0.0491 -0.5163  0.2330
  127MOL    C4048172   4.169   2.764   4.468  0.6003  0.0767  0.5458
  127MOL    C4148173   4.238   2.807   4.599  0.0186 -0.1007 -0.3282
  127MOL    C4248174   4.384   2.844   4.586  0.6648  0.8546 -0.3873
  127MOL    O4348175   4.456   2.765   4.530  0.2117 -0.0219  0.3357
  127MOL    N4448176   4.417   2.969   4.619 -0.0149  0.5151 -0.1192
  127MOL    C4548177   4.552   3.022   4.594  0.4167 -0.0561 -0.2073
  127MOL    C4648178   4.539   3.171   4.616  0.1701 -0.6154  0.4900
  127MOL    C4748179   4.660   2.957   4.684 -0.0571  0.2659 -0.1604
  127MOL    H4848180   4.208   2.668   4.436 -1.2142  0.1618 -2.0776
  127MOL    H4948181   4.062   2.751   4.486  0.3411  0.0268 -0.9781
  127MOL    H5048182   4.180   2.894   4.627  2.0011  0.7151  1.3601
  127MOL    H5148183   4.344   3.028   4.656 -1.0814 -0.6446 -0.3534
  127MOL    H5248184   4.581   2.997   4.492 -0.1059  1.3624 -0.7040
  127MOL    H5348185   4.463   3.209   4.548  0.7961  0.6919  0.5036
  127MOL    H5448186   4.633   3.209   4.577  0.4179 -1.2674  0.4552
  127MOL    H5548187   4.515   3.201   4.718 -2.7820 -1.6935  0.1647
  127MOL    H5648188   4.753   3.014   4.684  0.5862 -0.6610  3.0041
  127MOL    H5748189   4.678   2.855   4.650 -0.2415  0.2791 -0.3025
  127MOL    H5848190   4.635   2.940   4.789 -1.5132 -0.7825 -0.6613
  127MOL    C5948191   4.221   2.693   4.704 -0.5944 -0.6573  0.6621
  127MOL    C6048192   4.183   2.738   4.848  0.4566  0.8146 -0.0275
  127MOL    C6148193   4.311   2.793   4.915  0.0716  0.0128  0.8846
  127MOL    O6248194   4.419   2.736   4.896  0.5830 -0.5219  0.1083
  127MOL    N6348195   4.304   2.906   4.984  0.1634  0.7911  0.5616
  127MOL    C6448196   4.418   2.959   5.063  0.1519  0.1756 -0.0951
  127MOL    C6548197   4.480   3.089   5.004 -0.6214 -0.4525  0.3452
  127MOL    C6648198   4.378   2.991   5.209 -0.0162  0.3052 -0.0285
  127MOL    H6748199   4.143   2.628   4.666 -2.1122  0.8623  1.1096
  127MOL    H6848200   4.311   2.632   4.693 -1.3841 -1.2510 -3.1675
  127MOL    H6948201   4.104   2.813   4.843 -1.4199 -0.9076  2.6167
  127MOL    H7048202   4.215   2.952   4.996 -0.5835 -1.0043  2.0336
  127MOL    H7148203   4.490   2.879   5.078 -1.8086 -1.3522  1.5686
  127MOL    H7248204   4.419   3.180   5.006  0.0671 -0.0133  2.0658
  127MOL    H7348205   4.571   3.122   5.053  0.3530 -1.0984 -0.9961
  127MOL    H7448206   4.505   3.071   4.899 -2.7555  0.8960 -0.4415
  127MOL    H7548207   4.326   2.908   5.257 -1.1604  1.4008  0.6788
  127MOL    H7648208   4.458   3.018   5.278 -0.5674  2.0159 -0.0302
  127MOL    H7748209   4.315   3.080   5.212  2.2297  1.9892 -1.0838
  127MOL    C7848210   4.114   2.618   4.921 -0.6499 -0.5568  0.1787
  127MOL    C7948211   4.063   2.649   5.063  0.0403  0.6394 -0.5263
  127MOL    C8048212   3.969   2.772   5.060 -0.2024  0.2431  0.3646
  127MOL    O8148213   3.862   2.773   4.996  0.0044  0.4773  0.6861
  127MOL    N8248214   4.016   2.884   5.121 -0.3497  0.1402 -0.1647
  127MOL    C8348215   3.954   3.015   5.114  1.1126  0.0465 -0.1730
  127MOL    C8448216   3.963   3.088   5.245  0.9306 -0.0362  0.2273
  127MOL    C8548217   4.002   3.096   4.990 -0.0061  0.5640 -0.1753
  127MOL    H8648218   4.179   2.530   4.929  0.6394  0.3064 -0.6877
  127MOL    H8748219   4.024   2.585   4.869  0.6146 -2.5746 -0.8056
  127MOL    H8848220   4.145   2.673   5.131 -1.2177 -2.4744  2.1829
  127MOL    H8948221   4.107   2.880   5.163  0.2356 -2.6413 -1.5547
  127MOL    H9048222   3.847   3.012   5.091  0.9742  2.0781  0.1134
  127MOL    H9148223   4.063   3.075   5.287  0.8456  1.0103  0.7737
  127MOL    H9248224   3.956   3.196   5.231  0.4965 -0.2297 -1.1181
  127MOL    H9348225   3.886   3.053   5.314 -1.2290 -1.7851 -2.9533
  127MOL    H9448226   3.945   3.188   4.977 -1.0455  0.0150  0.3905
  127MOL    H9548227   3.975   3.043   4.899 -1.5587  1.4061 -0.2299
  127MOL    H9648228   4.108   3.118   4.999  0.1706 -0.2137 -0.3447
  127MOL    C9748229   3.989   2.518   5.118  0.4205  0.5317 -0.9365
  127MOL    C9848230   3.953   2.524   5.274  0.1831  0.0453 -0.1229
  127MOL    C9948231   4.087   2.562   5.350 -0.6448 -0.0907  0.4973
  127MOL   O10048232   4.197   2.514   5.317  0.0033 -0.5516 -0.2074
  127MOL   N10148233   4.068   2.631   5.463 -0.0829 -0.1308  0.1126
  127MOL   C10248234   4.157   2.684   5.563 -0.8262  0.0198  0.0288
  127MOL   C10348235   4.219   2.815   5.512 -0.0343  0.3909  0.9185
  127MOL   C10448236   4.087   2.693   5.700  0.3287 -0.3447 -0.2206
  127MOL   H10548237   4.059   2.435   5.109  1.0440  0.7932  1.3598
  127MOL   H10648238   3.905   2.500   5.051  0.4075  1.1249 -1.0856
  127MOL   H10748239   3.884   2.608   5.290  0.7972 -0.0396  3.3545
  127MOL   H10848240   3.972   2.655   5.485 -0.5439 -1.7146 -0.0680
  127MOL   H10948241   4.235   2.610   5.584  0.2552  0.7007 -1.4713
  127MOL   H11048242   4.282   2.799   5.424  0.5682 -0.2482  1.4704
  127MOL   H11148243   4.145   2.894   5.496 -0.4722  0.0060  1.0435
  127MOL   H11248244   4.282   2.850   5.594  1.0022 -0.8135  0.6462
  127MOL   H11348245   4.032   2.601   5.721  2.5519 -1.4819  0.6763
  127MOL   H11448246   4.019   2.779   5.700  1.5864  0.6929 -1.8843
  127MOL   H11548247   4.157   2.702   5.782  0.9346  0.6180 -0.8308
  127MOL   C11648248   3.883   2.400   5.329 -0.8610  0.0398  0.1613
  127MOL   C11748249   3.967   2.275   5.382 -0.0135  0.1243 -0.1770
  127MOL   C11848250   4.048   2.214   5.273 -0.1676 -0.3926  0.5025
  127MOL   O11948251   3.985   2.166   5.180 -0.5847  0.6388  0.5339
  127MOL   N12048252   4.181   2.219   5.291  0.1580  0.4888  0.7430
  127MOL   C12148253   4.276   2.152   5.202  0.3834 -0.1097  0.0137
  127MOL   C12248254   4.305   2.216   5.070  0.2899 -0.3804 -0.4033
  127MOL   C12348255   4.409   2.119   5.273  0.0128  0.2359  0.6178
  127MOL   H12448256   3.813   2.366   5.253 -0.5715  0.4486 -0.2872
  127MOL   H12548257   3.824   2.436   5.413 -0.1224 -1.5078  1.3782
  127MOL   H12648258   4.029   2.319   5.461  0.4404 -2.7649  1.1493
  127MOL   H12748259   4.217   2.281   5.362 -3.7770  1.2574  2.1670
  127MOL   H12848260   4.223   2.059   5.180  0.4035 -0.1462  0.1195
  127MOL   H12948261   4.213   2.216   5.012  0.6583  0.2347 -0.9893
  127MOL   H13048262   4.379   2.176   5.001  1.8208 -1.5194  1.8385
  127MOL   H13148263   4.328   2.321   5.088  1.9408 -0.8871  0.5525
  127MOL   H13248264   4.463   2.211   5.295  0.3591  0.1909 -0.0264
  127MOL   H13348265   4.388   2.083   5.374 -0.4790  1.1966  0.8611
  127MOL   H13448266   4.482   2.052   5.226 -1.4092 -0.3904 -0.7587
  127MOL   C13548267   3.863   2.180   5.448 -0.5351  0.1070 -0.8702
  127MOL   C13648268   3.921   2.061   5.534  0.3766 -0.2873 -0.1601
  127MOL   C13748269   4.027   2.120   5.638 -0.0685  0.0549 -0.3636
  127MOL   O13848270   3.984   2.157   5.749 -0.1440 -0.1371 -0.0266
  127MOL   N13948271   4.156   2.113   5.604  0.2321  0.2659 -0.0574
  127MOL   C14048272   4.269   2.156   5.687  0.3587 -0.0915 -0.0481
  127MOL   C14148273   4.326   2.292   5.644 -0.6107 -0.4405 -0.0555
  127MOL   C14248274   4.367   2.040   5.698  0.2019 -0.6631  0.3283
  127MOL   H14348275   3.793   2.140   5.375 -4.5968 -0.7589  3.2557
  127MOL   H14448276   3.803   2.242   5.515 -1.7425  0.0134 -1.8452
  127MOL   H14548277   3.966   1.978   5.480  0.1571 -1.8494  2.0377
  127MOL   H14648278   4.183   2.084   5.511 -0.0092 -0.2435  0.0290
  127MOL   H14748279   4.235   2.175   5.789 -0.8406  1.5214 -0.7121
  127MOL   H14848280   4.398   2.326   5.718 -0.8385  0.1993 -0.1315
  127MOL   H14948281   4.378   2.301   5.549 -1.2384 -1.0933 -0.4701
  127MOL   H15048282   4.241   2.358   5.628 -0.3952  0.0234  0.6942
  127MOL   H15148283   4.396   2.006   5.599 -0.5831  1.9144 -0.8417
  127MOL   H15248284   4.323   1.950   5.740 -0.0381 -0.8090 -0.2341
  127MOL   H15348285   4.465   2.058   5.741  0.3995  1.2891 -0.8917
  127MOL   C15448286   3.803   1.989   5.605  0.6458 -0.7990 -0.5191
  127MOL   C15548287   3.828   1.862   5.694  0.1175 -0.4804  0.4027
  127MOL   C15648288   3.866   1.755   5.597  0.4827  0.6321 -0.1691
  127MOL   O15748289   3.778   1.710   5.520  0.1969  0.1393  0.1927
  127MOL   N15848290   3.989   1.695   5.595 -0.4699 -0.6039  0.3462
  127MOL   C15948291   4.113   1.741   5.653 -0.1691 -0.0123 -0.5895
  127MOL   C16048292   4.216   1.750   5.549  0.0719  0.0695 -0.2447
  127MOL   C16148293   4.164   1.637   5.758  0.8235  0.0432  0.1193
  127MOL   H16248294   3.734   1.967   5.524  1.6884 -1.1844 -1.3094
  127MOL   H16348295   3.748   2.064   5.662  0.4367 -0.8935 -0.5958
  127MOL   H16448296   3.909   1.887   5.763  0.7159 -0.9332 -0.1199
  127MOL   H16548297   3.997   1.608   5.543 -1.7978  0.5305 -1.8084
  127MOL   H16648298   4.108   1.838   5.703 -0.0838  0.9484 -2.3893
  127MOL   H16748299   4.309   1.774   5.599 -0.6178 -0.3134  1.2714
  127MOL   H16848300   4.226   1.661   5.487  1.2342  0.7700 -1.0874
  127MOL   H16948301   4.189   1.828   5.477 -0.5198  1.8941  1.8910
  127MOL   H17048302   4.225   1.555   5.721 -1.9859 -1.5100 -1.2353
  127MOL   H17148303   4.082   1.597   5.819  0.4418 -1.4322 -1.3278
  127MOL   H17248304   4.218   1.693   5.834 -2.4067  2.2871  0.9021
  127MOL   C17348305   3.693   1.831   5.769  0.2300 -0.8285  0.6092
  127MOL   C17448306   3.715   1.735   5.886  0.0171  0.0459  0.3413
  127MOL   C17548307   3.740   1.811   6.015 -0.0048 -0.5224  0.4348
  127MOL   O17648308   3.647   1.868   6.072  0.3428 -0.2566  0.2751
  127MOL   N17748309   3.863   1.843   6.042 -0.4639 -0.3601 -0.0857
  127MOL   C17848310   3.907   1.945   6.140  0.7438  0.3000 -0.3966
  127MOL   C17948311   4.042   2.005   6.093 -0.1970 -0.4101  0.4165
  127MOL   C18048312   3.915   1.880   6.280  0.2204 -0.3138 -0.1622
  127MOL   H18148313   3.623   1.792   5.694 -0.2990  2.4693 -0.6991
  127MOL   H18248314   3.642   1.921   5.802 -0.9170 -0.6263 -1.5827
  127MOL   H18348315   3.798   1.666   5.868 -0.3274 -0.0432 -0.9320
  127MOL   H18448316   3.938   1.797   5.992  0.7037 -0.1157  1.4033
  127MOL   H18548317   3.838   2.029   6.143  1.7805  1.1456  0.1154
  127MOL   H18648318   4.075   2.087   6.156  2.1293 -0.7053 -0.3730
  127MOL   H18748319   4.030   2.058   5.999 -1.0176 -1.8491 -0.3222
  127MOL   H18848320   4.121   1.930   6.085 -0.1943 -0.4029  0.3823
  127MOL   H18948321   3.945   1.957   6.351 -0.1772  0.5889 -0.9604
  127MOL   H19048322   3.988   1.800   6.273 -1.5271 -1.8795 -1.0641
  127MOL   H19148323   3.821   1.839   6.317 -0.0329 -0.1122 -0.5829
  127MOL   C19248324   3.588   1.644   5.896  0.4109 -0.4049  1.0253
  127MOL   C19348325   3.589   1.528   5.999 -0.2656  0.1809 -0.4949
  127MOL   C19448326   3.696   1.426   5.960  0.1535  0.0259 -0.4441
  127MOL   O19548327   3.697   1.376   5.852  0.1758 -0.3451 -0.1941
  127MOL   N19648328   3.790   1.412   6.061  0.2509  0.4198  0.2689
  127MOL   C19748329   3.914   1.340   6.050  0.2298 -0.2755  0.2839
  127MOL   C19848330   4.027   1.435   6.089  0.1740  0.5540  0.4144
  127MOL   C19948331   3.902   1.211   6.122 -0.0388 -1.0588 -0.8785
  127MOL   H20048332   3.575   1.596   5.799 -0.0089  0.6810  0.5340
  127MOL   H20148333   3.499   1.706   5.912  2.2525  2.8142 -0.7898
  127MOL   H20248334   3.606   1.570   6.099 -1.2048 -0.3607 -0.1029
  127MOL   H20348335   3.784   1.482   6.133 -0.3909  1.2355 -0.5674
  127MOL   H20448336   3.922   1.317   5.944 -0.8917  0.0040  0.1343
  127MOL   H20548337   4.124   1.387   6.077  0.4300  0.9787  0.7912
  127MOL   H20648338   4.030   1.465   6.194  0.6491  2.3121 -0.0872
  127MOL   H20748339   4.036   1.522   6.025  4.3418  1.3238  1.9126
  127MOL   H20848340   3.814   1.152   6.095 -0.1495 -1.2620 -0.0845
  127MOL   H20948341   3.887   1.235   6.227 -0.8919  0.1678 -1.2751
  127MOL   H21048342   3.982   1.139   6.103  1.3601  0.5099 -0.9924
  127MOL   C21148343   3.448   1.454   6.002 -0.3524  0.6188 -0.2047
  127MOL   C21248344   3.430   1.344   6.104 -0.5235  0.4914  0.1043
  127MOL   C21348345   3.464   1.397   6.244  0.0568 -0.3976  0.1509
  127MOL   O21448346   3.403   1.489   6.290 -0.1770  0.0428  0.2187
  127MOL   N21548347   3.563   1.338   6.311 -0.3686 -0.1610  0.1292
  127MOL   C21648348   3.593   1.365   6.454  0.8376  0.1722  0.5976
  127MOL   C21748349   3.684   1.490   6.465  0.0442 -0.0944 -0.0162
  127MOL   C21848350   3.648   1.244   6.529 -0.1058  0.2625  0.2628
  127MOL   H21948351   3.438   1.403   5.906  2.3859  1.0505 -0.7527
  127MOL   H22048352   3.374   1.534   6.002 -1.4854 -0.3967  2.1632
  127MOL   H22148353   3.501   1.264   6.082 -0.8429  0.5924 -1.3481
  127MOL   H22248354   3.608   1.258   6.269  0.5460 -0.6177  1.9126
  127MOL   H22348355   3.495   1.389   6.494  1.5438  2.4502  1.0104
  127MOL   H22448356   3.775   1.465   6.411 -1.4370 -0.7143 -2.2847
  127MOL   H22548357   3.646   1.575   6.409 -0.0562  0.2682  0.6066
  127MOL   H22648358   3.710   1.518   6.567 -0.6352  0.0104  0.1329
  127MOL   H22748359   3.751   1.220   6.502  0.2519  1.4385  0.5623
  127MOL   H22848360   3.588   1.157   6.505 -0.1637 -0.3822  2.6451
  127MOL   H22948361   3.646   1.261   6.636 -1.5642  0.5351  0.2004
  127MOL   C23048362   3.285   1.286   6.098 -0.7498 -0.2300  0.2011
  127MOL   C23148363   3.244   1.173   6.200  0.0136 -0.1148  0.1177
  127MOL   C23248364   3.110   1.216   6.258 -0.3853 -0.5125  0.5793
  127MOL   O23348365   3.005   1.149   6.253  0.5030 -0.4767  0.6075
  127MOL   N23448366   3.127   1.329   6.328  0.6815  0.9169 -0.0978
  127MOL   C23548367   3.031   1.394   6.417 -1.0292  0.4885  0.0601
  127MOL   C23648368   3.094   1.435   6.549  0.1126 -0.0449 -0.0987
  127MOL   C23748369   2.965   1.507   6.350  0.3715 -1.2399 -0.0584
  127MOL   H23848370   3.271   1.238   6.001  1.6807  0.7297 -0.6569
  127MOL   H23948371   3.219   1.372   6.084 -1.9167 -1.1811 -0.3071
  127MOL   H24048372   3.311   1.181   6.285  0.2633  0.5053 -0.1326
  127MOL   H24148373   3.216   1.376   6.316  2.3521 -2.3880 -1.4192
  127MOL   H24248374   2.962   1.313   6.442 -1.6893  1.4715  1.4688
  127MOL   H24348375   3.168   1.371   6.599  1.7928  1.8903 -0.0434
  127MOL   H24448376   3.151   1.526   6.530 -0.7459  0.1421 -1.8648
  127MOL   H24548377   3.013   1.461   6.616  1.0498 -1.1218  1.4981
  127MOL   H24648378   3.040   1.571   6.303  0.9622 -0.5446  1.7947
  127MOL   H24748379   2.887   1.551   6.411 -0.7001 -2.0911 -0.7975
  127MOL   H24848380   2.910   1.468   6.264 -0.3101 -0.5751  0.0718
  127MOL   C24948381   3.266   1.028   6.154 -0.0517 -0.0658  0.3555
  127MOL   C25048382   3.232   0.911   6.247 -0.0369  0.3157 -0.0002
  127MOL   C25148383   3.283   0.929   6.389  0.9175  0.2449  0.1116
  127MOL   O25248384   3.403   0.952   6.412  0.4951  0.1554  0.1974
  127MOL   N25348385   3.183   0.919   6.472 -0.0096  0.5755 -0.6364
  127MOL   C25448386   3.180   0.940   6.620  0.1569 -0.5506 -0.2958
  127MOL   C25548387   3.175   1.086   6.663 -0.3597  0.6312  0.4582
  127MOL   C25648388   3.056   0.869   6.671 -0.8566 -0.2882 -0.1546
  127MOL   H25748389   3.364   1.018   6.108 -0.4346  0.5518 -0.6132
  127MOL   H25848390   3.202   1.021   6.065 -1.3238 -0.6564  1.2916
  127MOL   H25948391   3.124   0.893   6.254  0.2741 -0.8572  1.9258
  127MOL   H26048392   3.097   0.893   6.426  0.5199 -2.4425 -0.0030
  127MOL   H26148393   3.263   0.890   6.669 -0.9052 -0.0344  2.0591
  127MOL   H26248394   3.268   1.131   6.627 -1.3417  0.7669 -2.0163
  127MOL   H26348395   3.096   1.135   6.606 -0.3539  0.1004 -0.0124
  127MOL   H26448396   3.152   1.093   6.769 -1.2215  2.1606  0.1785
  127MOL   H26548397   3.053   0.763   6.645 -1.5377  0.0747 -1.5800
  127MOL   H26648398   3.053   0.867   6.780  1.4615 -0.9670 -0.0545
  127MOL   H26748399   2.966   0.911   6.628 -2.0691 -0.1785  2.4223
  127MOL   C26848400   3.291   0.786   6.171 -0.1630 -0.1279 -0.2662
  127MOL   C26948401   3.257   0.641   6.206  0.9873  0.9275  0.1922
  127MOL   C27048402   3.101   0.619   6.236  0.1098  0.0467 -0.5805
  127MOL   O27148403   3.072   0.564   6.345 -0.2303 -0.2243 -0.6018
  127MOL   N27248404   3.016   0.660   6.144  0.5304  0.1953 -0.7870
  127MOL   C27348405   2.871   0.639   6.149 -0.0880 -0.1909  0.3093
  127MOL   C27448406   2.790   0.758   6.218 -0.6057 -0.0100 -0.1764
  127MOL   C27548407   2.814   0.627   6.006 -0.2794 -0.1123 -0.1953
  127MOL   H27648408   3.267   0.792   6.065 -2.0861  0.5454  0.1940
  127MOL   H27748409   3.400   0.786   6.180 -0.0711  1.1764 -1.1748
  127MOL   H27848410   3.307   0.636   6.303 -1.2944  1.5171  1.4319
  127MOL   H27948411   3.050   0.708   6.061 -0.9169  0.1035 -1.4508
  127MOL   H28048412   2.852   0.542   6.194 -0.3695  0.0260  0.6539
  127MOL   H28148413   2.681   0.754   6.216 -0.6728  1.6325 -0.0726
  127MOL   H28248414   2.818   0.757   6.323 -3.4241 -0.0340  0.6097
  127MOL   H28348415   2.820   0.859   6.191  0.7647 -0.3330  0.0721
  127MOL   H28448416   2.881   0.563   5.947  0.2286 -0.3444  0.6277
  127MOL   H28548417   2.712   0.590   6.002  0.6289 -2.6078 -1.9829
  127MOL   H28648418   2.807   0.722   5.954 -1.5322 -0.2957 -0.3616
  127MOL   C28748419   3.307   0.532   6.109  0.6711  0.3802  0.5225
  127MOL   C28848420   3.453   0.501   6.106 -0.0088 -0.6388  0.3662
  127MOL   C28948421   3.523   0.602   6.015 -0.1846  0.3068  0.1803
  127MOL   O29048422   3.475   0.645   5.916  0.5260  0.2019  0.6770
  127MOL   N29148423   3.643   0.643   6.062  0.1374 -0.1442  0.5313
  127MOL   C29248424   3.721   0.743   5.998 -0.4834 -0.3912  0.1212
  127MOL   C29348425   3.693   0.877   6.069  0.5104 -0.5734 -0.4701
  127MOL   C29448426   3.871   0.704   6.014 -0.2881  0.2597 -0.2404
  127MOL   H29548427   3.261   0.435   6.129  2.2230  0.0871  2.8435
  127MOL   H29648428   3.266   0.556   6.010  0.7096  0.7695  0.6004
  127MOL   H29748429   3.491   0.507   6.208 -0.5998 -2.4252  0.7131
  127MOL   H29848430   3.689   0.587   6.132 -0.5413  0.2056  1.2737
  127MOL   H29948431   3.707   0.767   5.892  2.0441 -0.2972 -0.2400
  127MOL   H30048432   3.741   0.956   6.011 -0.9077 -0.6178 -1.7351
  127MOL   H30148433   3.586   0.887   6.086  0.1023 -4.3687 -0.3244
  127MOL   H30248434   3.723   0.869   6.174 -3.1094  0.7484  0.7266
  127MOL   H30348435   3.895   0.690   6.120 -1.5839 -1.7724 -0.1874
  127MOL   H30448436   3.891   0.608   5.967 -1.2284  0.0180 -0.1413
  127MOL   H30548437   3.944   0.770   5.966  0.6177  0.2666  1.1082
  127MOL   C30648438   3.467   0.352   6.054 -0.1119 -0.4743  0.1398
  127MOL   C30748439   3.601   0.279   6.075 -0.9877  0.8919  0.8785
  127MOL   C30848440   3.662   0.312   6.217 -1.1929 -0.6749 -0.4416
  127MOL   O30948441   3.732   0.414   6.236 -1.1023 -0.4913  0.2629
  127MOL   N31048442   3.639   0.227   6.320  0.6233  0.8932 -0.7995
  127MOL   C31148443   3.658   0.254   6.462 -0.0995 -0.4885 -0.6413
  127MOL   C31248444   3.529   0.319   6.516  0.1350 -0.2713  0.3987
  127MOL   C31348445   3.716   0.135   6.545  0.1708 -0.3216 -0.5999
  127MOL   H31448446   3.394   0.305   6.120 -0.0763  0.2273  0.6939
  127MOL   H31548447   3.428   0.347   5.952 -0.1129 -2.3184  0.2092
  127MOL   H31648448   3.571   0.174   6.070 -0.3205  0.6594  1.5831
  127MOL   H31748449   3.592   0.140   6.300  0.0907  0.8531  0.5986
  127MOL   H31848450   3.737   0.328   6.475  0.4447 -1.0046 -0.9836
  127MOL   H31948451   3.520   0.418   6.471  1.9467 -0.8102 -1.2137
  127MOL   H32048452   3.526   0.328   6.625  0.9205 -3.3888  0.7058
  127MOL   H32148453   3.444   0.257   6.492  0.4980 -0.5348 -0.1922
  127MOL   H32248454   3.819   0.115   6.515  1.3883  2.9884  1.2073
  127MOL   H32348455   3.661   0.044   6.519 -0.0888 -0.4057  0.2367
  127MOL   H32448456   3.727   0.141   6.653 -0.2297 -0.0945 -0.5713
  127MOL   C32548457   3.702   0.311   5.964  0.0729  0.6287 -0.3305
  127MOL   C32648458   3.815   0.207   5.948 -0.4245  0.1430 -0.5576
  127MOL   C32748459   3.765   0.068   5.935  0.3898  0.6869 -0.2403
  127MOL   O32848460   3.742   7.829   6.029 -0.4181 -0.2128 -0.2471
  127MOL   N32948461   3.752   0.024   5.811  0.1575 -0.2751 -0.4605
  127MOL   C33048462   3.697   7.735   5.763 -0.4081  0.0212 -0.2569
  127MOL   C33148463   3.551   7.715   5.810 -0.1923 -0.0136  0.4894
  127MOL   C33248464   3.780   7.617   5.809  0.3464  0.0309 -0.6391
  127MOL   H33348465   3.747   0.409   5.983 -0.7693  0.8389  0.6181
  127MOL   H33448466   3.650   0.327   5.870  1.4696  1.9852 -0.9021
  127MOL   H33548467   3.853   0.196   6.050 -1.9985 -1.1398 -0.0804
  127MOL   H33648468   3.775   0.094   5.742  0.2448  2.1046  1.8879
  127MOL   H33748469   3.682   7.741   5.655  0.7779  3.1593 -0.3060
  127MOL   H33848470   3.542   7.714   5.919 -0.4813 -1.5681  0.4674
  127MOL   H33948471   3.491   7.797   5.770  0.1939  0.8400  1.6248
  127MOL   H34048472   3.520   7.618   5.770 -3.5684  0.2664  2.2515
  127MOL   H34148473   3.758   7.612   5.915  0.4870  2.3924 -0.4843
  127MOL   H34248474   3.888   7.626   5.798  0.2144  0.8631 -1.2938
  127MOL   H34348475   3.745   7.520   5.774 -1.3800  0.9009 -1.3922
  127MOL   C34448476   3.928   0.250   5.852  0.3760 -0.4122  0.7602
  127MOL   C34548477   4.051   0.321   5.918  0.0030  0.8481 -0.3469
  127MOL   C34648478   4.115   0.221   6.021 -0.0941 -0.2389  0.7859
  127MOL   O34748479   4.113   0.103   5.994 -0.1219 -0.1307 -0.3463
  127MOL   N34848480   4.164   0.274   6.133 -0.0184  0.1174 -0.2919
  127MOL   C34948481   4.207   0.188   6.244 -0.3720  0.0410 -0.3690
  127MOL   C35048482   4.332   0.251   6.310  0.4059 -0.3419  0.0207
  127MOL   C35148483   4.085   0.140   6.331 -0.2397 -0.4178  0.0380
  127MOL   H35248484   3.886   0.314   5.773  0.8679 -1.2180 -0.1660
  127MOL   H35348485   3.978   0.173   5.793  0.9922  1.1405 -0.7985
  127MOL   H35448486   4.019   0.409   5.974 -0.2024  0.3657  0.3051
  127MOL   H35548487   4.164   0.374   6.145  2.4631  0.1771 -0.5915
  127MOL   H35648488   4.239   0.095   6.198  1.1937 -1.5167  3.6343
  127MOL   H35748489   4.392   0.299   6.232  0.0170 -1.8392 -1.2256
  127MOL   H35848490   4.313   0.339   6.371  0.7651 -0.2038 -0.0661
  127MOL   H35948491   4.381   0.184   6.380 -0.6438 -0.6777  0.4439
  127MOL   H36048492   4.014   0.069   6.288 -0.7103 -0.4747  0.8914
  127MOL   H36148493   4.121   0.097   6.425  1.4611  0.6288 -0.1284
  127MOL   H36248494   4.023   0.224   6.363  0.6183  1.2205 -2.4928
  127MOL   C36348495   4.148   0.357   5.808 -0.2033 -0.3367  0.3375
  127MOL   C36448496   4.282   0.423   5.856 -0.1976  0.2596  0.1244
  127MOL   C36548497   4.269   0.547   5.933  0.3012 -0.0464 -0.7164
  127MOL   O36648498   4.258   0.546   6.055 -0.1983  0.0380 -0.2994
  127MOL   N36748499   4.282   0.658   5.862 -0.3833  0.0945  0.1140
  127MOL   C36848500   4.296   0.800   5.907 -0.7885  0.4683  0.2017
  127MOL   C36948501   4.442   0.844   5.886 -0.0466  0.2252  0.0882
  127MOL   C37048502   4.196   0.888   5.823  0.3695 -0.3503 -0.6794
  127MOL   H37148503   4.089   0.422   5.742  0.7837 -0.3638 -0.5865
  127MOL   H37248504   4.166   0.263   5.754 -0.6423 -0.1069 -0.2194
  127MOL   H37348505   4.348   0.443   5.773  0.2489  0.0639  0.4276
  127MOL   H37448506   4.280   0.641   5.762 -0.0395  0.2404  0.0839
  127MOL   H37548507   4.269   0.796   6.012 -0.5437 -1.7189  0.2143
  127MOL   H37648508   4.467   0.935   5.940  5.0906 -0.7000 -0.4690
  127MOL   H37748509   4.509   0.761   5.908  0.5341  0.7105  0.1645
  127MOL   H37848510   4.462   0.869   5.781  0.5956 -3.7023 -0.8157
  127MOL   H37948511   4.095   0.852   5.842  0.1990 -0.1809 -1.2425
  127MOL   H38048512   4.200   0.991   5.858 -1.4001 -0.7686  0.8223
  127MOL   H38148513   4.211   0.892   5.715  0.9476  0.4124 -0.5753
  127MOL   H38248514   4.338   0.348   5.913  0.6248 -0.0260 -1.0636
  128MOL     C148515   3.691   3.126   7.642 -0.8257  0.0761 -0.0841
  128MOL     C248516   3.702   3.219   7.525 -0.9377  0.1257 -0.2770
  128MOL     C348517   3.785   3.151   7.420 -0.3549  0.5762 -0.0133
  128MOL     O448518   3.770   3.033   7.383  0.0099 -0.2135 -1.0212
  128MOL     N548519   3.878   3.231   7.359 -0.0487 -0.2872 -0.4666
  128MOL     C648520   3.966   3.184   7.254 -0.2999 -0.1024  0.7742
  128MOL     C748521   3.948   3.279   7.140  0.2206 -0.3385  0.3007
  128MOL     C848522   4.109   3.185   7.305  0.1404 -0.9689 -0.7134
  128MOL     H948523   3.789   3.100   7.681  0.2505  2.9813 -0.7527
  128MOL    H1048524   3.627   3.039   7.629 -1.3132  0.2080  1.3265
  128MOL    H1148525   3.741   3.318   7.546 -1.9761  0.5753 -0.4280
  128MOL    H1248526   3.900   3.326   7.384  0.4577 -0.9140  1.5241
  128MOL    H1348527   3.937   3.085   7.218 -0.7855 -0.4190  2.0252
  128MOL    H1448528   4.013   3.245   7.059 -1.1642  0.4196 -1.1660
  128MOL    H1548529   3.993   3.377   7.155 -0.6201  0.4515 -2.0388
  128MOL    H1648530   3.840   3.277   7.121  0.0222  0.3861  1.2899
  128MOL    H1748531   4.119   3.117   7.390  0.6145  0.5635  0.4799
  128MOL    H1848532   4.182   3.155   7.229 -0.6034 -1.6040 -1.1792
  128MOL    H1948533   4.144   3.283   7.337 -0.4551  0.0442 -3.0671
  128MOL    H2048534   3.651   3.174   7.732 -1.0057  3.1534 -1.7370
  128MOL    C2148535   3.557   3.245   7.472 -0.5740 -0.1093 -0.2173
  128MOL    C2248536   3.536   3.308   7.329 -0.0341  0.1780  0.3030
  128MOL    C2348537   3.573   3.455   7.337  0.8794 -0.0142  0.0488
  128MOL    O2448538   3.518   3.528   7.423 -0.8732  0.3153 -0.2951
  128MOL    N2548539   3.648   3.499   7.236  0.5316  0.8833 -0.0224
  128MOL    C2648540   3.666   3.639   7.210 -0.1046 -0.4618  0.4862
  128MOL    C2748541   3.647   3.682   7.059 -0.5476  0.1043  0.1620
  128MOL    C2848542   3.803   3.694   7.264 -0.1488 -0.2971 -0.0612
  128MOL    H2948543   3.511   3.315   7.542  0.9088 -1.3903  2.1444
  128MOL    H3048544   3.501   3.151   7.472 -1.6838  0.5521 -1.4949
  128MOL    H3148545   3.601   3.270   7.250 -2.4154 -1.6248 -0.8260
  128MOL    H3248546   3.671   3.427   7.169 -2.1244  0.8134 -0.8971
  128MOL    H3348547   3.598   3.707   7.260 -1.8049  0.3391 -2.7796
  128MOL    H3448548   3.542   3.688   7.031 -0.6841 -1.7115  0.1790
  128MOL    H3548549   3.704   3.617   6.992  0.7249  0.2460  1.0850
  128MOL    H3648550   3.690   3.780   7.040  0.6596 -0.0284  2.0764
  128MOL    H3748551   3.887   3.639   7.223  0.7847 -1.2546  3.0240
  128MOL    H3848552   3.815   3.797   7.231 -1.5070 -0.3322 -0.7147
  128MOL    H3948553   3.810   3.692   7.373 -0.3523 -0.8857 -0.0586
  128MOL    C4048554   3.389   3.283   7.278  0.7433  0.0622  0.4608
  128MOL    C4148555   3.373   3.146   7.211  0.0408  0.2645  0.2168
  128MOL    C4248556   3.442   3.139   7.069 -0.3739 -0.4911 -0.1153
  128MOL    O4348557   3.378   3.160   6.967 -0.4970 -0.3304  0.1357
  128MOL    N4448558   3.576   3.103   7.063  0.5322  0.5102 -0.2137
  128MOL    C4548559   3.647   3.051   6.949 -0.5157 -0.1454 -0.0109
  128MOL    C4648560   3.671   3.163   6.849 -1.0487  0.5803  0.3174
  128MOL    C4748561   3.778   2.984   7.001 -0.1501 -0.3994  0.0600
  128MOL    H4848562   3.352   3.366   7.217 -1.4011 -1.0258  0.2150
  128MOL    H4948563   3.312   3.281   7.355 -1.5776  0.4388 -1.7867
  128MOL    H5048564   3.424   3.078   7.279 -0.3930 -1.4742 -1.1672
  128MOL    H5148565   3.608   3.080   7.156  0.8919 -2.1367 -0.9202
  128MOL    H5248566   3.603   2.963   6.903  0.3770 -1.0631  0.8588
  128MOL    H5348567   3.587   3.186   6.784 -0.4903  1.3046 -0.1659
  128MOL    H5448568   3.735   3.123   6.771 -1.8087 -0.5640  0.2714
  128MOL    H5548569   3.715   3.255   6.887 -0.6935  1.1633 -1.4497
  128MOL    H5648570   3.858   3.058   7.003 -0.3747 -0.1781  1.1319
  128MOL    H5748571   3.817   2.909   6.932  0.1678  0.0179 -0.2159
  128MOL    H5848572   3.769   2.948   7.104  0.2435 -0.6221  0.0183
  128MOL    C5948573   3.222   3.097   7.212  0.0256  1.2030  0.3909
  128MOL    C6048574   3.207   2.951   7.160 -0.1444  0.8250 -0.6152
  128MOL    C6148575   3.054   2.920   7.127  0.0239 -0.0146 -0.0525
  128MOL    O6248576   2.970   2.948   7.212  0.1630  0.3631 -0.1942
  128MOL    N6348577   3.023   2.856   7.016 -0.4179 -0.2303  0.2563
  128MOL    C6448578   2.895   2.805   6.981  0.3002 -0.5432  0.4155
  128MOL    C6548579   2.877   2.782   6.829  0.5954  0.6959 -0.8563
  128MOL    C6648580   2.875   2.667   7.060 -0.2595 -0.3052 -0.6972
  128MOL    H6748581   3.190   3.101   7.316 -1.6792  1.2239 -0.1255
  128MOL    H6848582   3.169   3.162   7.143 -1.6273  0.3480  0.8245
  128MOL    H6948583   3.256   2.931   7.065  1.7851 -0.7673  0.6622
  128MOL    H7048584   3.102   2.837   6.956  0.6307 -0.8357  1.8184
  128MOL    H7148585   2.811   2.869   7.008 -2.7472 -2.7609 -3.3127
  128MOL    H7248586   2.875   2.877   6.775  2.9837  0.4056 -1.5102
  128MOL    H7348587   2.954   2.727   6.774 -0.7554 -2.7709  0.5866
  128MOL    H7448588   2.788   2.726   6.799 -0.4447  1.8517  0.0383
  128MOL    H7548589   2.948   2.591   7.035  1.6529  1.2612  0.0107
  128MOL    H7648590   2.876   2.682   7.168 -0.7327 -2.0369 -0.4465
  128MOL    H7748591   2.776   2.624   7.044 -0.7330  0.3214  0.5002
  128MOL    C7848592   3.261   2.845   7.260  0.6477  0.3946  0.2557
  128MOL    C7948593   3.358   2.736   7.196 -0.0372 -0.1696 -1.4221
  128MOL    C8048594   3.418   2.651   7.304 -0.7527 -0.4386  0.4327
  128MOL    O8148595   3.366   2.547   7.334 -0.3231  0.2394 -0.2416
  128MOL    N8248596   3.521   2.706   7.364  0.5742 -0.3549  0.2976
  128MOL    C8348597   3.587   2.653   7.477  0.2910 -0.3065 -0.0268
  128MOL    C8448598   3.743   2.668   7.467 -0.2669  0.2354 -0.1297
  128MOL    C8548599   3.522   2.717   7.603 -0.0120 -0.1038  0.4147
  128MOL    H8648600   3.176   2.800   7.309  0.1698 -0.8693 -1.6848
  128MOL    H8748601   3.328   2.889   7.334  0.7568  1.1105 -0.2554
  128MOL    H8848602   3.441   2.792   7.152 -0.1183 -0.8170 -2.4313
  128MOL    H8948603   3.554   2.798   7.337  1.0518 -0.4348  0.6141
  128MOL    H9048604   3.558   2.550   7.493 -1.4691 -0.0011 -1.1524
  128MOL    H9148605   3.792   2.645   7.562 -1.5238 -0.6634  0.3056
  128MOL    H9248606   3.792   2.601   7.396  1.0209 -0.3195  1.2452
  128MOL    H9348607   3.772   2.770   7.442 -1.6578  0.1993 -1.9835
  128MOL    H9448608   3.596   2.725   7.683 -0.9817 -1.1574  1.4324
  128MOL    H9548609   3.445   2.650   7.640  1.8990 -1.5298  1.9663
  128MOL    H9648610   3.489   2.817   7.575  3.1953  1.3471  1.5765
  128MOL    C9748611   3.278   2.648   7.085 -0.0645  0.6433 -0.1968
  128MOL    C9848612   3.361   2.556   6.999  0.1528 -0.1192  0.5739
  128MOL    C9948613   3.482   2.625   6.938  0.5981  0.6356  0.4533
  128MOL   O10048614   3.468   2.741   6.906 -0.2137 -0.3290  0.1182
  128MOL   N10148615   3.595   2.558   6.953  0.2789  0.0657  0.2074
  128MOL   C10248616   3.733   2.595   6.935 -0.0691  0.7372  0.4115
  128MOL   C10348617   3.811   2.485   7.021  0.8506 -0.0824  0.0211
  128MOL   C10448618   3.768   2.602   6.787 -0.2034  0.0513 -0.3376
  128MOL   H10548619   3.222   2.711   7.016 -2.1497 -1.4298 -0.4794
  128MOL   H10648620   3.209   2.584   7.140  0.3977 -1.4722 -1.9944
  128MOL   H10748621   3.391   2.491   7.081  1.2438 -1.3451 -0.7781
  128MOL   H10848622   3.578   2.460   6.971  2.4904 -0.2275  0.8973
  128MOL   H10948623   3.743   2.688   6.990 -3.0405  2.4990 -1.8947
  128MOL   H11048624   3.792   2.384   6.985 -1.8493  0.3514  0.0972
  128MOL   H11148625   3.917   2.510   7.028  1.3366 -1.6947 -1.1615
  128MOL   H11248626   3.777   2.481   7.124 -1.1285 -1.3805 -0.6563
  128MOL   H11348627   3.712   2.671   6.725 -1.4848 -0.1703  0.5667
  128MOL   H11448628   3.765   2.505   6.737  1.4878  0.9282 -2.2258
  128MOL   H11548629   3.875   2.623   6.781 -0.3385  1.7267  2.1190
  128MOL   C11648630   3.273   2.468   6.911  0.5796 -0.2051  0.6070
  128MOL   C11748631   3.323   2.354   6.826  0.0009 -0.5595  0.5859
  128MOL   C11848632   3.399   2.249   6.909  0.2088 -0.7765 -0.2454
  128MOL   O11948633   3.515   2.280   6.937  0.0914 -0.1877 -0.7588
  128MOL   N12048634   3.333   2.145   6.953  0.2425 -1.1031  0.5320
  128MOL   C12148635   3.371   2.055   7.060  0.1918  0.3759  0.3352
  128MOL   C12248636   3.275   2.056   7.179  0.7447  0.4144  0.4379
  128MOL   C12348637   3.366   1.921   6.991  0.9635  0.0074  0.0642
  128MOL   H12448638   3.217   2.531   6.841 -2.6391 -1.7733  1.6928
  128MOL   H12548639   3.189   2.440   6.974  0.9231 -1.0543  0.6845
  128MOL   H12648640   3.232   2.304   6.796  0.1958  0.0985 -1.1788
  128MOL   H12748641   3.236   2.138   6.926 -0.0187 -1.2410  1.4696
  128MOL   H12848642   3.477   2.066   7.083  0.7442 -1.1876 -1.3319
  128MOL   H12948643   3.268   2.155   7.226  0.9855  0.3387  0.6303
  128MOL   H13048644   3.309   1.989   7.257 -1.0197 -0.6416  0.3121
  128MOL   H13148645   3.172   2.028   7.158  0.4730 -1.6291  4.1933
  128MOL   H13248646   3.430   1.851   7.045 -0.5618 -0.7209  0.9659
  128MOL   H13348647   3.260   1.893   6.986  0.6278  1.5963 -3.1487
  128MOL   H13448648   3.395   1.928   6.886 -0.1146  0.1774 -0.2308
  128MOL   C13548649   3.404   2.413   6.698 -0.7279  0.5027 -0.8394
  128MOL   C13648650   3.399   2.316   6.574  0.3350  0.6476  0.2356
  128MOL   C13748651   3.261   2.291   6.511 -0.2632 -0.1241 -0.1971
  128MOL   O13848652   3.232   2.177   6.480  0.2312  0.1572  0.3023
  128MOL   N13948653   3.172   2.388   6.513  0.3891 -0.6448 -0.5165
  128MOL   C14048654   3.033   2.384   6.495 -0.5640 -0.3263  0.5525
  128MOL   C14148655   2.989   2.476   6.388 -0.1669 -0.2781  0.7311
  128MOL   C14248656   2.955   2.420   6.623 -0.3282 -0.4418  0.1658
  128MOL   H14348657   3.503   2.428   6.740 -1.5349 -0.2977  1.4137
  128MOL   H14448658   3.361   2.509   6.667 -1.8553 -0.1363 -1.3023
  128MOL   H14548659   3.427   2.218   6.612 -2.0097 -0.3138 -0.4665
  128MOL   H14648660   3.202   2.471   6.562 -2.1216 -0.0635  0.0918
  128MOL   H14748661   3.000   2.284   6.467  0.2040 -0.7537  1.1465
  128MOL   H14848662   2.977   2.578   6.424 -1.3159 -0.1619  0.0290
  128MOL   H14948663   3.042   2.481   6.293 -1.2167  2.1453  0.2340
  128MOL   H15048664   2.892   2.443   6.353  0.1918 -2.7227  1.8759
  128MOL   H15148665   2.955   2.525   6.651  2.7239 -0.1867 -0.6180
  128MOL   H15248666   2.980   2.359   6.710 -3.1275  1.2102  2.1992
  128MOL   H15348667   2.851   2.404   6.597 -0.7452  1.3196  0.7166
  128MOL   C15448668   3.496   2.350   6.459 -0.1712  0.2420 -0.3907
  128MOL   C15548669   3.515   2.247   6.342 -0.1613  0.3608 -0.0761
  128MOL   C15648670   3.563   2.111   6.382 -0.1075  0.3141 -0.1124
  128MOL   O15748671   3.685   2.094   6.381 -0.1659  0.2179 -0.6867
  128MOL   N15848672   3.470   2.021   6.408  0.1271 -0.2528  0.4884
  128MOL   C15948673   3.498   1.888   6.459 -0.1159  0.4662 -0.8107
  128MOL   C16048674   3.435   1.774   6.386  0.6867 -0.2219 -0.4229
  128MOL   C16148675   3.458   1.898   6.611 -0.8515  0.6964 -1.5018
  128MOL   H16248676   3.593   2.358   6.508 -1.1309 -0.4389  1.7199
  128MOL   H16348677   3.465   2.446   6.418 -0.1092  1.3311  2.0501
  128MOL   H16448678   3.418   2.230   6.297  0.6547 -1.8735 -1.0366
  128MOL   H16548679   3.373   2.047   6.400 -0.5384 -2.8811 -0.3787
  128MOL   H16648680   3.606   1.869   6.459 -0.5554 -2.1091 -0.4405
  128MOL   H16748681   3.330   1.790   6.361 -0.0197 -2.1921  1.2105
  128MOL   H16848682   3.490   1.751   6.295  0.6339 -1.2345 -0.2057
  128MOL   H16948683   3.451   1.690   6.453 -1.1258  0.3215  0.7229
  128MOL   H17048684   3.516   1.972   6.665  0.5337 -1.8135  0.5677
  128MOL   H17148685   3.475   1.802   6.659  1.6457  1.8179 -0.0342
  128MOL   H17248686   3.350   1.916   6.619 -0.5748  1.2760  1.8050
  128MOL   C17348687   3.593   2.311   6.219 -0.1789 -0.6452  0.2950
  128MOL   C17448688   3.599   2.222   6.087  0.7799 -0.1581  0.3849
  128MOL   C17548689   3.459   2.186   6.020 -0.5015 -0.0522 -0.4393
  128MOL   O17648690   3.381   2.270   5.978  0.5222 -0.4304 -0.2190
  128MOL   N17748691   3.427   2.053   6.021  0.5328 -0.2255 -0.0320
  128MOL   C17848692   3.310   1.997   5.964  0.3627  0.2028 -0.4817
  128MOL   C17948693   3.250   1.890   6.058 -0.1592 -0.4215  0.1126
  128MOL   C18048694   3.339   1.937   5.821  0.0314 -0.2789  0.0651
  128MOL   H18148695   3.699   2.329   6.237  0.0850 -0.2059 -1.5780
  128MOL   H18248696   3.556   2.411   6.194  1.7096  0.2868  1.0612
  128MOL   H18348697   3.637   2.123   6.112  2.2443  0.1345 -0.6166
  128MOL   H18448698   3.508   1.996   6.041  1.8831  2.0567  1.4024
  128MOL   H18548699   3.239   2.079   5.951  0.8472  0.7107  0.0038
  128MOL   H18648700   3.163   1.840   6.015 -0.8265  1.9136 -1.3255
  128MOL   H18748701   3.236   1.932   6.158  0.9695  1.8112 -0.6446
  128MOL   H18848702   3.326   1.812   6.062 -0.5125 -0.7145  1.5431
  128MOL   H18948703   3.252   1.892   5.773 -0.5800  0.4486  0.4876
  128MOL   H19048704   3.426   1.871   5.812  0.6028 -0.0236  3.1004
  128MOL   H19148705   3.367   2.016   5.751  0.1067 -0.6542 -0.3327
  128MOL   C19248706   3.708   2.272   5.990 -0.4692 -0.1283 -0.2741
  128MOL   C19348707   3.701   2.412   5.945  0.4733 -0.4958  0.2051
  128MOL   C19448708   3.676   2.421   5.796 -0.0362  0.2477  0.4210
  128MOL   O19548709   3.747   2.485   5.723 -0.2020  0.3115  0.4887
  128MOL   N19648710   3.558   2.373   5.762 -0.5527  0.7648  0.8786
  128MOL   C19748711   3.489   2.394   5.633 -0.2241  0.0580  0.5687
  128MOL   C19848712   3.410   2.268   5.591 -0.1254 -0.4112  0.0436
  128MOL   C19948713   3.393   2.513   5.656  0.0042 -0.2689 -0.1474
  128MOL   H20048714   3.698   2.203   5.906  0.9744  2.0228 -2.2560
  128MOL   H20148715   3.805   2.248   6.034 -0.2671  0.7920 -0.1993
  128MOL   H20248716   3.610   2.450   5.991 -0.2184 -1.6588 -0.1948
  128MOL   H20348717   3.507   2.320   5.831  2.8237 -0.6930  2.3731
  128MOL   H20448718   3.555   2.410   5.547  0.5229 -0.2664  1.0792
  128MOL   H20548719   3.479   2.189   5.560 -0.6040 -0.0488 -2.0654
  128MOL   H20648720   3.349   2.292   5.504  0.0616  1.6478  0.4622
  128MOL   H20748721   3.345   2.236   5.672 -0.3166  0.8178  0.3814
  128MOL   H20848722   3.329   2.508   5.568 -1.1339  3.2681  0.3973
  128MOL   H20948723   3.432   2.615   5.665 -0.7970 -0.2046  3.2896
  128MOL   H21048724   3.337   2.509   5.750 -1.5543 -0.9924 -1.0922
  128MOL   C21148725   3.817   2.486   6.004 -0.4465  0.1925  0.3773
  128MOL   C21248726   3.820   2.648   6.009  0.3695  0.0634 -0.4306
  128MOL   C21348727   3.690   2.728   6.005 -0.5892 -0.0599 -0.2004
  128MOL   O21448728   3.603   2.702   6.090  0.0291 -0.0374  0.2478
  128MOL   N21548729   3.673   2.814   5.899  0.0947 -0.0566 -0.0764
  128MOL   C21648730   3.550   2.882   5.856 -0.8260 -0.2437 -0.4493
  128MOL   C21748731   3.551   2.914   5.703  0.1487  0.7105  0.3784
  128MOL   C21848732   3.522   2.995   5.946 -1.1247 -0.1098  0.0421
  128MOL   H21948733   3.908   2.461   5.950 -0.9211  0.2101 -0.4357
  128MOL   H22048734   3.830   2.449   6.106 -1.2206 -0.7754  0.1264
  128MOL   H22148735   3.877   2.669   5.918 -0.2530  2.5587 -0.2620
  128MOL   H22248736   3.743   2.809   5.827  1.0058 -1.3429  0.8749
  128MOL   H22348737   3.466   2.813   5.865 -0.3242 -0.7789  0.1271
  128MOL   H22448738   3.454   2.939   5.661 -1.1105  1.1425  3.4203
  128MOL   H22548739   3.632   2.984   5.681  0.8980 -0.2391  0.0520
  128MOL   H22648740   3.591   2.828   5.648 -1.1072  0.7939 -0.6802
  128MOL   H22748741   3.420   3.029   5.930  0.4662  3.1002 -4.0251
  128MOL   H22848742   3.582   3.085   5.933 -0.2933 -0.9981 -2.4555
  128MOL   H22948743   3.540   2.961   6.048 -2.3005 -1.3336 -0.1461
  128MOL   C23048744   3.903   2.691   6.131 -0.3579  0.2902  0.1754
  128MOL   C23148745   3.945   2.844   6.136  0.2615 -0.0169  0.6309
  128MOL   C23248746   4.022   2.866   6.267  0.3427 -0.2117 -0.2327
  128MOL   O23348747   4.138   2.822   6.277 -0.4633  0.7890 -0.0914
  128MOL   N23448748   3.959   2.936   6.362 -0.1446  0.2489 -0.1387
  128MOL   C23548749   4.024   2.985   6.489  0.4805 -0.5316 -0.6708
  128MOL   C23648750   3.987   3.133   6.504 -0.0978  0.3233  0.1708
  128MOL   C23748751   3.971   2.902   6.603  0.6945  0.2716 -0.0978
  128MOL   H23848752   3.998   2.638   6.140  1.7624  3.3810 -2.5806
  128MOL   H23948753   3.839   2.668   6.216 -0.5684 -0.4664 -0.1851
  128MOL   H24048754   3.852   2.901   6.132 -0.3530 -0.6511  3.7284
  128MOL   H24148755   3.865   2.972   6.354 -0.2004  0.6611  2.0531
  128MOL   H24248756   4.131   2.964   6.484  0.5210 -0.2468 -1.0446
  128MOL   H24348757   4.030   3.181   6.417 -2.1548  0.5971 -0.7114
  128MOL   H24448758   3.881   3.151   6.490 -0.1066  0.7959  0.8115
  128MOL   H24548759   4.026   3.179   6.595  1.1545  0.6473 -0.5097
  128MOL   H24648760   4.037   2.910   6.690 -0.0750 -1.4461  0.6748
  128MOL   H24748761   3.966   2.794   6.585  2.0131 -0.0166  1.1821
  128MOL   H24848762   3.870   2.929   6.635  0.2351  0.8100 -1.9480
  128MOL   C24948763   4.027   2.896   6.011  0.2281  0.0710  0.2624
  128MOL   C25048764   4.066   3.044   5.998 -0.2211  0.0739  0.6084
  128MOL   C25148765   3.937   3.127   5.986  0.0083 -0.4480 -0.0977
  128MOL   O25248766   3.850   3.092   5.907  0.4218 -0.0662 -0.2600
  128MOL   N25348767   3.930   3.231   6.065  0.0364 -0.3015 -0.2773
  128MOL   C25448768   3.817   3.322   6.082 -0.4468 -0.2143  0.1362
  128MOL   C25548769   3.829   3.374   6.229 -0.5348  0.9029 -0.0143
  128MOL   C25648770   3.808   3.432   5.978 -0.0679  0.6001  0.0471
  128MOL   H25748771   3.969   2.874   5.921 -0.5570  1.7578  0.3242
  128MOL   H25848772   4.119   2.837   6.012 -0.7880 -1.5081  0.7538
  128MOL   H25948773   4.122   3.071   6.088  1.7075  0.7507 -0.7516
  128MOL   H26048774   4.003   3.244   6.133  0.1637  0.3580 -0.5336
  128MOL   H26148775   3.730   3.257   6.082 -2.1372  1.9800 -1.1792
  128MOL   H26248776   3.821   3.297   6.306  0.1223 -1.4791 -2.2298
  128MOL   H26348777   3.924   3.428   6.236  0.0512 -0.3536  2.3880
  128MOL   H26448778   3.755   3.448   6.257 -0.0496  1.6204 -0.6023
  128MOL   H26548779   3.730   3.493   6.023 -1.5590 -1.4034  0.2586
  128MOL   H26648780   3.891   3.500   5.962  2.2283 -2.3613 -1.1767
  128MOL   H26748781   3.781   3.383   5.884 -0.3194  1.1822 -0.1843
  128MOL   C26848782   4.172   3.059   5.883 -0.5761  0.4401 -0.9944
  128MOL   C26948783   4.237   3.199   5.869 -0.1937  0.4083 -1.3429
  128MOL   C27048784   4.280   3.272   6.003 -0.8155 -0.3189  0.1646
  128MOL   O27148785   4.265   3.396   6.006  0.2932 -0.7211  0.1811
  128MOL   N27248786   4.338   3.195   6.100 -0.3015 -0.1363  0.1857
  128MOL   C27348787   4.392   3.251   6.226 -0.3350  0.5746  0.0921
  128MOL   C27448788   4.292   3.245   6.340 -0.3777  0.4791 -0.1778
  128MOL   C27548789   4.517   3.167   6.266 -0.4237  0.4794  0.3914
  128MOL   H27648790   4.243   2.976   5.889 -1.7476 -0.4527  0.7069
  128MOL   H27748791   4.118   3.048   5.789  0.4242  1.1739 -1.6707
  128MOL   H27848792   4.152   3.260   5.839 -0.6785 -0.5278 -1.9001
  128MOL   H27948793   4.333   3.095   6.087 -1.5854  0.2010 -2.2323
  128MOL   H28048794   4.432   3.350   6.207 -0.0465  0.8762  2.1300
  128MOL   H28148795   4.242   3.148   6.338  2.0881 -0.8022 -0.5404
  128MOL   H28248796   4.324   3.273   6.440  1.0785  0.0024 -0.5085
  128MOL   H28348797   4.216   3.320   6.315 -0.3379  1.4344  2.4816
  128MOL   H28448798   4.582   3.157   6.178 -0.3396 -0.0932  0.5206
  128MOL   H28548799   4.566   3.206   6.355 -0.1783  2.6280 -0.6459
  128MOL   H28648800   4.482   3.066   6.284  0.7031  0.3078  1.6349
  128MOL   C28748801   4.350   3.192   5.765 -0.8827  0.4530  0.9881
  128MOL   C28848802   4.347   3.279   5.639  0.8869 -0.3062 -0.0290
  128MOL   C28948803   4.215   3.258   5.561 -0.1103 -0.3765 -0.0841
  128MOL   O29048804   4.203   3.163   5.484 -0.1141 -0.8173  0.1558
  128MOL   N29148805   4.116   3.350   5.577  0.5875 -0.7118  0.0082
  128MOL   C29248806   3.989   3.345   5.507 -0.1089  0.4056  0.1060
  128MOL   C29348807   3.885   3.274   5.595 -0.0925 -0.2720 -0.1675
  128MOL   C29448808   3.939   3.486   5.486  0.3248  0.3683 -0.4012
  128MOL   H29548809   4.435   3.229   5.823 -0.6837  0.7571  0.5093
  128MOL   H29648810   4.376   3.092   5.732 -0.2792  0.8512  0.2321
  128MOL   H29748811   4.338   3.381   5.678 -0.6098  0.1281 -1.4134
  128MOL   H29848812   4.122   3.433   5.634  1.2658  0.9707 -2.4389
  128MOL   H29948813   4.010   3.295   5.412 -0.7765  0.8713 -0.2921
  128MOL   H30048814   3.794   3.280   5.534 -1.0832  0.1049  1.3084
  128MOL   H30148815   3.895   3.167   5.608 -2.1371 -0.4624 -0.0000
  128MOL   H30248816   3.868   3.328   5.688  0.1168 -1.0303  0.3089
  128MOL   H30348817   4.017   3.555   5.455 -0.4447  0.2366 -2.7323
  128MOL   H30448818   3.854   3.496   5.420  0.7212 -1.1944 -1.1718
  128MOL   H30548819   3.901   3.533   5.577  0.4108 -0.2771 -0.0255
  128MOL   C30648820   4.469   3.238   5.558  0.7438 -0.3027 -0.5744
  128MOL   C30748821   4.506   3.328   5.435  0.1640 -0.3184  0.8800
  128MOL   C30848822   4.592   3.264   5.329 -0.2873  0.6252 -0.3267
  128MOL   O30948823   4.583   3.295   5.212 -0.7044  0.2029 -0.4328
  128MOL   N31048824   4.680   3.179   5.377 -0.5435 -0.1766  0.7641
  128MOL   C31148825   4.785   3.128   5.294 -0.4187  1.0967  0.1826
  128MOL   C31248826   4.922   3.174   5.350  0.5109 -0.5435 -0.6206
  128MOL   C31348827   4.781   2.972   5.266 -0.4059  0.3580 -0.0403
  128MOL   H31448828   4.564   3.221   5.607  0.4239  0.6495  0.3876
  128MOL   H31548829   4.447   3.136   5.528  0.8917 -0.9276  1.3855
  128MOL   H31648830   4.408   3.338   5.389 -0.2179 -0.9470  1.5411
  128MOL   H31748831   4.704   3.164   5.474 -0.1272  1.9431  1.0160
  128MOL   H31848832   4.784   3.169   5.193  0.5167 -0.1416 -0.3564
  128MOL   H31948833   4.925   3.283   5.346 -0.3683 -0.5276 -1.1205
  128MOL   H32048834   4.996   3.140   5.278 -0.0393 -1.9976 -0.5233
  128MOL   H32148835   4.940   3.130   5.448 -0.2476  2.5216  0.9555
  128MOL   H32248836   4.850   2.935   5.190  0.5121  1.6623  0.1277
  128MOL   H32348837   4.683   2.946   5.227  0.1114  0.2734 -1.3031
  128MOL   H32448838   4.807   2.906   5.349  0.4198 -0.5059 -0.9795
  128MOL   C32548839   4.564   3.462   5.473 -1.2481 -0.5974 -0.2471
  128MOL   C32648840   4.587   3.577   5.364 -0.0909  0.4619 -0.1863
  128MOL   C32748841   4.456   3.613   5.289 -1.2901  0.2038 -0.0021
  128MOL   O32848842   4.396   3.718   5.313 -0.0556  0.3629 -0.1670
  128MOL   N32948843   4.397   3.524   5.203 -1.0671 -0.1863 -0.6320
  128MOL   C33048844   4.268   3.541   5.143  0.5516 -0.5689 -0.6041
  128MOL   C33148845   4.149   3.495   5.233 -0.1628  0.4180 -0.3427
  128MOL   C33248846   4.255   3.499   4.994 -0.0989 -0.2877  0.0283
  128MOL   H33348847   4.658   3.440   5.525 -2.7235 -2.3723  1.7518
  128MOL   H33448848   4.496   3.511   5.543 -0.8018  0.9435 -0.8735
  128MOL   H33548849   4.665   3.533   5.300 -1.9901  0.6826 -2.7294
  128MOL   H33648850   4.454   3.446   5.175 -0.5358 -0.8550  2.1819
  128MOL   H33748851   4.255   3.649   5.138 -2.7063 -0.8003  1.3353
  128MOL   H33848852   4.166   3.504   5.340 -0.2985  1.6651 -0.4197
  128MOL   H33948853   4.051   3.541   5.218 -1.5155 -1.6229  1.9367
  128MOL   H34048854   4.143   3.389   5.208 -1.3592  0.4727 -0.3351
  128MOL   H34148855   4.160   3.529   4.952 -0.0916  0.6066  0.6322
  128MOL   H34248856   4.255   3.392   4.974  0.4265  0.0518 -1.8998
  128MOL   H34348857   4.333   3.545   4.933 -0.3607  0.7469  0.4566
  128MOL   C34448858   4.651   3.695   5.438  0.2380 -0.0834 -0.2226
  128MOL   C34548859   4.711   3.817   5.358  0.1993 -0.0200 -0.0746
  128MOL   C34648860   4.776   3.920   5.459  0.2754  0.2549  0.3642
  128MOL   O34748861   4.829   3.893   5.569 -0.1308  0.0106 -0.7615
  128MOL   N34848862   4.755   4.042   5.423 -0.4883 -0.9003  0.5763
  128MOL   C34948863   4.805   4.157   5.495  0.3889 -0.3191 -0.0636
  128MOL   C35048864   4.873   4.238   5.382  0.1492 -0.0363  0.0837
  128MOL   C35148865   4.699   4.252   5.554 -0.2244 -0.3068  0.3126
  128MOL   H35248866   4.723   3.653   5.507 -0.3258  0.0801  0.4788
  128MOL   H35348867   4.569   3.731   5.501  0.9515  0.4807  0.3828
  128MOL   H35448868   4.637   3.868   5.297 -0.9473  1.3263  2.3706
  128MOL   H35548869   4.731   4.065   5.328  1.9061  2.8337  0.7664
  128MOL   H35648870   4.878   4.127   5.570  0.7263 -1.9153 -0.9990
  128MOL   H35748871   4.939   4.178   5.320  0.0060  1.5848 -1.6806
  128MOL   H35848872   4.797   4.276   5.313 -0.0298 -0.4173  0.0676
  128MOL   H35948873   4.923   4.327   5.421  0.5691 -1.0014  1.7943
  128MOL   H36048874   4.612   4.259   5.488 -0.8883  4.1699  1.5340
  128MOL   H36148875   4.679   4.219   5.656 -1.9235  0.5442  0.2771
  128MOL   H36248876   4.741   4.352   5.565  1.1925 -0.5293 -2.5247
  128MOL   C36348877   4.824   3.766   5.260 -0.1361  0.1348 -0.3359
  128MOL   C36448878   4.882   3.867   5.158  0.4943 -0.6459  0.7036
  128MOL   C36548879   4.764   3.929   5.085 -0.1255 -0.3930  0.0885
  128MOL   O36648880   4.723   4.042   5.111  0.4226  0.1054  0.2377
  128MOL   N36748881   4.714   3.856   4.984  0.3848 -0.5988 -0.8460
  128MOL   C36848882   4.596   3.883   4.904 -0.5908 -0.5340  0.3094
  128MOL   C36948883   4.611   3.825   4.764 -0.1169 -0.5660 -0.1909
  128MOL   C37048884   4.479   3.815   4.977 -0.2968  0.7495  0.2819
  128MOL   H37148885   4.788   3.682   5.202  0.7253  0.4480 -1.3405
  128MOL   H37248886   4.908   3.746   5.326 -0.3335 -2.1079 -0.7353
  128MOL   H37348887   4.942   3.831   5.074 -0.3740  0.8418 -0.5825
  128MOL   H37448888   4.767   3.777   4.953  1.8641  1.4142 -3.6544
  128MOL   H37548889   4.563   3.985   4.887  1.4159 -0.0907 -1.1566
  128MOL   H37648890   4.516   3.830   4.709 -0.0008  0.9079 -0.2611
  128MOL   H37748891   4.681   3.884   4.705  0.4208  0.2291  1.2313
  128MOL   H37848892   4.656   3.726   4.769  1.1558 -0.0050 -0.4444
  128MOL   H37948893   4.488   3.708   4.997 -1.3778  0.9728  2.1034
  128MOL   H38048894   4.463   3.871   5.069 -2.9091  2.0777 -0.9227
  128MOL   H38148895   4.393   3.828   4.912 -0.1587  0.8831  0.1249
  128MOL   H38248896   4.932   3.952   5.205  1.2043 -0.6650 -0.0043
  129MOL     C148897   2.631   3.029   7.638  0.0065  0.1083  0.5624
  129MOL     C248898   2.657   3.029   7.783  0.5078  0.3782 -0.2915
  129MOL     C348899   2.553   3.127   0.010  0.4469  0.3658 -0.4533
  129MOL     O448900   2.439   3.082   0.034  0.0720 -0.6015  0.1479
  129MOL     N548901   2.578   3.258   0.026  0.1476  0.4280 -0.1533
  129MOL     C648902   2.481   3.365   0.065 -0.0858 -0.0515 -0.8532
  129MOL     C748903   2.520   3.406   0.211 -0.3803  0.1917  0.1293
  129MOL     C848904   2.487   3.483   7.802 -0.2199  0.4061  0.3974
  129MOL     H948905   2.683   2.950   7.585 -1.3045 -1.7919  2.0190
  129MOL    H1048906   2.660   3.125   7.596  3.4058 -1.0163  0.2411
  129MOL    H1148907   2.760   3.064   7.794  0.5757  0.0674  0.1033
  129MOL    H1248908   2.668   3.287   7.826 -1.3313  1.3870 -3.2531
  129MOL    H1348909   2.376   3.338   0.064 -0.2812  0.6130  0.2759
  129MOL    H1448910   2.436   3.463   0.252  0.5940 -0.0609  2.5432
  129MOL    H1548911   2.610   3.467   0.217  0.2963 -0.8426  0.5568
  129MOL    H1648912   2.537   3.320   0.275 -0.4593 -0.0192 -0.1344
  129MOL    H1748913   2.461   3.453   7.701 -1.7038  2.4152  0.1458
  129MOL    H1848914   2.420   3.565   7.828  1.2370  1.5535  0.6299
  129MOL    H1948915   2.585   3.531   7.810  0.7166 -1.3555 -0.3605
  129MOL    H2048916   2.523   3.018   7.623 -0.1292 -0.3796  1.8349
  129MOL    C2148917   2.664   2.882   0.003 -0.1555  0.1628  0.1220
  129MOL    C2248918   2.534   2.794   0.017  0.4507 -0.6863  0.4992
  129MOL    C2348919   2.490   2.767   0.160 -0.5464 -0.1650 -0.4736
  129MOL    O2448920   2.535   2.674   0.226  0.6295 -0.4963  0.2066
  129MOL    N2548921   2.405   2.860   0.203  0.3853  0.4185  0.2659
  129MOL    C2648922   2.344   2.882   0.329  0.3837  0.1764  1.0402
  129MOL    C2748923   2.194   2.868   0.321  0.4345  0.5546  0.8876
  129MOL    C2848924   2.383   3.026   0.378 -0.0450 -0.3451 -0.7704
  129MOL    H2948925   2.706   2.887   0.104 -3.6044  0.9362  1.6147
  129MOL    H3048926   2.743   2.829   7.787  0.6271  1.9060 -0.4844
  129MOL    H3148927   2.455   2.841   7.795  1.5982 -0.3824 -0.8299
  129MOL    H3248928   2.388   2.934   0.136 -1.0689  0.0265  0.1854
  129MOL    H3348929   2.392   2.818   0.403  0.1745 -0.9424  0.2151
  129MOL    H3448930   2.145   2.934   0.250  0.0956 -0.3594  0.2715
  129MOL    H3548931   2.138   2.891   0.411 -1.5813 -0.3963 -0.1114
  129MOL    H3648932   2.159   2.768   0.297 -1.3676  1.6982 -1.3750
  129MOL    H3748933   2.490   3.032   0.400 -0.4285 -1.1896  1.4578
  129MOL    H3848934   2.367   3.096   0.296  4.4527 -0.4620 -1.9022
  129MOL    H3948935   2.327   3.058   0.465  1.2403 -3.5716  1.3411
  129MOL    C4048936   2.556   2.657   7.783  0.3516  0.1359 -0.3772
  129MOL    C4148937   2.558   2.666   7.621  0.2602 -0.0599 -0.2013
  129MOL    C4248938   2.411   2.681   7.570 -0.1701  0.3078 -0.9683
  129MOL    O4348939   2.343   2.579   7.557 -0.3329  0.1124 -0.3509
  129MOL    N4448940   2.370   2.809   7.551 -0.3495 -0.3001 -0.1706
  129MOL    C4548941   2.236   2.849   7.530  0.1140  0.6578 -0.0602
  129MOL    C4648942   2.187   2.917   7.659  0.1083  0.2782  0.2115
  129MOL    C4748943   2.219   2.924   7.398  0.0974 -0.4040 -0.0233
  129MOL    H4848944   2.488   2.577   7.812 -0.0880 -0.0084 -1.7876
  129MOL    H4948945   2.656   2.622   7.812  0.9122  2.3930  0.5110
  129MOL    H5048946   2.612   2.758   7.598  1.7952 -0.3611  2.0748
  129MOL    H5148947   2.440   2.876   7.579 -0.7340  0.4784 -1.0698
  129MOL    H5248948   2.168   2.764   7.526  2.9309 -1.6941  0.3864
  129MOL    H5348949   2.205   2.848   7.741  2.8959 -1.9970 -2.2045
  129MOL    H5448950   2.080   2.937   7.672 -0.1277  0.3858 -1.6976
  129MOL    H5548951   2.243   3.008   7.682  0.4133 -0.2837  1.7109
  129MOL    H5648952   2.114   2.946   7.379 -0.8984 -2.9384  2.1835
  129MOL    H5748953   2.241   2.868   7.306 -0.8306 -0.9724  0.0971
  129MOL    H5848954   2.274   3.018   7.397  0.8867 -0.8099  2.5965
  129MOL    C5948955   2.633   2.537   7.556 -0.6290  0.0727  1.3070
  129MOL    C6048956   2.705   2.567   7.416  0.3812  0.8443  0.3332
  129MOL    C6148957   2.597   2.605   7.315  0.0771  0.1163 -0.2661
  129MOL    O6248958   2.512   2.527   7.282 -0.2476  0.8196  0.1867
  129MOL    N6348959   2.613   2.728   7.259  0.2208  0.2192 -0.2912
  129MOL    C6448960   2.510   2.806   7.209 -0.1394 -0.6670  0.0670
  129MOL    C6548961   2.527   2.954   7.252 -0.9112 -0.2589 -0.4964
  129MOL    C6648962   2.503   2.783   7.060 -0.2824 -0.1528  0.1561
  129MOL    H6748963   2.703   2.491   7.625  1.1603 -0.1318 -0.5869
  129MOL    H6848964   2.559   2.457   7.545  0.5022 -1.1685  2.5183
  129MOL    H6948965   2.772   2.652   7.428  0.2597  0.9009  0.6173
  129MOL    H7048966   2.689   2.792   7.278 -0.0357  0.3286  0.3640
  129MOL    H7148967   2.413   2.766   7.239  0.5189 -1.1068  1.6425
  129MOL    H7248968   2.501   2.965   7.357 -0.3416  1.6768 -0.5521
  129MOL    H7348969   2.630   2.989   7.245 -0.5288 -1.4430 -1.0719
  129MOL    H7448970   2.462   3.022   7.197 -0.7887  1.1784  1.1255
  129MOL    H7548971   2.422   2.846   7.021  0.5559  0.1650 -1.0811
  129MOL    H7648972   2.600   2.783   7.011  1.3663  0.8123  3.2425
  129MOL    H7748973   2.465   2.682   7.047 -0.6477  0.3068 -2.7199
  129MOL    C7848974   2.793   2.454   7.363  0.2908 -0.4911  0.1415
  129MOL    C7948975   2.916   2.423   7.446  0.1394  0.4710  0.1611
  129MOL    C8048976   2.960   2.275   7.424 -0.0685  0.8234  0.2924
  129MOL    O8148977   2.990   2.241   7.313  0.1466 -0.3697  0.1621
  129MOL    N8248978   2.964   2.195   7.528 -0.5687 -0.3638 -0.7019
  129MOL    C8348979   3.001   2.054   7.525  0.4031 -0.7148 -0.4442
  129MOL    C8448980   3.086   2.015   7.646 -0.0483  0.2507 -0.2526
  129MOL    C8548981   2.872   1.970   7.517 -0.1890  1.0066  0.0204
  129MOL    H8648982   2.829   2.484   7.265 -3.1966  0.4213 -0.9205
  129MOL    H8748983   2.731   2.366   7.347  0.6797 -1.0747  1.6870
  129MOL    H8848984   2.884   2.429   7.550 -0.4737  0.7862 -0.0450
  129MOL    H8948985   2.935   2.228   7.619 -0.9495  2.0791 -1.6890
  129MOL    H9048986   3.061   2.032   7.437 -0.3168  1.3862 -1.4902
  129MOL    H9148987   3.104   1.909   7.660  0.7762  0.4666  0.3404
  129MOL    H9248988   3.188   2.039   7.618  0.1117  0.2447  0.3320
  129MOL    H9348989   3.062   2.064   7.740 -1.9951  0.8475 -1.0138
  129MOL    H9448990   2.812   2.008   7.435 -1.9135 -0.3940  0.6061
  129MOL    H9548991   2.809   1.975   7.606 -0.9501  2.5950 -0.5954
  129MOL    H9648992   2.904   1.868   7.495  0.6455  1.8841 -3.1242
  129MOL    C9748993   3.022   2.531   7.416  0.3507 -0.5118 -0.1025
  129MOL    C9848994   3.098   2.589   7.536 -0.2761 -0.2236 -0.9616
  129MOL    C9948995   3.158   2.476   7.622  0.2491 -0.3158  0.0967
  129MOL   O10048996   3.099   2.436   7.726  0.1780 -0.2414  0.0107
  129MOL   N10148997   3.265   2.425   7.583 -0.4527 -0.3289 -0.1334
  129MOL   C10248998   3.337   2.318   7.655 -0.1918  0.0857 -0.2679
  129MOL   C10348999   3.433   2.236   7.560 -0.7780 -0.3685 -0.4277
  129MOL   C10449000   3.427   2.383   7.759  0.2540 -0.1663  0.0351
  129MOL   H10549001   2.987   2.618   7.361 -0.7695  0.2209  1.7321
  129MOL   H10649002   3.100   2.492   7.351 -0.6571 -1.0167 -1.0182
  129MOL   H10749003   3.178   2.651   7.494  0.1565 -1.1766 -1.5485
  129MOL   H10849004   3.306   2.475   7.505 -0.0599  0.8365  0.8190
  129MOL   H10949005   3.269   2.254   7.711 -1.5195  0.3552 -1.5203
  129MOL   H11049006   3.489   2.172   7.629 -1.5377  0.5962  1.1097
  129MOL   H11149007   3.389   2.190   7.472  1.5403  1.3955 -2.5945
  129MOL   H11249008   3.510   2.289   7.504  0.3248  1.9623  3.1067
  129MOL   H11349009   3.510   2.424   7.704  0.9944  1.2352  2.1415
  129MOL   H11449010   3.464   2.313   7.835 -0.5886 -0.2185  0.4107
  129MOL   H11549011   3.376   2.457   7.820  0.2861 -0.5577  0.5484
  129MOL   C11649012   3.000   2.678   7.612 -0.0156 -0.1117  0.2506
  129MOL   C11749013   3.070   2.793   7.694  0.3447 -0.5420 -0.1592
  129MOL   C11849014   3.033   2.778   0.012 -1.3547  0.3541 -0.8902
  129MOL   O11949015   2.972   2.861   0.068  0.4197  0.2475 -0.4153
  129MOL   N12049016   3.077   2.664   0.061  0.2205  0.0423 -0.8999
  129MOL   C12149017   3.037   2.622   0.200  0.3137  0.5083 -0.3935
  129MOL   C12249018   2.906   2.549   0.184  0.0342 -0.3878 -0.4612
  129MOL   C12349019   3.144   2.533   0.264  0.3696 -0.1191 -0.4607
  129MOL   H12449020   2.929   2.628   7.679 -2.3740  1.8026 -0.7577
  129MOL   H12549021   2.924   2.716   7.543  1.5322 -0.4635 -1.6727
  129MOL   H12649022   3.179   2.782   7.695  0.3289 -0.6922  1.9484
  129MOL   H12749023   3.118   2.597   7.835  0.0641 -0.1906 -0.7513
  129MOL   H12849024   3.019   2.715   0.253  1.3743 -0.6123  2.0077
  129MOL   H12949025   2.834   2.610   0.129 -0.1822 -2.6992 -2.8398
  129MOL   H13049026   2.850   2.535   0.276 -1.8363  0.6702 -1.4021
  129MOL   H13149027   2.910   2.452   0.134  0.1324  0.9732 -3.1972
  129MOL   H13249028   3.246   2.567   0.279  0.5661 -0.5897 -0.7242
  129MOL   H13349029   3.110   2.502   0.362 -0.7633  0.7801 -0.5578
  129MOL   H13449030   3.163   2.447   0.200 -0.4938  0.1612 -1.1156
  129MOL   C13549031   3.026   2.927   7.625  0.4051 -0.2752  0.7556
  129MOL   C13649032   3.081   3.057   7.690 -0.4614  0.5009 -0.0445
  129MOL   C13749033   3.232   3.048   7.712  0.0180 -0.3561 -0.3552
  129MOL   O13849034   3.297   3.048   7.615 -0.0843  0.1890  0.1596
  129MOL   N13949035   3.274   3.042   0.003  0.1863 -0.5184  0.0458
  129MOL   C14049036   3.407   3.024   0.056  0.4876 -0.2532 -0.2233
  129MOL   C14149037   3.398   2.901   0.148 -0.2613 -0.4944  0.3540
  129MOL   C14249038   3.450   3.155   0.135  0.5731  0.0482  0.2360
  129MOL   H14349039   2.917   2.926   7.630  0.2321  2.6268 -1.3719
  129MOL   H14449040   3.048   2.927   7.518  1.8522  1.1666  1.0445
  129MOL   H14549041   3.032   3.054   7.787  0.6601 -1.0388  0.4912
  129MOL   H14649042   3.204   3.021   0.073  0.9189 -1.0241  0.6338
  129MOL   H14749043   3.475   3.002   7.810 -0.6912 -0.1623 -1.2207
  129MOL   H14849044   3.338   2.828   0.094 -1.3622  1.1007 -0.6360
  129MOL   H14949045   3.499   2.869   0.173  0.4912  1.1906 -0.4603
  129MOL   H15049046   3.360   2.923   0.248 -0.8917 -1.8571  0.4274
  129MOL   H15149047   3.479   3.236   0.069  1.6592  0.2639  0.9586
  129MOL   H15249048   3.544   3.125   0.182 -0.3679  0.7882  2.6695
  129MOL   H15349049   3.378   3.187   0.211 -1.8578  1.8440 -2.7132
  129MOL   C15449050   3.043   3.187   7.617 -0.3452  0.0320  0.6634
  129MOL   C15549051   3.059   3.318   7.693  0.2867 -0.6917 -0.2827
  129MOL   C15649052   2.964   3.322   7.810 -0.0265 -0.6576  0.2009
  129MOL   O15749053   2.847   3.353   7.797 -0.3094 -0.8368 -0.0989
  129MOL   N15849054   3.017   3.292   0.091  0.2513  0.0045 -0.6101
  129MOL   C15949055   2.962   3.320   0.220 -1.1267  0.0592  0.0807
  129MOL   C16049056   3.063   3.394   0.300 -0.8275 -0.8117 -0.0795
  129MOL   C16149057   2.912   3.196   0.295  1.0563 -0.0355 -0.0796
  129MOL   H16249058   2.940   3.163   7.592  0.1937  0.0893 -1.6677
  129MOL   H16349059   3.097   3.189   7.522 -1.3752 -0.4124  0.0702
  129MOL   H16449060   3.159   3.317   7.736  1.2535  1.2367 -2.3547
  129MOL   H16549061   3.106   3.243   0.096 -0.4388 -1.1525  0.6987
  129MOL   H16649062   2.866   3.372   0.222  0.4178  2.9821 -0.0785
  129MOL   H16749063   3.090   3.491   0.257 -1.9916 -0.5537 -0.2310
  129MOL   H16849064   3.019   3.414   0.397  2.2735  2.0730  0.8305
  129MOL   H16949065   3.157   3.339   0.310 -0.4012  0.1747  1.5921
  129MOL   H17049066   2.987   3.119   0.313 -1.1003 -1.8739  1.3510
  129MOL   H17149067   2.845   3.133   0.236  1.3658 -0.0948 -0.3656
  129MOL   H17249068   2.870   3.221   0.392  1.0894  0.8858 -0.2977
  129MOL   C17349069   3.038   3.445   7.607 -0.0567 -0.9203 -0.2233
  129MOL   C17449070   3.161   3.539   7.604  0.1606  0.5760 -0.4017
  129MOL   C17549071   3.161   3.639   7.486  0.4898  0.1642 -0.2625
  129MOL   O17649072   3.052   3.677   7.445  0.5476  0.2435  0.1802
  129MOL   N17749073   3.280   3.688   7.443  0.1216 -0.3251  0.4402
  129MOL   C17849074   3.299   3.775   7.332 -0.4178  0.0337  0.0898
  129MOL   C17949075   3.234   3.909   7.354  0.2396 -0.3078 -0.3964
  129MOL   C18049076   3.266   3.706   7.194  0.1487 -0.6198 -0.5553
  129MOL   H18149077   2.957   3.514   7.632  0.2291 -1.1403  1.3995
  129MOL   H18249078   3.024   3.424   7.501 -0.5096 -0.5713 -0.2338
  129MOL   H18349079   3.248   3.475   7.591 -0.7544 -0.5382 -1.0311
  129MOL   H18449080   3.355   3.640   7.490  0.6704  1.1693  1.1045
  129MOL   H18549081   3.407   3.790   7.333 -0.5711  1.3613  3.0291
  129MOL   H18649082   3.267   3.981   7.279  0.2117  0.6379  0.4750
  129MOL   H18749083   3.273   3.941   7.451  1.7376  2.1256 -1.7343
  129MOL   H18849084   3.126   3.894   7.363  0.3887 -0.4807  1.2910
  129MOL   H18949085   3.162   3.673   7.188  0.1131 -0.5594 -0.2638
  129MOL   H19049086   3.320   3.612   7.179  1.3762 -0.2417  1.3513
  129MOL   H19149087   3.289   3.768   7.107 -1.2801 -0.0671 -0.5473
  129MOL   C19249088   3.192   3.616   7.734 -0.2952  0.7057  0.5854
  129MOL   C19349089   3.100   3.737   7.775  0.5272  0.0568  0.1760
  129MOL   C19449090   3.186   3.858   7.826  0.5656 -0.0592  0.3317
  129MOL   O19549091   3.287   3.830   0.057  0.5655  0.1783  0.1089
  129MOL   N19649092   3.146   3.981   7.799  0.3154 -0.7336 -0.1665
  129MOL   C19749093   3.215   4.097   0.014 -0.6864  0.5316  0.1979
  129MOL   C19849094   3.171   4.222   7.785  0.3758  1.3109 -0.3061
  129MOL   C19949095   3.204   4.126   0.166 -0.1222 -0.3299  0.2913
  129MOL   H20049096   3.296   3.649   7.735 -0.3195  0.8589 -0.5257
  129MOL   H20149097   3.196   3.540   7.812  1.2895  0.4022  0.2275
  129MOL   H20249098   3.048   3.775   7.687 -1.0870  0.2775  1.1992
  129MOL   H20349099   3.059   3.997   7.751 -0.9342 -0.6864  2.0434
  129MOL   H20449100   3.320   4.086   7.825 -0.5931  3.2560 -0.7679
  129MOL   H20549101   3.215   4.320   7.806 -1.2919  1.7793  1.1522
  129MOL   H20649102   3.070   4.250   7.817 -0.5581 -1.8555 -0.3303
  129MOL   H20749103   3.173   4.223   7.676 -0.1492  0.3991 -0.3333
  129MOL   H20849104   3.107   4.103   0.209 -0.5030 -2.4858 -1.6395
  129MOL   H20949105   3.242   4.220   0.207 -1.2223 -0.5959  1.9528
  129MOL   H21049106   3.264   4.045   0.206 -0.3165 -0.2199  0.8047
  129MOL   C21149107   3.004   3.685   0.040  0.2735 -0.2073 -0.6476
  129MOL   C21249108   2.896   3.778   0.086  0.0176  0.4499  0.5486
  129MOL   C21349109   2.786   3.795   7.825  0.2686  1.1003  1.1097
  129MOL   O21449110   2.689   3.859   0.010  0.3472  0.3147 -0.0110
  129MOL   N21549111   2.796   3.727   7.702 -0.1096 -0.4618  0.1289
  129MOL   C21649112   2.697   3.732   7.592  0.2393 -0.8673  0.1688
  129MOL   C21749113   2.702   3.605   7.510 -0.1483 -0.0141  0.0756
  129MOL   C21849114   2.722   3.861   7.503  0.4670 -0.5293  0.2917
  129MOL   H21949115   3.066   3.666   0.128 -0.6416 -0.9219 -0.1584
  129MOL   H22049116   2.964   3.585   0.026 -0.7492 -0.2977  2.5060
  129MOL   H22149117   2.931   3.881   0.087 -1.7818  1.0766 -0.0727
  129MOL   H22249118   2.882   3.680   7.679  0.0007  0.2547 -0.9884
  129MOL   H22349119   2.595   3.751   7.625 -0.4949 -1.8218 -1.5036
  129MOL   H22449120   2.660   3.518   7.561  0.3563  0.8068  1.9253
  129MOL   H22549121   2.655   3.621   7.413  3.2916 -0.8245 -1.8286
  129MOL   H22649122   2.803   3.584   7.475  0.0792  3.0355 -1.3230
  129MOL   H22749123   2.740   3.946   7.568 -3.2936  1.4815 -1.1220
  129MOL   H22849124   2.647   3.876   7.425  1.2093  0.1529 -0.3055
  129MOL   H22949125   2.813   3.857   7.443  1.0216 -1.3301  1.1794
  129MOL   C23049126   2.855   3.745   0.232 -0.7571 -0.3337  0.3626
  129MOL   C23149127   2.774   3.855   0.305 -0.0562 -0.1068 -0.2355
  129MOL   C23249128   2.624   3.817   0.313 -0.1323 -0.3069  0.2128
  129MOL   O23349129   2.587   3.718   0.373  0.1444 -0.4101  1.0357
  129MOL   N23449130   2.535   3.897   0.260  0.4417  0.4415  0.4175
  129MOL   C23549131   2.395   3.884   0.249 -0.4114  0.3814 -0.4241
  129MOL   C23649132   2.332   3.926   0.381 -0.8674  0.3771  0.1639
  129MOL   C23749133   2.341   3.964   0.131  0.0403  0.7541  0.4016
  129MOL   H23849134   2.950   3.733   0.285 -0.4393  1.2346  0.1719
  129MOL   H23949135   2.803   3.650   0.237  0.3726 -1.0349 -0.8687
  129MOL   H24049136   2.779   3.939   0.236  0.1807 -0.6897 -0.9402
  129MOL   H24149137   2.577   3.961   0.194  1.8402  0.4976  1.3308
  129MOL   H24249138   2.379   3.776   0.249  0.0118  0.2554  3.2088
  129MOL   H24349139   2.407   3.904   0.457 -2.3142  0.8660  1.7712
  129MOL   H24449140   2.315   4.033   0.382 -3.5392 -0.0064 -0.3531
  129MOL   H24549141   2.236   3.881   0.409  0.6768 -3.4749 -0.3659
  129MOL   H24649142   2.387   4.063   0.136  0.1244  0.6363  2.8611
  129MOL   H24749143   2.232   3.974   0.137  0.0382 -0.3342  2.6890
  129MOL   H24849144   2.369   3.912   0.039  2.5762  1.6284  0.6536
  129MOL   C24949145   2.821   3.876   0.454 -0.0199 -0.3649  0.6259
  129MOL   C25049146   2.757   4.000   0.521  0.1304 -0.1292  0.2529
  129MOL   C25149147   2.777   4.135   0.447  0.0682 -0.7640 -0.1866
  129MOL   O25249148   2.876   4.153   0.378  0.2579  0.0071 -0.1361
  129MOL   N25349149   2.688   4.235   0.464  0.0912  0.2060  0.7271
  129MOL   C25449150   2.689   4.375   0.410  0.0407  0.4747  0.0448
  129MOL   C25549151   2.571   4.394   0.318  0.9974 -0.1064  0.0735
  129MOL   C25649152   2.697   4.477   0.527  0.1035  0.9403 -0.1507
  129MOL   H25749153   2.928   3.887   0.469  0.2694 -3.0506  0.8123
  129MOL   H25849154   2.789   3.789   0.510  0.7292 -0.5745  0.7345
  129MOL   H25949155   2.650   3.980   0.526  0.1677 -0.3095  0.3527
  129MOL   H26049156   2.617   4.219   0.534  0.4181  2.4598  1.6353
  129MOL   H26149157   2.768   4.398   0.339 -1.6217  2.7196 -1.1393
  129MOL   H26249158   2.576   4.487   0.262  0.3161  0.3260  0.7320
  129MOL   H26349159   2.579   4.312   0.247  0.5434 -0.0335 -0.0591
  129MOL   H26449160   2.474   4.385   0.367  1.0487 -4.6986 -0.3901
  129MOL   H26549161   2.788   4.447   0.578 -0.1448 -1.8397 -1.2898
  129MOL   H26649162   2.702   4.581   0.495 -1.9618  0.0230 -3.6380
  129MOL   H26749163   2.621   4.473   0.606  1.5246 -1.4660  1.1420
  129MOL   C26849164   2.807   3.998   0.668 -0.4112  0.1782 -0.1019
  129MOL   C26949165   2.762   4.110   0.773  0.4149  0.4911  0.2136
  129MOL   C27049166   2.609   4.099   0.798  0.0952 -0.3297 -0.1313
  129MOL   O27149167   2.563   4.001   0.862 -0.3869  0.0232  0.8379
  129MOL   N27249168   2.533   4.206   0.761  0.2109  0.3557 -0.0606
  129MOL   C27349169   2.388   4.204   0.773  0.2463  0.3318  0.4002
  129MOL   C27449170   2.348   4.298   0.885 -0.2121 -0.4062  0.4777
  129MOL   C27549171   2.328   4.246   0.645  0.6156  0.0331  0.5156
  129MOL   H27649172   2.785   3.906   0.721  0.0280  0.2539  0.2167
  129MOL   H27749173   2.916   3.989   0.666 -0.4676 -0.4513 -0.4194
  129MOL   H27849174   2.773   4.210   0.730 -0.4523  1.3524  1.8992
  129MOL   H27949175   2.582   4.286   0.723 -0.9187  0.9909 -0.1956
  129MOL   H28049176   2.343   4.110   0.804  0.1946  0.4474  0.6805
  129MOL   H28149177   2.242   4.288   0.908 -0.0991 -0.4396  0.9823
  129MOL   H28249178   2.402   4.277   0.977 -0.1438 -0.6274  0.3876
  129MOL   H28349179   2.371   4.402   0.862  1.1036 -0.7339  0.2501
  129MOL   H28449180   2.225   4.210   0.649  0.6455  0.1223  2.6295
  129MOL   H28549181   2.340   4.352   0.622 -0.0674 -0.0319 -0.1535
  129MOL   H28649182   2.375   4.198   0.559  0.8430 -1.2913  1.3643
  129MOL   C28749183   2.832   4.096   0.909 -0.3513 -0.2886 -0.7105
  129MOL   C28849184   2.784   4.202   1.014  0.6019  0.5958  0.2423
  129MOL   C28949185   2.817   4.342   0.967  0.4226 -0.7685  0.0634
  129MOL   O29049186   2.914   4.362   0.894  0.0828  0.1381  0.0533
  129MOL   N29149187   2.739   4.442   1.014 -0.7236 -0.3128 -1.1543
  129MOL   C29249188   2.749   4.580   0.967 -0.6685  0.2558  0.2785
  129MOL   C29349189   2.634   4.661   1.049  0.0025  0.1619  0.1679
  129MOL   C29449190   2.885   4.653   1.003  0.0158 -0.2050 -0.5520
  129MOL   H29549191   2.817   4.001   0.960  2.0211  0.3871  1.3549
  129MOL   H29649192   2.939   4.107   0.890 -0.1469 -4.3752 -2.4904
  129MOL   H29749193   2.676   4.205   1.027  0.4359 -0.0644 -0.9343
  129MOL   H29849194   2.679   4.420   1.093  1.8650 -1.6556  0.5135
  129MOL   H29949195   2.728   4.575   0.860 -0.5429 -2.0653  0.3567
  129MOL   H30049196   2.535   4.618   1.042 -0.8418  1.5551  2.7991
  129MOL   H30149197   2.669   4.668   1.153 -0.3835 -0.3761  0.3366
  129MOL   H30249198   2.629   4.766   1.020  0.0934  0.6152  1.6991
  129MOL   H30349199   2.974   4.609   0.958 -0.7901 -2.1528 -0.2947
  129MOL   H30449200   2.882   4.755   0.966 -1.4574  0.4497  1.3343
  129MOL   H30549201   2.885   4.656   1.112 -2.5926 -0.9353 -0.5009
  129MOL   C30649202   2.853   4.165   1.152  0.3505 -0.5599  0.8635
  129MOL   C30749203   2.825   4.234   1.287 -0.4586 -0.7919  0.2065
  129MOL   C30849204   2.675   4.245   1.300 -0.1238 -0.1298 -0.7988
  129MOL   O30949205   2.614   4.347   1.267  0.7299 -0.5295 -0.1354
  129MOL   N31049206   2.616   4.142   1.356 -0.0178  0.1598  0.5568
  129MOL   C31149207   2.471   4.104   1.353  0.0919  0.8138 -0.4203
  129MOL   C31249208   2.464   3.963   1.409 -0.8985  0.6046  0.0805
  129MOL   C31349209   2.369   4.191   1.439  0.4135  0.2993  0.3020
  129MOL   H31449210   2.844   4.058   1.168 -1.2937 -0.6946 -0.7529
  129MOL   H31549211   2.960   4.168   1.129 -0.2526  3.2131 -2.0313
  129MOL   H31649212   2.864   4.167   1.364  0.0861  0.6592  1.2121
  129MOL   H31749213   2.677   4.068   1.388  0.8206  0.5291 -0.1751
  129MOL   H31849214   2.426   4.105   1.254  1.6694 -1.8572 -1.2174
  129MOL   H31949215   2.522   3.891   1.351 -1.7046  1.1690 -1.4727
  129MOL   H32049216   2.363   3.925   1.419 -0.0648 -1.3494  1.4348
  129MOL   H32149217   2.505   3.947   1.509 -2.6157  1.8035  1.0119
  129MOL   H32249218   2.271   4.148   1.417  0.3587  0.4497  0.2467
  129MOL   H32349219   2.360   4.296   1.411 -0.3757  1.1883  3.6411
  129MOL   H32449220   2.404   4.185   1.542  0.0212  1.8769  0.5438
  129MOL   C32549221   2.905   4.372   1.307  0.4147 -0.2140 -0.0132
  129MOL   C32649222   2.946   4.422   1.447 -0.0640  0.5450  0.2092
  129MOL   C32749223   3.026   4.322   1.531 -0.6432  0.3225  0.4158
  129MOL   O32849224   3.144   4.311   1.515  0.2147  0.9596  0.0435
  129MOL   N32949225   2.958   4.257   1.627 -0.1579  0.3091 -0.0581
  129MOL   C33049226   3.021   4.149   1.713  0.4228 -1.0193 -0.4805
  129MOL   C33149227   2.921   4.036   1.716  0.1735 -0.1964  0.1858
  129MOL   C33249228   3.062   4.212   1.849 -0.1953  0.5014  0.3077
  129MOL   H33349229   2.853   4.451   1.254 -0.9030  0.5456  2.3317
  129MOL   H33449230   2.993   4.361   1.245 -1.7587 -0.9747 -3.0818
  129MOL   H33549231   2.851   4.436   1.498 -0.1253 -0.2389  0.3043
  129MOL   H33649232   2.859   4.277   1.623  0.3531  2.9442 -0.1764
  129MOL   H33749233   3.113   4.116   1.667 -1.0469 -3.4703 -1.7711
  129MOL   H33849234   2.869   4.007   1.625 -0.6801 -0.1809  0.6625
  129MOL   H33949235   2.985   3.951   1.740  0.8699  0.9172  2.4371
  129MOL   H34049236   2.844   4.033   1.793 -0.8073 -1.8705 -0.8173
  129MOL   H34149237   3.107   4.138   1.915  1.0152 -0.0061 -1.0592
  129MOL   H34249238   2.975   4.239   1.909 -0.2836  2.0017 -0.4627
  129MOL   H34349239   3.146   4.281   1.846  0.3408 -0.1748 -0.5056
  129MOL   C34449240   3.023   4.562   1.444  0.0527 -0.1099 -0.3699
  129MOL   C34549241   3.048   4.624   1.585  0.6296 -0.3237  0.3361
  129MOL   C34649242   3.174   4.712   1.593  0.5009 -0.4624  0.5954
  129MOL   O34749243   3.183   4.810   1.517 -0.1842  0.0982 -0.1292
  129MOL   N34849244   3.273   4.667   1.674  0.1403 -0.0829  0.0464
  129MOL   C34949245   3.407   4.720   1.671 -0.2991 -0.4630  0.2243
  129MOL   C35049246   3.409   4.844   1.762 -0.1349  0.6372  0.3375
  129MOL   C35149247   3.513   4.618   1.722  0.2514 -0.2105  0.0483
  129MOL   H35249248   2.973   4.630   1.376  1.8271  1.5723 -0.0378
  129MOL   H35349249   3.123   4.557   1.400  0.4497 -0.5616  0.5554
  129MOL   H35449250   3.048   4.546   1.660  0.1705 -1.3029 -0.6694
  129MOL   H35549251   3.251   4.588   1.732  0.8525  0.5982  1.2760
  129MOL   H35649252   3.431   4.754   1.571  0.9236 -3.9223 -0.7207
  129MOL   H35749253   3.353   4.828   1.854 -1.9171  1.3332 -0.5811
  129MOL   H35849254   3.506   4.875   1.800 -0.3564  1.7106  0.0487
  129MOL   H35949255   3.370   4.934   1.714 -0.9650 -0.4831 -1.1403
  129MOL   H36049256   3.515   4.527   1.661  1.2884 -0.4377  0.4066
  129MOL   H36149257   3.609   4.668   1.715 -0.9373  2.4735  2.1300
  129MOL   H36249258   3.495   4.590   1.826  1.4632  1.0937  0.6248
  129MOL   C36349259   2.914   4.701   1.621 -0.2569 -1.1216  0.0023
  129MOL   C36449260   2.922   4.808   1.730 -0.6191  0.2393 -0.0128
  129MOL   C36549261   2.918   4.763   1.874 -0.3019 -0.3717 -0.2352
  129MOL   O36649262   2.808   4.753   1.924  0.2475  0.1865  0.4958
  129MOL   N36749263   3.034   4.737   1.924 -0.2376  0.2076  0.6606
  129MOL   C36849264   3.057   4.672   2.047 -0.2935  0.2993 -0.5133
  129MOL   C36949265   3.003   4.527   2.035 -0.1374 -0.2016 -0.7246
  129MOL   C37049266   3.203   4.675   2.086 -0.1917 -0.4907 -0.0821
  129MOL   H37149267   2.828   4.636   1.639  0.1438 -1.3242  1.2520
  129MOL   H37249268   2.885   4.775   1.548  2.8170 -0.6571 -0.8336
  129MOL   H37349269   2.838   4.878   1.719 -2.2505 -2.0548 -2.7298
  129MOL   H37449270   3.114   4.763   1.868 -1.1006  0.9343 -0.2555
  129MOL   H37549271   3.001   4.711   2.132  1.6726 -0.3444  1.1228
  129MOL   H37649272   3.005   4.480   2.134 -2.6869 -0.5686 -0.8233
  129MOL   H37749273   2.898   4.524   2.007  0.1267  2.2250 -2.1718
  129MOL   H37849274   3.061   4.479   1.957 -1.1380 -2.6419  0.0053
  129MOL   H37949275   3.231   4.633   2.183  1.1674  1.2313  0.3062
  129MOL   H38049276   3.264   4.627   2.011  0.8955  0.1305  0.3859
  129MOL   H38149277   3.224   4.782   2.079 -0.5620 -0.1624  2.8607
  129MOL   H38249278   3.010   4.871   1.723  1.5595 -2.7788 -0.5523
  130MOL     C149279   2.553   6.027   4.927  0.2174 -0.1322  0.1216
  130MOL     C249280   2.622   5.923   5.010 -0.1553  0.3098 -0.3892
  130MOL     C349281   2.741   5.988   5.091  0.4280 -0.6067  0.2774
  130MOL     O449282   2.721   6.038   5.201 -0.7928 -0.4093 -0.8209
  130MOL     N549283   2.862   5.985   5.031 -0.5450  0.0338 -0.0515
  130MOL     C649284   2.982   6.060   5.074 -0.1851  0.0685 -0.1076
  130MOL     C749285   3.041   6.016   5.212 -0.1294  0.1217 -0.1634
  130MOL     C849286   3.097   6.038   4.966  0.0861 -0.9727  0.0668
  130MOL     H949287   2.526   6.108   4.995  0.5613 -2.3093  2.9469
  130MOL    H1049288   2.457   5.984   4.897  0.6403 -1.9212  1.2791
  130MOL    H1149289   2.664   5.845   4.946 -0.3073  1.2215 -1.6143
  130MOL    H1249290   2.861   5.937   4.942  2.0797 -0.8306  0.3515
  130MOL    H1349291   2.948   6.163   5.082 -1.1357 -0.3656  1.5973
  130MOL    H1449292   3.121   6.078   5.252 -0.6311  2.8575 -3.1629
  130MOL    H1549293   3.079   5.915   5.203 -0.2562 -0.0702  1.3168
  130MOL    H1649294   2.969   6.007   5.294  0.3586 -2.1142  0.0403
  130MOL    H1749295   3.052   6.071   4.873 -0.2946 -1.7122 -0.0111
  130MOL    H1849296   3.192   6.086   4.990 -0.3225 -0.9009  1.6247
  130MOL    H1949297   3.120   5.937   4.932 -0.0288 -0.7826 -0.5871
  130MOL    H2049298   2.607   6.059   4.838  0.3646 -1.1481 -0.1688
  130MOL    C2149299   2.520   5.856   5.107  0.8654 -0.2255  0.0671
  130MOL    C2249300   2.563   5.727   5.196 -0.2114  0.1384  0.7546
  130MOL    C2349301   2.635   5.624   5.118 -0.4236  0.7074 -0.0689
  130MOL    O2449302   2.590   5.578   5.015  0.0097 -0.1360  0.3050
  130MOL    N2549303   2.758   5.603   5.160  0.5587 -0.1565  0.4008
  130MOL    C2649304   2.869   5.547   5.087 -0.0101  0.3221  0.4224
  130MOL    C2749305   2.891   5.406   5.149  0.1861  0.4284 -0.5784
  130MOL    C2849306   2.986   5.638   5.082  0.1474  0.8440 -0.0516
  130MOL    H2949307   2.439   5.814   5.047  0.7681 -1.7301  1.2449
  130MOL    H3049308   2.484   5.922   5.185 -0.7083 -0.6217 -0.2914
  130MOL    H3149309   2.634   5.764   5.269  0.0134 -1.9699  1.6407
  130MOL    H3249310   2.778   5.639   5.253 -2.3535  0.5092  0.8528
  130MOL    H3349311   2.844   5.532   4.982 -1.8592  1.0872  0.7369
  130MOL    H3449312   2.977   5.364   5.097  0.5642 -0.1492  0.4968
  130MOL    H3549313   2.806   5.338   5.141 -0.2663  0.8973  0.2495
  130MOL    H3649314   2.916   5.413   5.255 -3.0783  0.5837  0.2309
  130MOL    H3749315   2.985   5.718   5.008  0.3302 -0.0179 -1.0019
  130MOL    H3849316   3.009   5.687   5.176 -0.6908 -0.3908  0.8003
  130MOL    H3949317   3.068   5.574   5.050  1.7461  1.6311  2.3564
  130MOL    C4049318   2.459   5.647   5.274  0.1853 -0.6110 -0.7960
  130MOL    C4149319   2.491   5.634   5.423 -1.0847 -0.1826 -0.0654
  130MOL    C4249320   2.623   5.561   5.449  0.8020  0.3157  0.5969
  130MOL    O4349321   2.638   5.450   5.394 -0.1543  0.1059 -0.3852
  130MOL    N4449322   2.721   5.609   5.521  0.1657 -0.0620 -0.0669
  130MOL    C4549323   2.841   5.537   5.566 -0.5302 -0.4783 -0.6875
  130MOL    C4649324   2.957   5.637   5.553 -0.6601 -0.2368  0.2272
  130MOL    C4749325   2.823   5.491   5.709  0.0936 -0.1102  0.9546
  130MOL    H4849326   2.435   5.549   5.232  0.1084 -0.0108 -2.2145
  130MOL    H4949327   2.365   5.698   5.250  1.0795  1.3818 -0.1810
  130MOL    H5049328   2.507   5.737   5.456 -0.2919  1.0271 -3.9838
  130MOL    H5149329   2.691   5.687   5.579 -0.9268 -0.7362  0.2934
  130MOL    H5249330   2.862   5.462   5.490 -0.7256 -0.5429 -0.6769
  130MOL    H5349331   2.968   5.658   5.446  0.8072  0.5727  0.5197
  130MOL    H5449332   3.056   5.597   5.573 -0.4723 -0.5029 -1.2198
  130MOL    H5549333   2.947   5.733   5.604  0.4114 -0.6444  1.2332
  130MOL    H5649334   2.744   5.416   5.708 -0.1873  0.1884  0.5469
  130MOL    H5749335   2.778   5.570   5.769  0.2651 -0.7209  1.9013
  130MOL    H5849336   2.917   5.456   5.752  0.0270  0.2072  1.3559
  130MOL    C5949337   2.371   5.580   5.501  0.2941 -0.6000 -0.5305
  130MOL    C6049338   2.363   5.587   5.654 -0.3265 -0.0886 -0.5566
  130MOL    C6149339   2.271   5.469   5.686  0.0602 -0.3435  0.4018
  130MOL    O6249340   2.321   5.364   5.728 -0.3055  0.0507 -0.6161
  130MOL    N6349341   2.144   5.480   5.642 -0.0227 -0.0473  0.2550
  130MOL    C6449342   2.036   5.387   5.650  0.2554 -0.1084 -0.0439
  130MOL    C6549343   1.924   5.460   5.727  0.3748  1.0915 -0.6028
  130MOL    C6649344   1.999   5.358   5.500 -0.1327  0.3691 -0.0241
  130MOL    H6749345   2.289   5.636   5.455 -0.8608 -2.6796 -1.0654
  130MOL    H6849346   2.361   5.479   5.462  0.2519 -0.8945  0.2217
  130MOL    H6949347   2.464   5.556   5.683 -0.0135  1.0479 -0.4288
  130MOL    H7049348   2.128   5.570   5.598 -2.8334 -0.4118  0.4423
  130MOL    H7149349   2.065   5.303   5.712 -0.6369  0.6372  1.4205
  130MOL    H7249350   1.836   5.396   5.723  0.5373  0.6692  1.9964
  130MOL    H7349351   1.947   5.482   5.831  0.9984 -3.1467  0.2422
  130MOL    H7449352   1.886   5.545   5.671  0.0442  0.5317 -1.2288
  130MOL    H7549353   2.069   5.281   5.467  0.7512  0.8904  0.6216
  130MOL    H7649354   1.896   5.322   5.508  0.0111 -0.1270 -0.3445
  130MOL    H7749355   1.992   5.443   5.432 -0.5401 -0.3738 -0.9190
  130MOL    C7849356   2.315   5.719   5.715  0.1015  0.0211  0.0634
  130MOL    C7949357   2.405   5.786   5.827 -0.1144  0.1601  0.6606
  130MOL    C8049358   2.538   5.834   5.760  0.8197 -0.2574  0.2183
  130MOL    O8149359   2.639   5.761   5.764 -0.1201  0.8315 -0.1641
  130MOL    N8249360   2.542   5.955   5.699  0.7235 -0.2306 -0.3429
  130MOL    C8349361   2.647   6.004   5.605  0.2065  0.9327  0.1475
  130MOL    C8449362   2.576   6.104   5.509  0.1470  0.6228  0.0927
  130MOL    C8549363   2.764   6.051   5.680 -0.6304 -0.4925  1.2790
  130MOL    H8649364   2.218   5.689   5.757 -0.6491  1.8049 -0.3470
  130MOL    H8749365   2.278   5.791   5.642 -3.1606  1.0569  2.5775
  130MOL    H8849366   2.445   5.711   5.894 -1.3941 -0.8104  0.3521
  130MOL    H8949367   2.459   6.012   5.708  1.0195  0.4319 -1.6378
  130MOL    H9049368   2.679   5.922   5.541  2.1886 -0.0406  2.2612
  130MOL    H9149369   2.506   6.168   5.564 -1.0551 -0.1946 -0.4635
  130MOL    H9249370   2.641   6.174   5.457 -1.6361 -0.6333 -3.9911
  130MOL    H9349371   2.520   6.048   5.435  0.1646  0.3260  0.3001
  130MOL    H9449372   2.796   5.976   5.753 -1.3378 -0.0763  2.0174
  130MOL    H9549373   2.735   6.136   5.741  0.1407  0.8537 -0.1962
  130MOL    H9649374   2.844   6.073   5.608 -1.7341  1.8996  0.7428
  130MOL    C9749375   2.320   5.890   5.913 -0.3599  0.0694 -0.0155
  130MOL    C9849376   2.395   5.956   6.039 -1.4818  0.3718 -0.3410
  130MOL    C9949377   2.316   5.936   6.166 -0.5871  0.2856  0.0245
  130MOL   O10049378   2.200   5.984   6.182  0.6797 -0.3401 -0.1235
  130MOL   N10149379   2.382   5.875   6.263 -0.0853  0.2727  0.0646
  130MOL   C10249380   2.328   5.829   6.384  0.1077 -0.4028  0.5120
  130MOL   C10349381   2.259   5.695   6.364 -0.6791 -0.5429  0.0215
  130MOL   C10449382   2.439   5.819   6.481 -0.4704 -0.4542 -0.1937
  130MOL   H10549383   2.237   5.834   5.954 -2.0174  1.4201 -1.4266
  130MOL   H10649384   2.274   5.953   5.837 -0.0089  1.2804  0.7614
  130MOL   H10749385   2.489   5.902   6.053 -1.9280 -0.5563 -0.8608
  130MOL   H10849386   2.483   5.869   6.257  0.2131  4.3179 -0.1671
  130MOL   H10949387   2.259   5.902   6.425  0.5320 -0.6802  1.7359
  130MOL   H11049388   2.237   5.650   6.461 -1.4920 -1.2655 -0.4831
  130MOL   H11149389   2.165   5.712   6.310  1.1399  1.3450 -2.6336
  130MOL   H11249390   2.325   5.627   6.311  0.1848  0.1511  0.2084
  130MOL   H11349391   2.506   5.735   6.461  2.2822  0.7244  3.5802
  130MOL   H11449392   2.409   5.813   6.585 -1.3723 -3.1061 -0.5693
  130MOL   H11549393   2.511   5.900   6.478  0.4265 -1.2488 -0.5468
  130MOL   C11649394   2.435   6.105   6.016 -0.2882 -0.5555 -0.3142
  130MOL   C11749395   2.327   6.215   5.982 -0.0359  1.7157 -0.4442
  130MOL   C11849396   2.265   6.202   5.844  0.3279  0.3929 -0.1089
  130MOL   O11949397   2.343   6.192   5.744  0.1897 -0.4306 -0.4849
  130MOL   N12049398   2.135   6.212   5.835 -0.3704  0.4306  1.0555
  130MOL   C12149399   2.070   6.226   5.703 -0.6857  0.3093 -0.1660
  130MOL   C12249400   1.992   6.094   5.675  0.1026 -0.2783 -0.5488
  130MOL   C12349401   1.972   6.342   5.709 -0.2935 -0.0715 -0.3044
  130MOL   H12449402   2.520   6.105   5.948  0.0043 -2.7277  0.0265
  130MOL   H12549403   2.503   6.139   6.095 -0.1473 -1.0943 -0.2039
  130MOL   H12649404   2.246   6.215   6.056 -0.5556 -4.9588 -0.7458
  130MOL   H12749405   2.072   6.215   5.914 -0.5411  1.1156  0.9023
  130MOL   H12849406   2.142   6.241   5.623  1.8186  1.9591  2.3298
  130MOL   H12949407   2.051   6.004   5.693  0.4279  0.5262  2.7421
  130MOL   H13049408   1.947   6.086   5.575 -0.5820 -3.2754 -0.0420
  130MOL   H13149409   1.909   6.097   5.746  1.4778  0.7606  1.0384
  130MOL   H13249410   1.897   6.339   5.788 -0.4019  0.5932 -0.3794
  130MOL   H13349411   2.022   6.438   5.726  0.7243 -0.9191  1.6773
  130MOL   H13449412   1.917   6.345   5.616 -1.1272 -0.9544  0.1592
  130MOL   C13549413   2.384   6.362   5.992  0.1039 -0.5143 -0.4713
  130MOL   C13649414   2.298   6.488   5.946  0.2815  1.1030 -0.9499
  130MOL   C13749415   2.173   6.512   6.032 -0.0207  0.1726  0.3160
  130MOL   O13849416   2.164   6.456   6.140 -0.0675 -0.3537  0.0999
  130MOL   N13949417   2.084   6.593   5.986 -0.2623  0.1912 -0.1662
  130MOL   C14049418   1.966   6.643   6.059 -0.2501  0.3146  0.6547
  130MOL   C14149419   1.847   6.625   5.963  0.0820 -0.7340  0.8485
  130MOL   C14249420   1.987   6.794   6.095  0.8557 -0.4983 -0.0820
  130MOL   H14349421   2.475   6.357   5.931  0.7617  2.1561  0.2519
  130MOL   H14449422   2.426   6.379   6.091 -0.5591  2.5171 -0.6809
  130MOL   H14549423   2.269   6.476   5.842  1.5334 -2.3197 -0.9570
  130MOL   H14649424   2.103   6.639   5.898 -2.2096  0.2196 -0.6034
  130MOL   H14749425   1.960   6.584   6.150  1.4102 -0.6435  0.1487
  130MOL   H14849426   1.757   6.657   6.017 -0.1936 -0.3614  0.1809
  130MOL   H14949427   1.851   6.700   5.884  0.0538 -0.2476  1.3045
  130MOL   H15049428   1.832   6.527   5.917 -0.3174 -0.8138  1.1378
  130MOL   H15149429   1.910   6.841   6.155  0.0777  0.8578 -2.0601
  130MOL   H15249430   2.004   6.844   5.999 -1.0808 -1.4861 -0.9773
  130MOL   H15349431   2.082   6.800   6.148  1.6651 -0.4315 -1.4984
  130MOL   C15449432   2.382   6.618   5.967 -0.2190 -0.1117 -0.3865
  130MOL   C15549433   2.523   6.627   5.897  0.4566 -0.8070 -0.2890
  130MOL   C15649434   2.600   6.749   5.953  0.0180 -0.2563 -0.2400
  130MOL   O15749435   2.574   6.864   5.912  0.2287 -0.8161  0.2512
  130MOL   N15849436   2.706   6.719   6.030  0.5504  0.2865 -0.2172
  130MOL   C15949437   2.796   6.817   6.091 -0.1395  0.0998 -0.1799
  130MOL   C16049438   2.913   6.837   5.993 -0.3858 -0.0634  0.0994
  130MOL   C16149439   2.845   6.764   6.225 -0.2972 -0.3778 -0.7964
  130MOL   H16249440   2.391   6.650   6.071 -1.0300  1.7615 -0.8649
  130MOL   H16349441   2.322   6.699   5.925  0.0628  0.8760  1.1089
  130MOL   H16449442   2.576   6.535   5.919  0.2728 -0.4344  1.8727
  130MOL   H16549443   2.718   6.627   6.072  0.6604 -0.3473 -1.6198
  130MOL   H16649444   2.739   6.907   6.112  1.1423  0.4118  2.1799
  130MOL   H16749445   2.983   6.903   6.044  1.6927 -0.4712 -2.1231
  130MOL   H16849446   2.966   6.746   5.966  0.9274  0.9750 -0.8595
  130MOL   H16949447   2.876   6.876   5.898 -0.1981  0.5687  0.2801
  130MOL   H17049448   2.762   6.759   6.295 -0.3798  2.2054 -0.6558
  130MOL   H17149449   2.914   6.831   6.277  1.6199 -3.8936  1.4003
  130MOL   H17249450   2.885   6.664   6.207 -0.5375 -0.4355 -1.0045
  130MOL   C17349451   2.513   6.642   5.740 -0.1544  0.3178 -0.5620
  130MOL   C17449452   2.528   6.504   5.677  0.1971 -0.0099 -0.1336
  130MOL   C17549453   2.465   6.505   5.535  0.7924 -0.3098  0.1967
  130MOL   O17649454   2.494   6.589   5.452  0.4850  0.6284 -0.4706
  130MOL   N17749455   2.379   6.406   5.504 -0.5623 -0.0407 -0.3574
  130MOL   C17849456   2.297   6.391   5.381  0.5699 -0.3226 -0.8858
  130MOL   C17949457   2.169   6.475   5.377 -0.5276  0.2222 -0.9894
  130MOL   C18049458   2.268   6.244   5.356 -0.3515 -0.2131  0.1819
  130MOL   H18149459   2.599   6.699   5.704 -0.3062  0.1020 -1.2745
  130MOL   H18249460   2.427   6.703   5.715  0.8137  2.5549  1.3709
  130MOL   H18349461   2.465   6.442   5.740  0.8181 -1.4633 -0.9088
  130MOL   H18449462   2.363   6.328   5.568 -1.2279 -0.1967 -0.7138
  130MOL   H18549463   2.361   6.432   5.302  0.2257  0.4356 -0.7805
  130MOL   H18649464   2.182   6.571   5.426 -2.1951 -0.1607  0.2422
  130MOL   H18749465   2.097   6.418   5.436 -0.3970 -1.1150 -2.1078
  130MOL   H18849466   2.134   6.471   5.274  0.0723  0.7094 -1.2173
  130MOL   H18949467   2.194   6.223   5.278  0.4994 -1.9656 -0.1895
  130MOL   H19049468   2.230   6.196   5.446  1.0472 -1.6206  0.0631
  130MOL   H19149469   2.358   6.189   5.327  0.2518  1.5102 -1.3572
  130MOL   C19249470   2.662   6.430   5.686 -0.8913 -0.3033 -0.0237
  130MOL   C19349471   2.780   6.494   5.614  0.7431 -1.0867  0.5558
  130MOL   C19449472   2.824   6.430   5.481  0.3931  0.2387  0.3894
  130MOL   O19549473   2.921   6.346   5.482 -0.4993  0.0613  0.2425
  130MOL   N19649474   2.738   6.444   5.376  0.1817  0.3134 -0.3523
  130MOL   C19749475   2.751   6.385   5.244  0.0061  0.5399 -0.9968
  130MOL   C19849476   2.604   6.349   5.198 -0.8498 -0.2820  0.3667
  130MOL   C19949477   2.815   6.485   5.156  0.2565 -0.4439  0.3209
  130MOL   H20049478   2.648   6.329   5.645  2.2771 -1.2750  1.1295
  130MOL   H20149479   2.679   6.393   5.787 -1.4983 -0.0016  0.1924
  130MOL   H20249480   2.746   6.593   5.583 -0.7102 -1.8684 -0.4163
  130MOL   H20349481   2.655   6.501   5.382 -0.4032 -0.7690  2.5933
  130MOL   H20449482   2.815   6.297   5.247  1.6900  1.7573  0.0556
  130MOL   H20549483   2.558   6.447   5.183  0.9733  0.7359  1.2434
  130MOL   H20649484   2.557   6.304   5.285 -2.1592  2.3490  1.0935
  130MOL   H20749485   2.612   6.291   5.107 -1.6740  0.1239  0.0273
  130MOL   H20849486   2.924   6.481   5.166  0.0520 -1.8511  2.2102
  130MOL   H20949487   2.778   6.587   5.162 -0.5707 -0.7501  0.4987
  130MOL   H21049488   2.800   6.461   5.051  3.7755  0.7893 -0.5539
  130MOL   C21149489   2.892   6.536   5.713 -0.0554  0.9790  0.0175
  130MOL   C21249490   2.941   6.423   5.804 -0.0593 -1.3056  0.0059
  130MOL   C21349491   3.092   6.388   5.783  0.1529 -0.1496  0.8287
  130MOL   O21449492   3.181   6.437   5.856  0.8510 -0.1877 -0.2587
  130MOL   N21549493   3.127   6.298   5.684  0.1442  0.5364 -0.0750
  130MOL   C21649494   3.251   6.215   5.685  0.7547 -0.3621  0.1653
  130MOL   C21749495   3.232   6.103   5.574  0.4673  0.2368  0.2000
  130MOL   C21849496   3.278   6.151   5.823  0.2653 -0.0331  0.2292
  130MOL   H21949497   2.866   6.627   5.768 -0.2426  1.9203 -1.6173
  130MOL   H22049498   2.982   6.566   5.659 -0.4497  3.1100  0.5081
  130MOL   H22149499   2.894   6.332   5.768  1.7186 -1.6356 -1.6096
  130MOL   H22249500   3.048   6.281   5.623 -3.4031  1.7137  3.9224
  130MOL   H22349501   3.328   6.285   5.653  0.1529  0.2330  0.0169
  130MOL   H22449502   3.326   6.051   5.557  0.1233 -0.2415 -0.2463
  130MOL   H22549503   3.152   6.034   5.599  0.6507 -0.0205  0.0821
  130MOL   H22649504   3.193   6.150   5.484 -3.4932  0.0163  1.6894
  130MOL   H22749505   3.299   6.222   5.903 -1.3319 -0.7155  1.2636
  130MOL   H22849506   3.367   6.087   5.827 -0.1682 -0.5933  1.0110
  130MOL   H22949507   3.187   6.095   5.847 -0.2992  1.4750  1.6358
  130MOL   C23049508   2.903   6.444   5.955  0.0177 -0.5011  0.7370
  130MOL   C23149509   2.944   6.333   6.052 -0.1775  0.5571  0.1351
  130MOL   C23249510   2.886   6.378   6.190 -0.6073 -0.5938 -0.1375
  130MOL   O23349511   2.766   6.396   6.198 -0.7065 -0.3655 -0.5244
  130MOL   N23449512   2.974   6.399   6.289 -0.4357  0.0818  0.7924
  130MOL   C23549513   2.926   6.445   6.417 -0.7515 -0.4660 -0.3182
  130MOL   C23649514   2.863   6.341   6.494  0.2742  0.4395 -0.3081
  130MOL   C23749515   3.045   6.504   6.495  0.3128  0.2720  0.2677
  130MOL   H23849516   2.794   6.446   5.954  0.0214  1.4412  1.1261
  130MOL   H23949517   2.955   6.536   5.984 -0.2392 -0.0386 -0.2295
  130MOL   H24049518   3.051   6.353   6.055 -0.1895  1.0416 -1.8280
  130MOL   H24149519   3.073   6.382   6.275 -0.2134  1.1688  1.0145
  130MOL   H24249520   2.868   6.535   6.396 -0.0298  0.2188  0.5837
  130MOL   H24349521   2.846   6.370   6.597  1.3474 -2.9708  0.9070
  130MOL   H24449522   2.783   6.292   6.439  1.8921 -2.6952  0.0214
  130MOL   H24549523   2.943   6.267   6.501 -0.6776 -0.6973 -1.2264
  130MOL   H24649524   3.012   6.544   6.590 -1.5063  0.8183 -0.5670
  130MOL   H24749525   3.095   6.587   6.444 -1.3077  0.2706 -1.3918
  130MOL   H24849526   3.116   6.424   6.513  0.2098  0.2012  0.3558
  130MOL   C24949527   2.912   6.192   6.010 -0.2416 -0.0405  0.8538
  130MOL   C25049528   2.912   6.078   6.113 -0.3872  0.1516 -0.0537
  130MOL   C25149529   3.059   6.063   6.160  0.4065 -0.4913 -0.2057
  130MOL   O25249530   3.131   5.997   6.083 -0.4074  0.5253  0.2824
  130MOL   N25349531   3.101   6.113   6.275 -0.2690 -0.5416 -0.1550
  130MOL   C25449532   3.237   6.108   6.333 -0.0494 -0.4565 -0.2899
  130MOL   C25549533   3.314   6.219   6.294 -0.3441  0.5192  0.0453
  130MOL   C25649534   3.217   6.111   6.488  0.5031 -0.6053  1.4842
  130MOL   H25749535   2.986   6.163   5.935  0.0969 -1.0010  1.5543
  130MOL   H25849536   2.813   6.196   5.964  0.6219 -1.3304 -1.2120
  130MOL   H25949537   2.855   6.108   6.200 -0.4141  0.9235 -0.3292
  130MOL   H26049538   3.029   6.156   6.330 -0.2935  0.6212 -1.0766
  130MOL   H26149539   3.279   6.010   6.310 -1.5363 -0.9921 -0.7756
  130MOL   H26249540   3.414   6.221   6.336 -0.5114  0.2045  0.4611
  130MOL   H26349541   3.324   6.217   6.185 -1.6167 -0.6325 -0.0635
  130MOL   H26449542   3.254   6.308   6.315 -0.3240  0.8100 -1.0715
  130MOL   H26549543   3.171   6.206   6.518  0.7980 -0.7573  2.4338
  130MOL   H26649544   3.148   6.032   6.518  0.0837 -0.5812  0.6027
  130MOL   H26749545   3.310   6.104   6.544  1.2015  0.3239  0.4768
  130MOL   C26849546   2.867   5.942   6.039 -0.1065  0.0185 -0.0367
  130MOL   C26949547   2.867   5.815   6.129  0.3280 -0.0241 -0.3904
  130MOL   C27049548   2.794   5.842   6.259 -0.0339  0.6302  0.2816
  130MOL   O27149549   2.673   5.866   6.258  0.3826  0.1115 -0.9085
  130MOL   N27249550   2.873   5.847   6.371 -0.2247  0.7033 -0.4601
  130MOL   C27349551   2.819   5.853   6.508  0.8948  0.1674  0.5440
  130MOL   C27449552   2.915   5.780   6.606  0.9084  0.2661 -0.1226
  130MOL   C27549553   2.804   5.999   6.547 -0.4933 -0.2541 -0.4103
  130MOL   H27649554   2.763   5.951   6.008  0.1826  2.7419 -0.3574
  130MOL   H27749555   2.917   5.928   5.943 -1.8308  2.3919 -1.3402
  130MOL   H27849556   2.971   5.796   6.155  0.0134 -0.3965  0.6115
  130MOL   H27949557   2.971   5.822   6.373 -0.2986  0.4209 -0.3001
  130MOL   H28049558   2.723   5.802   6.517  1.1078 -0.3256 -0.0120
  130MOL   H28149559   3.016   5.819   6.592  0.9211  0.1613 -0.3301
  130MOL   H28249560   2.886   5.798   6.709 -0.3373 -0.2915 -0.3679
  130MOL   H28349561   2.909   5.671   6.600 -1.1403  0.3184  0.7027
  130MOL   H28449562   2.733   6.039   6.475 -0.7903 -2.5807 -1.4326
  130MOL   H28549563   2.768   6.008   6.649  0.7071  0.5680 -0.0442
  130MOL   H28649564   2.902   6.048   6.552  0.5988 -2.5115  1.4694
  130MOL   C28749565   2.812   5.700   6.047 -0.6026  1.0579 -0.2977
  130MOL   C28849566   2.773   5.565   6.128 -0.4895  0.8792 -0.3407
  130MOL   C28949567   2.889   5.525   6.219  0.4455  0.7873  0.5668
  130MOL   O29049568   2.865   5.467   6.327 -0.5574 -0.4176 -0.5752
  130MOL   N29149569   3.010   5.559   6.185 -0.4408 -0.3418 -0.9211
  130MOL   C29249570   3.131   5.531   6.259  0.1355 -0.2872  0.1529
  130MOL   C29349571   3.234   5.510   6.143  0.1692  0.5765 -0.0941
  130MOL   C29449572   3.161   5.656   6.352 -0.0274 -0.3092  0.5534
  130MOL   H29549573   2.714   5.729   6.008 -0.4411  1.4898 -0.3816
  130MOL   H29649574   2.867   5.669   5.959 -0.3269  0.1476  0.1921
  130MOL   H29749575   2.686   5.583   6.191 -0.9189  0.3191 -0.7789
  130MOL   H29849576   3.017   5.609   6.097 -1.2136  1.1075 -0.1676
  130MOL   H29949577   3.122   5.443   6.323  0.6687  0.1096  0.7749
  130MOL   H30049578   3.324   5.471   6.189  0.6676 -0.3221 -1.7978
  130MOL   H30149579   3.195   5.429   6.081  1.4765  0.0041 -0.1975
  130MOL   H30249580   3.245   5.604   6.088  1.1404  0.8278  0.5217
  130MOL   H30349581   3.101   5.644   6.442 -1.8782 -1.1780 -0.7721
  130MOL   H30449582   3.264   5.645   6.387  0.4184 -0.7141 -0.8688
  130MOL   H30549583   3.135   5.752   6.308 -1.3250 -0.3223  1.2823
  130MOL   C30649584   2.743   5.442   6.031 -0.0604  0.4791 -0.4306
  130MOL   C30749585   2.664   5.329   6.109 -0.0950  0.2641  0.5578
  130MOL   C30849586   2.737   5.194   6.132 -0.2196  0.1402 -0.9325
  130MOL   O30949587   2.706   5.095   6.069  0.0652 -0.2067 -0.1099
  130MOL   N31049588   2.833   5.181   6.227 -0.5795 -0.1430 -0.1880
  130MOL   C31149589   2.903   5.062   6.274  0.6673  0.4626  0.0236
  130MOL   C31249590   3.014   5.041   6.168  0.1872  0.5459 -0.1517
  130MOL   C31349591   2.954   5.090   6.420 -0.0590  0.0872  0.1080
  130MOL   H31449592   2.679   5.471   5.948  1.1049  0.5926 -1.2981
  130MOL   H31549593   2.837   5.402   5.995  0.6444  0.2528  1.5967
  130MOL   H31649594   2.656   5.361   6.214  0.1319 -0.2393  0.7293
  130MOL   H31749595   2.864   5.265   6.275 -0.9022  0.3902 -0.8973
  130MOL   H31849596   2.827   4.985   6.273  0.5025  0.6381 -1.3438
  130MOL   H31949597   2.962   5.031   6.073  1.2773  0.2168 -0.7214
  130MOL   H32049598   3.065   4.948   6.195  0.6355  0.6566 -0.6147
  130MOL   H32149599   3.085   5.123   6.162 -0.3674  1.0266 -0.1275
  130MOL   H32249600   2.875   5.112   6.491  1.6979  0.6145  1.9462
  130MOL   H32349601   3.026   5.172   6.415  0.0606 -0.0498 -0.4953
  130MOL   H32449602   3.017   5.005   6.449 -0.6169 -0.6980 -0.9347
  130MOL   C32549603   2.523   5.304   6.054  0.0883  0.2924 -0.0026
  130MOL   C32649604   2.421   5.229   6.145  0.7908 -0.1728 -0.3582
  130MOL   C32749605   2.397   5.308   6.272 -0.3750  0.5184 -0.6591
  130MOL   O32849606   2.306   5.391   6.286  0.4205  0.4149  0.0333
  130MOL   N32949607   2.469   5.273   6.374 -0.2560 -0.2815 -0.7671
  130MOL   C33049608   2.454   5.325   6.508 -0.1224 -0.2748 -0.2632
  130MOL   C33149609   2.527   5.453   6.525 -0.1838  0.0431 -0.0395
  130MOL   C33249610   2.505   5.215   6.604 -0.0458  0.1034  0.1485
  130MOL   H33349611   2.537   5.247   5.961  1.8936  2.4026 -1.0508
  130MOL   H33449612   2.476   5.389   6.005  2.8380  2.2455  0.6229
  130MOL   H33549613   2.458   5.130   6.170  0.3637 -0.1060  0.5372
  130MOL   H33649614   2.523   5.188   6.369 -0.8718 -0.6608 -1.0245
  130MOL   H33749615   2.346   5.339   6.519 -0.1548 -1.3920  0.9264
  130MOL   H33849616   2.564   5.475   6.625 -1.5312  0.8285  0.3038
  130MOL   H33949617   2.619   5.446   6.468 -1.7486 -1.0160 -2.5430
  130MOL   H34049618   2.469   5.525   6.466 -0.6448 -1.0515 -0.9587
  130MOL   H34149619   2.600   5.170   6.577 -0.4597  0.6129 -2.2248
  130MOL   H34249620   2.437   5.131   6.590  0.4596 -0.5325  1.3838
  130MOL   H34349621   2.496   5.245   6.709 -1.4944 -2.5001  0.8144
  130MOL   C34449622   2.287   5.198   6.074  0.4224 -0.7221  0.0754
  130MOL   C34549623   2.275   5.087   5.961  0.1176  0.1475 -0.1210
  130MOL   C34649624   2.334   4.952   6.019 -0.4224  0.2509  0.2557
  130MOL   O34749625   2.276   4.905   6.119  0.4631  0.2103  0.4388
  130MOL   N34849626   2.431   4.893   5.952  0.0278 -0.3274  0.1705
  130MOL   C34949627   2.476   4.756   5.961  1.1403  0.1451  0.3774
  130MOL   C35049628   2.470   4.691   5.832  0.6121 -0.4482 -0.3905
  130MOL   C35149629   2.625   4.762   5.997  0.1812  0.6061  0.7709
  130MOL   H35249630   2.243   5.291   6.041 -0.3534 -0.2452  2.3420
  130MOL   H35349631   2.219   5.161   6.151 -0.2474  0.5406  0.0893
  130MOL   H35449632   2.329   5.117   5.871 -3.8372  0.0231 -2.6515
  130MOL   H35549633   2.458   4.935   5.865 -0.7280  1.2252  0.6627
  130MOL   H35649634   2.419   4.700   6.035  2.5569 -2.6863 -0.5856
  130MOL   H35749635   2.375   4.695   5.780  0.0266  0.0980  0.7125
  130MOL   H35849636   2.551   4.725   5.767  1.0628 -3.1082 -1.2875
  130MOL   H35949637   2.490   4.584   5.838 -2.7659 -0.9947  2.0294
  130MOL   H36049638   2.677   4.826   5.927 -1.2193  1.6658  0.6840
  130MOL   H36149639   2.634   4.814   6.092 -1.3709  1.6593  0.3679
  130MOL   H36249640   2.662   4.660   6.011  0.8243  0.8934  1.1659
  130MOL   C36349641   2.126   5.068   5.917  0.6885 -0.2753  0.9337
  130MOL   C36449642   2.107   5.012   5.773  0.1321 -0.9966  0.4936
  130MOL   C36549643   1.952   5.004   5.747 -0.2745 -0.9360  0.3626
  130MOL   O36649644   1.866   5.031   5.831  0.0436 -0.3884 -0.2444
  130MOL   N36749645   1.924   4.957   5.619  0.2058 -0.2953 -0.4432
  130MOL   C36849646   1.788   4.944   5.573 -0.1197  0.8590  0.0461
  130MOL   C36949647   1.772   5.005   5.437  0.0978 -0.7710  0.0126
  130MOL   C37049648   1.772   4.786   5.561  0.6415 -0.1103  0.4997
  130MOL   H37149649   2.082   5.167   5.905 -0.4185 -0.8967 -0.2892
  130MOL   H37249650   2.063   5.010   5.984 -2.0958  1.7356  0.1288
  130MOL   H37349651   2.147   4.910   5.769 -0.0444 -0.9875 -2.6724
  130MOL   H37449652   1.998   4.955   5.551  0.5563 -2.0733 -0.0408
  130MOL   H37549653   1.714   4.995   5.635 -2.1507 -0.8823 -0.8781
  130MOL   H37649654   1.786   5.113   5.443  0.2335 -0.8536  1.4312
  130MOL   H37749655   1.834   4.967   5.356 -0.0483  0.7537 -0.8376
  130MOL   H37849656   1.670   4.992   5.401 -0.5044  2.5535  0.3536
  130MOL   H37949657   1.838   4.730   5.495 -0.3416  0.2182 -0.7858
  130MOL   H38049658   1.773   4.737   5.659 -0.0048  1.8032  1.4826
  130MOL   H38149659   1.674   4.773   5.515  0.4847 -0.8663  1.0370
  130MOL   H38249660   2.150   5.081   5.701 -1.6742 -1.7286 -1.3369
   7.83638   7.83638   7.83638
